
Running Job 1 of 1 SSI-050GLN-055TYR-1_PCM_TZVPD.in
qchem SSI-050GLN-055TYR-1_PCM_TZVPD.in_22673.0 /tmp/qchem22673/ 0
/global/common/cori/software/qchem/5.2/exe/qcprog.exe_s SSI-050GLN-055TYR-1_PCM_TZVPD.in_22673.0 /tmp/qchem22673/
                  Welcome to Q-Chem
     A Quantum Leap Into The Future Of Chemistry


 Q-Chem 5.2, Q-Chem, Inc., Pleasanton, CA (2019)

 License issued to: National Energy Research Scientific Computing Center

 Yihan Shao,  Zhengting Gan,  E. Epifanovsky,  A. T. B. Gilbert,  M. Wormit,  
 J. Kussmann,  A. W. Lange,  A. Behn,  Jia Deng,  Xintian Feng,  D. Ghosh,  
 M. Goldey,  P. R. Horn,  L. D. Jacobson,  I. Kaliman,  T. Kus,  A. Landau,  
 Jie Liu,  E. I. Proynov,  R. M. Richard,  R. P. Steele,  E. J. Sundstrom,  
 H. L. Woodcock III,  P. M. Zimmerman,  D. Zuev,  B. Albrecht,  E. Alguire,  
 S. A. Baeppler,  D. Barton,  Z. Benda,  Y. A. Bernard,  E. J. Berquist,  
 K. B. Bravaya,  H. Burton,  D. Casanova,  Chun-Min Chang,  Yunqing Chen,  
 A. Chien,  K. D. Closser,  M. P. Coons,  S. Coriani,  S. Dasgupta,  
 A. L. Dempwolff,  M. Diedenhofen,  Hainam Do,  R. G. Edgar,  Po-Tung Fang,  
 S. Faraji,  S. Fatehi,  Qingguo Feng,  K. D. Fenk,  J. Fosso-Tande,  
 J. Gayvert,  Qinghui Ge,  A. Ghysels,  G. Gidofalvi,  J. Gomes,  
 J. Gonthier,  A. Gunina,  D. Hait,  M. W. D. Hanson-Heine,  
 P. H. P. Harbach,  A. W. Hauser,  M. F. Herbst,  J. E. Herr,  
 E. G. Hohenstein,  Z. C. Holden,  Kerwin Hui,  B. C. Huynh,  T.-C. Jagau,  
 Hyunjun Ji,  B. Kaduk,  K. Khistyaev,  Jaehoon Kim,  P. Klunzinger,  K. Koh,  
 D. Kosenkov,  L. Koulias,  T. Kowalczyk,  C. M. Krauter,  A. Kunitsa,  
 Ka Un Lao,  A. Laurent,  K. V. Lawler,  Joonho Lee,  D. Lefrancois,  
 S. Lehtola,  D. S. Levine,  Yi-Pei Li,  You-Sheng Lin,  Fenglai Liu,  
 E. Livshits,  A. Luenser,  P. Manohar,  E. Mansoor,  S. F. Manzer,  
 Shan-Ping Mao,  Yuezhi Mao,  N. Mardirossian,  A. V. Marenich,  
 T. Markovich,  L. A. Martinez-Martinez,  S. A. Maurer,  N. J. Mayhall,  
 S. C. McKenzie,  J.-M. Mewes,  P. Morgante,  A. F. Morrison,  
 J. W. Mullinax,  K. Nanda,  T. S. Nguyen-Beck,  R. Olivares-Amaya,  
 J. A. Parkhill,  Zheng Pei,  T. M. Perrine,  F. Plasser,  P. Pokhilko,  
 S. Prager,  A. Prociuk,  E. Ramos,  D. R. Rehn,  F. Rob,  M. Scheurer,  
 M. Schneider,  N. Sergueev,  S. M. Sharada,  S. Sharma,  D. W. Small,  
 T. Stauch,  T. Stein,  Yu-Chuan Su,  A. J. W. Thom,  A. Tkatchenko,  
 T. Tsuchimochi,  N. M. Tubman,  L. Vogt,  M. L. Vidal,  O. Vydrov,  
 M. A. Watson,  J. Wenzel,  M. de Wergifosse,  T. A. Wesolowski,  A. White,  
 J. Witte,  A. Yamada,  Jun Yang,  K. Yao,  S. Yeganeh,  S. R. Yost,  
 Zhi-Qiang You,  A. Zech,  Igor Ying Zhang,  Xing Zhang,  Yan Zhao,  
 Ying Zhu,  B. R. Brooks,  G. K. L. Chan,  C. J. Cramer,  M. S. Gordon,  
 W. J. Hehre,  A. Klamt,  M. W. Schmidt,  C. D. Sherrill,  D. G. Truhlar,  
 A. Aspuru-Guzik,  R. Baer,  A. T. Bell,  N. A. Besley,  Jeng-Da Chai,  
 A. E. DePrince, III,  R. A. DiStasio Jr.,  A. Dreuw,  B. D. Dunietz,  
 T. R. Furlani,  Chao-Ping Hsu,  Yousung Jung,  Jing Kong,  D. S. Lambrecht,  
 WanZhen Liang,  C. Ochsenfeld,  V. A. Rassolov,  L. V. Slipchenko,  
 J. E. Subotnik,  T. Van Voorhis,  J. M. Herbert,  A. I. Krylov,  
 P. M. W. Gill,  M. Head-Gordon

 Contributors to earlier versions of Q-Chem not listed above: 
 R. D. Adamson,  B. Austin,  J. Baker,  G. J. O. Beran,  K. Brandhorst,  
 S. T. Brown,  E. F. C. Byrd,  A. K. Chakraborty,  C.-L. Cheng,  
 Siu Hung Chien,  D. M. Chipman,  D. L. Crittenden,  H. Dachsel,  
 R. J. Doerksen,  A. D. Dutoi,  L. Fusti-Molnar,  W. A. Goddard III,  
 A. Golubeva-Zadorozhnaya,  S. R. Gwaltney,  G. Hawkins,  A. Heyden,  
 S. Hirata,  G. Kedziora,  F. J. Keil,  C. Kelley,  Jihan Kim,  R. A. King,  
 R. Z. Khaliullin,  P. P. Korambath,  W. Kurlancheek,  A. M. Lee,  M. S. Lee,  
 S. V. Levchenko,  Ching Yeh Lin,  D. Liotard,  R. C. Lochan,  I. Lotan,  
 P. E. Maslen,  N. Nair,  D. P. O'Neill,  D. Neuhauser,  E. Neuscamman,  
 C. M. Oana,  R. Olson,  B. Peters,  R. Peverati,  P. A. Pieniazek,  
 Y. M. Rhee,  J. Ritchie,  M. A. Rohrdanz,  E. Rosta,  N. J. Russ,  
 H. F. Schaefer III,  N. E. Schultz,  N. Shenvi,  A. C. Simmonett,  A. Sodt,  
 D. Stuck,  K. S. Thanthiriwatte,  V. Vanovschi,  Tao Wang,  A. Warshel,  
 C. F. Williams,  Q. Wu,  X. Xu,  W. Zhang

 Please cite Q-Chem as follows:
 Y. Shao et al., Mol. Phys. 113, 184-215 (2015)
 DOI: 10.1080/00268976.2014.952696

 Q-Chem 5.2.0 for Intel X86 EM64T Linux

 Parts of Q-Chem use Armadillo 8.300.2 (Tropical Shenanigans).
 http://arma.sourceforge.net/

 Q-Chem begins on Sun Sep 26 08:20:47 2021  

Host: cori01
0

     Scratch files written to /tmp/qchem22673//
 May1019 |scratch|qcdevops|jenkins|workspace|build_RNUM -1
Processing $rem in /global/common/cori/software/qchem/5.2/config/preferences:
	 MEM_TOTAL  96000 
NAlpha2: 90
NElect   90
Mult     1
Symmetry turned off for PCM/SM12/SMD calculation

 Q-Chem warning in module libgen/rem_setup.C, line 2803:

 Neither GIA nor STOLL is specified by user. Use STOLL as the default


Checking the input file for inconsistencies... 	...done.

--------------------------------------------------------------
User input:
--------------------------------------------------------------
$comment
SSI-050GLN-055TYR-1.pdb
$end

$molecule
0 1
--
0 1
C   -1.059748957430    2.318048387980    1.906604731133
C   -0.891748957430    2.487048387980    0.405604731133
O   -1.863748957430    2.645048387980   -0.330395268867
N    0.347251042570    2.460048387980   -0.061395268867
H   -1.201748957430    3.301048387980    2.356604731133
H   -0.141748957430    1.895048387980    2.304604731133
H    0.494251042570    2.523048387980   -1.056395268867
H    1.119251042570    2.412048387980    0.581604731133
H   -1.902598957430    1.658738387980    2.161402731133
--
0 1
C    0.723251042570   -3.182951612020    2.019604731133
C   -0.785748957430   -0.885951612020   -0.622395268867
C   -0.665748957430   -1.766951612020    0.459604731133
C    0.354251042570   -0.492951612020   -1.323395268867
C    0.587251042570   -2.254951612020    0.841604731133
C    1.606251042570   -0.970951612020   -0.946395268867
C    1.718251042570   -1.847951612020    0.129604731133
O    0.254251042570    0.361048387980   -2.383395268867
H   -1.754748957430   -0.507951612020   -0.910395268867
H   -1.550748957430   -2.065951612020    1.006604731133
H   -0.660748957430    0.612048387980   -2.552395268867
H    2.484251042570   -0.645951612020   -1.477395268867
H    1.610251042570   -3.801951612020    1.895604731133
H   -0.143748957430   -3.845951612020    2.037604731133
H    2.693251042570   -2.213951612020    0.415604731133
H    0.786591042570   -2.653911612020    2.981949731133
$end

$rem
JOBTYPE			EDA
EDA2			1
method			wB97X-V
BASIS			def2-TZVPD
XC_GRID			000099000590
NL_GRID			1
UNRESTRICTED		FALSE
MAX_SCF_CYCLES		200
SYMMETRY		FALSE
SYM_IGNORE		TRUE
MEM_STATIC		2000
BASIS_LIN_DEP_THRESH 	6
THRESH 			14
SCF_CONVERGENCE 	8
SCF_PRINT_FRGM 		TRUE
SOLVENT_METHOD          PCM
$end

$PCM
THEORY                  CPCM
METHOD                  SWIG
SOLVER                  INVERSION
RADII                   UFF
HPOINTS                 302
HEAVYPOINTS             302
PRINTLEVEL              0
$END

$SOLVENT
DIELECTRIC              78.390000 ! water
$END
--------------------------------------------------------------
 ----------------------------------------------------------------
             Standard Nuclear Orientation (Angstroms)
    I     Atom           X                Y                Z
 ----------------------------------------------------------------
    1      C      -1.0597489574     2.3180483880     1.9066047311
    2      C      -0.8917489574     2.4870483880     0.4056047311
    3      O      -1.8637489574     2.6450483880    -0.3303952689
    4      N       0.3472510426     2.4600483880    -0.0613952689
    5      H      -1.2017489574     3.3010483880     2.3566047311
    6      H      -0.1417489574     1.8950483880     2.3046047311
    7      H       0.4942510426     2.5230483880    -1.0563952689
    8      H       1.1192510426     2.4120483880     0.5816047311
    9      H      -1.9025989574     1.6587383880     2.1614027311
   10      C       0.7232510426    -3.1829516120     2.0196047311
   11      C      -0.7857489574    -0.8859516120    -0.6223952689
   12      C      -0.6657489574    -1.7669516120     0.4596047311
   13      C       0.3542510426    -0.4929516120    -1.3233952689
   14      C       0.5872510426    -2.2549516120     0.8416047311
   15      C       1.6062510426    -0.9709516120    -0.9463952689
   16      C       1.7182510426    -1.8479516120     0.1296047311
   17      O       0.2542510426     0.3610483880    -2.3833952689
   18      H      -1.7547489574    -0.5079516120    -0.9103952689
   19      H      -1.5507489574    -2.0659516120     1.0066047311
   20      H      -0.6607489574     0.6120483880    -2.5523952689
   21      H       2.4842510426    -0.6459516120    -1.4773952689
   22      H       1.6102510426    -3.8019516120     1.8956047311
   23      H      -0.1437489574    -3.8459516120     2.0376047311
   24      H       2.6932510426    -2.2139516120     0.4156047311
   25      H       0.7865910426    -2.6539116120     2.9819497311
 ----------------------------------------------------------------
 Nuclear Repulsion Energy =         683.18389862 hartrees
 There are       45 alpha and       45 beta electrons
 Requested basis set is def2-TZVPD
 There are 223 shells and 567 basis functions

 Total QAlloc Memory Limit  96000 MB
 Mega-Array Size      1956 MB
 MEM_STATIC part      2000 MB
 Discretize the solute cavity surface with Lebedev spheres
	Using 302 Lebedev grid points for each H atom
	Using 302 Lebedev grid points for other atoms
	Atomic van der Waals radii will be scaled by 1.20
 Remove points where switching function is < 1.0e-08
 Keep 2815 surface tesserae and discard 4735 interior tesserae
 Molecular Surface Area = 278.734 Angst**2
 A cutoff of  1.0D-14 yielded  22357 shell pairs
 There are    146377 function pairs (    185320 Cartesian)
 Smallest overlap matrix eigenvalue = 4.60E-07
 Linear dependence detected in AO basis
 Tighter screening thresholds may be required for diffuse basis sets
 Use S2THRESH > 14 and THRESH = 14 in case of SCF convergence issues
 Number of orthogonalized atomic orbitals = 565
 Maximum deviation from orthogonality = 1.767E-10

 Scale SEOQF with 1.000000e-01/1.000000e-01/1.000000e-01

 Standard Electronic Orientation quadrupole field applied
 Nucleus-field energy     =     0.0000000144 hartrees

 -----------------------------------------------------------------------
  General SCF calculation program by
  Eric Jon Sundstrom, Paul Horn, Yuezhi Mao, Dmitri Zuev, Alec White,
  David Stuck, Shaama M.S., Shane Yost, Joonho Lee, David Small,
  Daniel Levine, Susi Lehtola, Hugh Burton, Evgeny Epifanovsky
 -----------------------------------------------------------------------
================================================================
                 ALMO-EDA with the EDA2 driver                  
================================================================
 The second-generation ALMO-EDA (for DFT):                      
 P. R. Horn, Y. Mao and M. Head-Gordon, PCCP, 18, 23067 (2016)  
 Decomposition of the frozen energy:                            
 P. R. Horn, Y. Mao and M. Head-Gordon, JCP, 144, 114107 (2016) 
 FERF model for polarization:                                   
 P. R. Horn and M. Head-Gordon, JCP, 143, 114111 (2015)         
Using eda2 option set 1
Option set summary: Frozen orbital wavefunction, initial wavefunction decomposition, and nDQ polarization.
--------------------------------
Printing EDA Options
--------------------------------
eda_child_super_basis      0
fragmo_guess_mode          0
child_mp                   1
child_mp_orders            232
cls_elec                   1
cls_disp                   0
scfmi_mode                 1
scfmi_occs                 0
scfmi_virts                0
frz_relax                  0
frz_relax_method           0
dc_pen_start               0
dc_pen_conv                0
dc_pen_increment           0
dc_pen_steps               0
dc_pen_thresh_factor       0
dc_pen_pre_newton_thresh   0
frz_ortho_decomp           1
frz_ortho_decomp_conv      6
frgm_method                2
scfmi_freeze_ss            0
separate_rehyb             0
plot_diff_den              0
eda_nocv                   0
eda_vct_relax              1
disp_free_x                0
disp_free_c                0
eda_bsse                   0
eda_pct_a                  0
eda_covp                   0
--------------------------------
Attempting to make child job directory: /tmp/qchem22673//Frg1/
Attempting to make child job directory: /tmp/qchem22673//Frg2/
Creating input file /tmp/qchem22673/Frg1.input
using default PutDataFrgm: nothing
calling putenv with: QCSCRATCH=/tmp/qchem22673/ 
calling putenv with: QCLOCALSCR=/tmp/qchem22673/ 
Spawning Job For Fragment 0
                  Welcome to Q-Chem
     A Quantum Leap Into The Future Of Chemistry


 Q-Chem 5.2, Q-Chem, Inc., Pleasanton, CA (2019)

 License issued to: National Energy Research Scientific Computing Center

 Yihan Shao,  Zhengting Gan,  E. Epifanovsky,  A. T. B. Gilbert,  M. Wormit,  
 J. Kussmann,  A. W. Lange,  A. Behn,  Jia Deng,  Xintian Feng,  D. Ghosh,  
 M. Goldey,  P. R. Horn,  L. D. Jacobson,  I. Kaliman,  T. Kus,  A. Landau,  
 Jie Liu,  E. I. Proynov,  R. M. Richard,  R. P. Steele,  E. J. Sundstrom,  
 H. L. Woodcock III,  P. M. Zimmerman,  D. Zuev,  B. Albrecht,  E. Alguire,  
 S. A. Baeppler,  D. Barton,  Z. Benda,  Y. A. Bernard,  E. J. Berquist,  
 K. B. Bravaya,  H. Burton,  D. Casanova,  Chun-Min Chang,  Yunqing Chen,  
 A. Chien,  K. D. Closser,  M. P. Coons,  S. Coriani,  S. Dasgupta,  
 A. L. Dempwolff,  M. Diedenhofen,  Hainam Do,  R. G. Edgar,  Po-Tung Fang,  
 S. Faraji,  S. Fatehi,  Qingguo Feng,  K. D. Fenk,  J. Fosso-Tande,  
 J. Gayvert,  Qinghui Ge,  A. Ghysels,  G. Gidofalvi,  J. Gomes,  
 J. Gonthier,  A. Gunina,  D. Hait,  M. W. D. Hanson-Heine,  
 P. H. P. Harbach,  A. W. Hauser,  M. F. Herbst,  J. E. Herr,  
 E. G. Hohenstein,  Z. C. Holden,  Kerwin Hui,  B. C. Huynh,  T.-C. Jagau,  
 Hyunjun Ji,  B. Kaduk,  K. Khistyaev,  Jaehoon Kim,  P. Klunzinger,  K. Koh,  
 D. Kosenkov,  L. Koulias,  T. Kowalczyk,  C. M. Krauter,  A. Kunitsa,  
 Ka Un Lao,  A. Laurent,  K. V. Lawler,  Joonho Lee,  D. Lefrancois,  
 S. Lehtola,  D. S. Levine,  Yi-Pei Li,  You-Sheng Lin,  Fenglai Liu,  
 E. Livshits,  A. Luenser,  P. Manohar,  E. Mansoor,  S. F. Manzer,  
 Shan-Ping Mao,  Yuezhi Mao,  N. Mardirossian,  A. V. Marenich,  
 T. Markovich,  L. A. Martinez-Martinez,  S. A. Maurer,  N. J. Mayhall,  
 S. C. McKenzie,  J.-M. Mewes,  P. Morgante,  A. F. Morrison,  
 J. W. Mullinax,  K. Nanda,  T. S. Nguyen-Beck,  R. Olivares-Amaya,  
 J. A. Parkhill,  Zheng Pei,  T. M. Perrine,  F. Plasser,  P. Pokhilko,  
 S. Prager,  A. Prociuk,  E. Ramos,  D. R. Rehn,  F. Rob,  M. Scheurer,  
 M. Schneider,  N. Sergueev,  S. M. Sharada,  S. Sharma,  D. W. Small,  
 T. Stauch,  T. Stein,  Yu-Chuan Su,  A. J. W. Thom,  A. Tkatchenko,  
 T. Tsuchimochi,  N. M. Tubman,  L. Vogt,  M. L. Vidal,  O. Vydrov,  
 M. A. Watson,  J. Wenzel,  M. de Wergifosse,  T. A. Wesolowski,  A. White,  
 J. Witte,  A. Yamada,  Jun Yang,  K. Yao,  S. Yeganeh,  S. R. Yost,  
 Zhi-Qiang You,  A. Zech,  Igor Ying Zhang,  Xing Zhang,  Yan Zhao,  
 Ying Zhu,  B. R. Brooks,  G. K. L. Chan,  C. J. Cramer,  M. S. Gordon,  
 W. J. Hehre,  A. Klamt,  M. W. Schmidt,  C. D. Sherrill,  D. G. Truhlar,  
 A. Aspuru-Guzik,  R. Baer,  A. T. Bell,  N. A. Besley,  Jeng-Da Chai,  
 A. E. DePrince, III,  R. A. DiStasio Jr.,  A. Dreuw,  B. D. Dunietz,  
 T. R. Furlani,  Chao-Ping Hsu,  Yousung Jung,  Jing Kong,  D. S. Lambrecht,  
 WanZhen Liang,  C. Ochsenfeld,  V. A. Rassolov,  L. V. Slipchenko,  
 J. E. Subotnik,  T. Van Voorhis,  J. M. Herbert,  A. I. Krylov,  
 P. M. W. Gill,  M. Head-Gordon

 Contributors to earlier versions of Q-Chem not listed above: 
 R. D. Adamson,  B. Austin,  J. Baker,  G. J. O. Beran,  K. Brandhorst,  
 S. T. Brown,  E. F. C. Byrd,  A. K. Chakraborty,  C.-L. Cheng,  
 Siu Hung Chien,  D. M. Chipman,  D. L. Crittenden,  H. Dachsel,  
 R. J. Doerksen,  A. D. Dutoi,  L. Fusti-Molnar,  W. A. Goddard III,  
 A. Golubeva-Zadorozhnaya,  S. R. Gwaltney,  G. Hawkins,  A. Heyden,  
 S. Hirata,  G. Kedziora,  F. J. Keil,  C. Kelley,  Jihan Kim,  R. A. King,  
 R. Z. Khaliullin,  P. P. Korambath,  W. Kurlancheek,  A. M. Lee,  M. S. Lee,  
 S. V. Levchenko,  Ching Yeh Lin,  D. Liotard,  R. C. Lochan,  I. Lotan,  
 P. E. Maslen,  N. Nair,  D. P. O'Neill,  D. Neuhauser,  E. Neuscamman,  
 C. M. Oana,  R. Olson,  B. Peters,  R. Peverati,  P. A. Pieniazek,  
 Y. M. Rhee,  J. Ritchie,  M. A. Rohrdanz,  E. Rosta,  N. J. Russ,  
 H. F. Schaefer III,  N. E. Schultz,  N. Shenvi,  A. C. Simmonett,  A. Sodt,  
 D. Stuck,  K. S. Thanthiriwatte,  V. Vanovschi,  Tao Wang,  A. Warshel,  
 C. F. Williams,  Q. Wu,  X. Xu,  W. Zhang

 Please cite Q-Chem as follows:
 Y. Shao et al., Mol. Phys. 113, 184-215 (2015)
 DOI: 10.1080/00268976.2014.952696

 Q-Chem 5.2.0 for Intel X86 EM64T Linux

 Parts of Q-Chem use Armadillo 8.300.2 (Tropical Shenanigans).
 http://arma.sourceforge.net/

 Q-Chem begins on Sun Sep 26 08:20:52 2021  

Host: cori01
0

     Scratch files written to /tmp/qchem22673//Frg1//
 May1019 |scratch|qcdevops|jenkins|workspace|build_RNUM -1
Processing $rem in /global/common/cori/software/qchem/5.2/config/preferences:
	 MEM_TOTAL  96000 
NAlpha2: 32
NElect   32
Mult     1
Symmetry turned off for PCM/SM12/SMD calculation

Checking the input file for inconsistencies... 	...done.

--------------------------------------------------------------
User input:
--------------------------------------------------------------
$molecule
0 1
 6	-1.0597489574	2.3180483880	1.9066047311
 6	-0.8917489574	2.4870483880	0.4056047311
 8	-1.8637489574	2.6450483880	-0.3303952689
 7	0.3472510426	2.4600483880	-0.0613952689
 1	-1.2017489574	3.3010483880	2.3566047311
 1	-0.1417489574	1.8950483880	2.3046047311
 1	0.4942510426	2.5230483880	-1.0563952689
 1	1.1192510426	2.4120483880	0.5816047311
 1	-1.9025989574	1.6587383880	2.1614027311
$end
$rem
EDA2		1
METHOD		WB97X-V
BASIS		DEF2-TZVPD
XC_GRID		000099000590
NL_GRID		1
UNRESTRICTED		FALSE
MAX_SCF_CYCLES		200
SYMMETRY		FALSE
SYM_IGNORE		TRUE
BASIS_LIN_DEP_THRESH		6
THRESH		14
SCF_CONVERGENCE		8
SCF_PRINT_FRGM		TRUE
SOLVENT_METHOD		PCM
!required keywords
JOBTYPE		SP
SYM_IGNORE		TRUE
SUBSYSTEM		TRUE
GEN_SCFMAN		TRUE
CHILD_INSTRUCTION		2
SYM_IGNORE		TRUE
SCFMI		0
RI_K 0		
PARI_K 0		
MIN_PARI_K 0		
IARI_K 0		
OCC_RI_K 0		
PURECART		1111
MEM_STATIC		2000
MEM_TOTAL		96000
GUI		0
CHILD_MP		1
CHILD_MP_ORDERS		232
FRZ_RELAX		0
FRZ_RELAX_METHOD		0
EDA_CLS_ELEC		1
EDA_CLS_DISP		0
FRZ_ORTHO_DECOMP		1
EDA2		FALSE
FRGM_METHOD		FALSE
CIS_N_ROOTS  0
LOCAL_CIS    0
CIS_RLX_DNS  1
$end
$pcm
THEORY                  CPCM
METHOD                  SWIG
SOLVER                  INVERSION
RADII                   UFF
HPOINTS                 302
HEAVYPOINTS             302
PRINTLEVEL              0
$end
$solvent
DIELECTRIC              78.390000 ! water
$end
--------------------------------------------------------------
 ----------------------------------------------------------------
             Standard Nuclear Orientation (Angstroms)
    I     Atom           X                Y                Z
 ----------------------------------------------------------------
    1      C      -1.0597489574     2.3180483880     1.9066047311
    2      C      -0.8917489574     2.4870483880     0.4056047311
    3      O      -1.8637489574     2.6450483880    -0.3303952689
    4      N       0.3472510426     2.4600483880    -0.0613952689
    5      H      -1.2017489574     3.3010483880     2.3566047311
    6      H      -0.1417489574     1.8950483880     2.3046047311
    7      H       0.4942510426     2.5230483880    -1.0563952689
    8      H       1.1192510426     2.4120483880     0.5816047311
    9      H      -1.9025989574     1.6587383880     2.1614027311
 ----------------------------------------------------------------
 Nuclear Repulsion Energy =         122.32800003 hartrees
 There are       16 alpha and       16 beta electrons
 Requested basis set is def2-TZVPD
 There are 78 shells and 196 basis functions

 Total QAlloc Memory Limit  96000 MB
 Mega-Array Size      1956 MB
 MEM_STATIC part      2000 MB
 Discretize the solute cavity surface with Lebedev spheres
	Using 302 Lebedev grid points for each H atom
	Using 302 Lebedev grid points for other atoms
	Atomic van der Waals radii will be scaled by 1.20
 Remove points where switching function is < 1.0e-08
 Keep 1213 surface tesserae and discard 1505 interior tesserae
 Molecular Surface Area = 128.358 Angst**2

                       Distance Matrix (Angstroms)
             C (  1)   C (  2)   O (  3)   N (  4)   H (  5)   H (  6)
   C (  2)  1.519798
   O (  3)  2.399482  1.229408
   N (  4)  2.423394  1.324364  2.234974
   H (  5)  1.090391  2.136609  2.844037  2.992224
   H (  6)  1.086304  2.125833  3.235894  2.481190  1.761573
   H (  7)  3.352061  2.014879  2.470248  1.007771  3.889765  3.477816
   H (  8)  2.551960  2.020080  3.127990  1.005851  3.054175  2.196848
   H (  9)  1.100004  2.188776  2.680182  3.262630  1.796240  1.782398
             H (  7)   H (  8)
   H (  8)  1.756699
   H (  9)  4.104406  3.492108
 
 A cutoff of  1.0D-14 yielded   3054 shell pairs
 There are     19544 function pairs (     24702 Cartesian)
 Smallest overlap matrix eigenvalue = 1.16E-05

 Scale SEOQF with 1.000000e-01/1.000000e-01/1.000000e-01

 Standard Electronic Orientation quadrupole field applied
 Nucleus-field energy     =     0.0000000114 hartrees
 Guess from superposition of atomic densities
 Warning:  Energy on first SCF cycle will be non-variational
 SAD guess density has 31.604610 electrons

 -----------------------------------------------------------------------
  General SCF calculation program by
  Eric Jon Sundstrom, Paul Horn, Yuezhi Mao, Dmitri Zuev, Alec White,
  David Stuck, Shaama M.S., Shane Yost, Joonho Lee, David Small,
  Daniel Levine, Susi Lehtola, Hugh Burton, Evgeny Epifanovsky
 -----------------------------------------------------------------------
 Exchange:     0.1670 Hartree-Fock + 1.0000 wB97X-V + LR-HF
 Correlation:  1.0000 wB97X-V
 Using Euler-Maclaurin-Lebedev (99,590) quadrature formula
 Nonlocal Correlation:  VV10 with C = 0.0100 and b = 6.00 and scale = 1.00000
 Grid used for NLC:  SG-1 standard quadrature
Energy prior to optimization (guess energy) = -208.703656720649
Begin Timing: Total SCF Calculation
begin iterations for algorithm: DIIS         
the SCF tolerance is set to 1.00e-08
    1    -208.7036567206      1.26e-02     00000 
    2    -208.3212845686      1.55e-02     00000 
    3    -209.2228659139      2.48e-03     00000 
    4    -209.2426357223      8.22e-04     00000 
    5    -209.2453059921      1.25e-04     00000 
    6    -209.2454042247      4.90e-05     00000 
    7    -209.2454214048      1.10e-05     00000 
    8    -209.2454225611      2.11e-06     00000 
    9    -209.2454226526      7.64e-07     00000 
   10    -209.2454226582      3.20e-07     00000 
   11    -209.2454226592      7.21e-08     00000 
   12    -209.2454226593      1.71e-08     00000 
   13    -209.2454226593      4.38e-09     00000 Convergence criterion met
Timing for Total SCF: 377.00s (wall), 743.80s (cpu)

************** Final PCM Free Energy Summary **************
 G_electrostatic  =      -0.01228245 hartree =      -7.70735585 kcal/mol
 G_cavitation     =       0.00000000 hartree =       0.00000000 kcal/mol
 G_dispersion     =       0.00000000 hartree =       0.00000000 kcal/mol
 G_repulsion      =       0.00000000 hartree =       0.00000000 kcal/mol
 --------------------------------------------------
 Non-electrostatic Free Energy =       0.00000000 hartree =       0.00000000 kcal/mol
 Total                         =      -0.01228245 hartree =      -7.70735585 kcal/mol
 --------------------------------------------------
 SCF Energy (H0 + V/2)                       =    -209.24542266 
 Solute Internal Energy (H0)                 =    -209.23314021 
 Total Free Energy (H0 + V/2 + non-elec)     =    -209.24542266 hartree
                                             = -131303.48448209 kcal/mol
***********************************************************

E_pcm = -0.0122824534
Multipole orders to be included
        2
        3
computing dipole RHS
computing quadrupole RHS
total number of RHS in solve_reponses: 8
RHS batch sizes
        8
Beginning Block Conjugate Gradient Iterations. Batch Number: 0
computing hessian-vector products by finite difference
              1      6.33e-01     00000 Conjugate Gradient Iteration
computing hessian-vector products by finite difference
              2      2.18e-01     00000 Conjugate Gradient Iteration
computing hessian-vector products by finite difference
              3      5.82e-02     00000 Conjugate Gradient Iteration
computing hessian-vector products by finite difference
              4      1.48e-02     00000 Conjugate Gradient Iteration
computing hessian-vector products by finite difference
              5      2.22e-03     00000 Conjugate Gradient Iteration
computing hessian-vector products by finite difference
              6      4.96e-04     00000 Conjugate Gradient Iteration
computing hessian-vector products by finite difference
              7      7.34e-05     00000 Conjugate Gradient Iteration
computing hessian-vector products by finite difference
              8      8.60e-06     00000 Conjugate Gradient Iteration
computing hessian-vector products by finite difference
              9      1.17e-06     00000 Conjugate Gradient Iteration
computing hessian-vector products by finite difference
             10      1.62e-07     00000 Conjugate Gradient Iteration
computing hessian-vector products by finite difference
             11      2.53e-08     00000 Conjugate Gradient Iteration
computing hessian-vector products by finite difference
             12      3.75e-09     00000 CG Converged
batch 0 complete
Done Calculating Responses
TESTING ORTHOGONALIZATION OF MULTIPOLE BASIS
Multipole virts passed orthogonality test
Virts Per Order
        48
        80
 
 --------------------------------------------------------------
 
                    Orbital Energies (a.u.)
 --------------------------------------------------------------
 
 Alpha MOs
 -- Occupied --
-19.1773 -14.4348 -10.3771 -10.2733  -1.1713  -1.0481  -0.8712  -0.7149
 -0.6642  -0.5891  -0.5690  -0.5181  -0.5092  -0.4833  -0.3832  -0.3669
 -- Virtual --
  0.0594   0.0912   0.0933   0.0972   0.1272   0.1282   0.1340   0.1435
  0.1750   0.1774   0.1876   0.2125   0.2232   0.2416   0.2486   0.2602
  0.2642   0.2679   0.2921   0.3096   0.3282   0.3327   0.3409   0.3483
  0.3552   0.3618   0.3675   0.3706   0.3904   0.3967   0.4160   0.4193
  0.4349   0.4528   0.4588   0.4680   0.4779   0.4930   0.4964   0.5003
  0.5263   0.5272   0.5477   0.5693   0.5790   0.5943   0.6262   0.6274
  0.6341   0.6542   0.6757   0.6880   0.7085   0.7224   0.7305   0.7659
  0.7696   0.7792   0.7920   0.8070   0.8141   0.8341   0.8434   0.8681
  0.8999   0.9561   0.9731   0.9881   1.0128   1.0289   1.0519   1.0922
  1.1097   1.1774   1.2242   1.2365   1.2830   1.3151   1.3384   1.3769
  1.4756   1.4943   1.5068   1.6215   1.6712   1.7252   1.7314   1.8070
  1.8467   1.8612   1.8955   1.9181   1.9212   1.9566   1.9713   2.0314
  2.0547   2.0870   2.1357   2.1601   2.1885   2.2245   2.3094   2.3654
  2.4057   2.4274   2.4489   2.4709   2.5402   2.5580   2.5963   2.6181
  2.6702   2.6876   2.7784   2.7906   2.8390   2.8774   2.9482   2.9887
  3.0524   3.1013   3.1467   3.1499   3.1986   3.2254   3.2694   3.2863
  3.3126   3.3410   3.3780   3.4016   3.4597   3.4950   3.5522   3.5691
  3.6040   3.6550   3.6680   3.7905   3.8722   3.9527   4.0060   4.0505
  4.0707   4.1898   4.2999   4.4232   4.4673   4.6057   4.6150   4.6683
  4.7814   4.8877   4.8923   4.9367   5.1371   5.1783   5.2595   5.3440
  5.3773   5.4000   5.4233   5.4857   5.5299   5.7727   5.9173   6.1495
  6.2534   6.5271   6.6451   6.7438   6.8339   6.9776   7.2244   7.3255
 22.5724  23.5770  32.4050  44.3119
 --------------------------------------------------------------
 
          Ground-State Mulliken Net Atomic Charges

     Atom                 Charge (a.u.)
  ----------------------------------------
      1 C                    -0.594967
      2 C                     0.411343
      3 O                    -0.583190
      4 N                    -0.256740
      5 H                     0.191357
      6 H                     0.224983
      7 H                     0.205692
      8 H                     0.191136
      9 H                     0.210386
  ----------------------------------------
  Sum of atomic charges =     0.000000

 -----------------------------------------------------------------
                    Cartesian Multipole Moments
 -----------------------------------------------------------------
    Charge (ESU x 10^10)
                 0.0000
    Dipole Moment (Debye)
         X       4.6621      Y      -0.4968      Z       2.2161
       Tot       5.1859
    Quadrupole Moments (Debye-Ang)
        XX     -31.3638     XY      12.6064     YY     -27.6860
        XZ      -3.6448     YZ       5.4777     ZZ     -20.8136
    Octopole Moments (Debye-Ang^2)
       XXX      83.1024    XXY     -80.4494    XYY      53.3110
       YYY    -195.3237    XXZ      -6.6758    XYZ      -9.2933
       YYZ       0.9173    XZZ      20.4402    YZZ     -51.3474
       ZZZ     -39.6308
    Hexadecapole Moments (Debye-Ang^3)
      XXXX    -278.2024   XXXY     214.2807   XXYY    -251.1469
      XYYY     237.0696   YYYY    -980.7975   XXXZ      31.9010
      XXYZ     -15.6184   XYYZ     -12.3792   YYYZ     -50.7631
      XXZZ     -71.4085   XYZZ      51.6991   YYZZ    -166.1111
      XZZZ      34.0906   YZZZ     -89.1263   ZZZZ    -212.7628
 -----------------------------------------------------------------
Archival summary:
1\1\nid00506\SP\ProcedureUnspecified\BasisUnspecified\1125\meili\SunSep2610:11:442021SunSep2610:11:442021\0\\#,ProcedureUnspecified,BasisUnspecified,\\0,1\C\O,1,1.22941\N,1,1.32436,2,122.085\H,3,1.00585,1,119.577,2,174.496,0\H,3,1.00777,1,118.904,2,-3.24333,0\C,1,1.5198,2,121.208,3,179.748,0\H,6,1.0863,1,108.164,2,162.719,0\H,6,1.09039,1,108.768,2,-80.1549,0\H,6,1.1,1,112.341,2,42.0907,0\\\@

 Total job time:  6655.77s(wall), 13149.48s(cpu) 
 Sun Sep 26 10:11:48 2021

        *************************************************************
        *                                                           *
        *  Thank you very much for using Q-Chem.  Have a nice day.  *
        *                                                           *
        *************************************************************


Done Job For Fragment 0
calling putenv with: QCSCRATCH=/global/cscratch1/sd/meili 
calling putenv with: QCLOCALSCR=/tmp 
calling putenv with: QCTHREADS=32 
Creating input file /tmp/qchem22673/Frg2.input
using default PutDataFrgm: nothing
calling putenv with: QCSCRATCH=/tmp/qchem22673/ 
calling putenv with: QCLOCALSCR=/tmp/qchem22673/ 
Spawning Job For Fragment 1
                  Welcome to Q-Chem
     A Quantum Leap Into The Future Of Chemistry


 Q-Chem 5.2, Q-Chem, Inc., Pleasanton, CA (2019)

 License issued to: National Energy Research Scientific Computing Center

 Yihan Shao,  Zhengting Gan,  E. Epifanovsky,  A. T. B. Gilbert,  M. Wormit,  
 J. Kussmann,  A. W. Lange,  A. Behn,  Jia Deng,  Xintian Feng,  D. Ghosh,  
 M. Goldey,  P. R. Horn,  L. D. Jacobson,  I. Kaliman,  T. Kus,  A. Landau,  
 Jie Liu,  E. I. Proynov,  R. M. Richard,  R. P. Steele,  E. J. Sundstrom,  
 H. L. Woodcock III,  P. M. Zimmerman,  D. Zuev,  B. Albrecht,  E. Alguire,  
 S. A. Baeppler,  D. Barton,  Z. Benda,  Y. A. Bernard,  E. J. Berquist,  
 K. B. Bravaya,  H. Burton,  D. Casanova,  Chun-Min Chang,  Yunqing Chen,  
 A. Chien,  K. D. Closser,  M. P. Coons,  S. Coriani,  S. Dasgupta,  
 A. L. Dempwolff,  M. Diedenhofen,  Hainam Do,  R. G. Edgar,  Po-Tung Fang,  
 S. Faraji,  S. Fatehi,  Qingguo Feng,  K. D. Fenk,  J. Fosso-Tande,  
 J. Gayvert,  Qinghui Ge,  A. Ghysels,  G. Gidofalvi,  J. Gomes,  
 J. Gonthier,  A. Gunina,  D. Hait,  M. W. D. Hanson-Heine,  
 P. H. P. Harbach,  A. W. Hauser,  M. F. Herbst,  J. E. Herr,  
 E. G. Hohenstein,  Z. C. Holden,  Kerwin Hui,  B. C. Huynh,  T.-C. Jagau,  
 Hyunjun Ji,  B. Kaduk,  K. Khistyaev,  Jaehoon Kim,  P. Klunzinger,  K. Koh,  
 D. Kosenkov,  L. Koulias,  T. Kowalczyk,  C. M. Krauter,  A. Kunitsa,  
 Ka Un Lao,  A. Laurent,  K. V. Lawler,  Joonho Lee,  D. Lefrancois,  
 S. Lehtola,  D. S. Levine,  Yi-Pei Li,  You-Sheng Lin,  Fenglai Liu,  
 E. Livshits,  A. Luenser,  P. Manohar,  E. Mansoor,  S. F. Manzer,  
 Shan-Ping Mao,  Yuezhi Mao,  N. Mardirossian,  A. V. Marenich,  
 T. Markovich,  L. A. Martinez-Martinez,  S. A. Maurer,  N. J. Mayhall,  
 S. C. McKenzie,  J.-M. Mewes,  P. Morgante,  A. F. Morrison,  
 J. W. Mullinax,  K. Nanda,  T. S. Nguyen-Beck,  R. Olivares-Amaya,  
 J. A. Parkhill,  Zheng Pei,  T. M. Perrine,  F. Plasser,  P. Pokhilko,  
 S. Prager,  A. Prociuk,  E. Ramos,  D. R. Rehn,  F. Rob,  M. Scheurer,  
 M. Schneider,  N. Sergueev,  S. M. Sharada,  S. Sharma,  D. W. Small,  
 T. Stauch,  T. Stein,  Yu-Chuan Su,  A. J. W. Thom,  A. Tkatchenko,  
 T. Tsuchimochi,  N. M. Tubman,  L. Vogt,  M. L. Vidal,  O. Vydrov,  
 M. A. Watson,  J. Wenzel,  M. de Wergifosse,  T. A. Wesolowski,  A. White,  
 J. Witte,  A. Yamada,  Jun Yang,  K. Yao,  S. Yeganeh,  S. R. Yost,  
 Zhi-Qiang You,  A. Zech,  Igor Ying Zhang,  Xing Zhang,  Yan Zhao,  
 Ying Zhu,  B. R. Brooks,  G. K. L. Chan,  C. J. Cramer,  M. S. Gordon,  
 W. J. Hehre,  A. Klamt,  M. W. Schmidt,  C. D. Sherrill,  D. G. Truhlar,  
 A. Aspuru-Guzik,  R. Baer,  A. T. Bell,  N. A. Besley,  Jeng-Da Chai,  
 A. E. DePrince, III,  R. A. DiStasio Jr.,  A. Dreuw,  B. D. Dunietz,  
 T. R. Furlani,  Chao-Ping Hsu,  Yousung Jung,  Jing Kong,  D. S. Lambrecht,  
 WanZhen Liang,  C. Ochsenfeld,  V. A. Rassolov,  L. V. Slipchenko,  
 J. E. Subotnik,  T. Van Voorhis,  J. M. Herbert,  A. I. Krylov,  
 P. M. W. Gill,  M. Head-Gordon

 Contributors to earlier versions of Q-Chem not listed above: 
 R. D. Adamson,  B. Austin,  J. Baker,  G. J. O. Beran,  K. Brandhorst,  
 S. T. Brown,  E. F. C. Byrd,  A. K. Chakraborty,  C.-L. Cheng,  
 Siu Hung Chien,  D. M. Chipman,  D. L. Crittenden,  H. Dachsel,  
 R. J. Doerksen,  A. D. Dutoi,  L. Fusti-Molnar,  W. A. Goddard III,  
 A. Golubeva-Zadorozhnaya,  S. R. Gwaltney,  G. Hawkins,  A. Heyden,  
 S. Hirata,  G. Kedziora,  F. J. Keil,  C. Kelley,  Jihan Kim,  R. A. King,  
 R. Z. Khaliullin,  P. P. Korambath,  W. Kurlancheek,  A. M. Lee,  M. S. Lee,  
 S. V. Levchenko,  Ching Yeh Lin,  D. Liotard,  R. C. Lochan,  I. Lotan,  
 P. E. Maslen,  N. Nair,  D. P. O'Neill,  D. Neuhauser,  E. Neuscamman,  
 C. M. Oana,  R. Olson,  B. Peters,  R. Peverati,  P. A. Pieniazek,  
 Y. M. Rhee,  J. Ritchie,  M. A. Rohrdanz,  E. Rosta,  N. J. Russ,  
 H. F. Schaefer III,  N. E. Schultz,  N. Shenvi,  A. C. Simmonett,  A. Sodt,  
 D. Stuck,  K. S. Thanthiriwatte,  V. Vanovschi,  Tao Wang,  A. Warshel,  
 C. F. Williams,  Q. Wu,  X. Xu,  W. Zhang

 Please cite Q-Chem as follows:
 Y. Shao et al., Mol. Phys. 113, 184-215 (2015)
 DOI: 10.1080/00268976.2014.952696

 Q-Chem 5.2.0 for Intel X86 EM64T Linux

 Parts of Q-Chem use Armadillo 8.300.2 (Tropical Shenanigans).
 http://arma.sourceforge.net/

 Q-Chem begins on Sun Sep 26 10:11:53 2021  

Host: cori01
0

     Scratch files written to /tmp/qchem22673//Frg2//
 May1019 |scratch|qcdevops|jenkins|workspace|build_RNUM -1
Processing $rem in /global/common/cori/software/qchem/5.2/config/preferences:
	 MEM_TOTAL  96000 
NAlpha2: 58
NElect   58
Mult     1
Symmetry turned off for PCM/SM12/SMD calculation

Checking the input file for inconsistencies... 	...done.

--------------------------------------------------------------
User input:
--------------------------------------------------------------
$molecule
0 1
 6	0.7232510426	-3.1829516120	2.0196047311
 6	-0.7857489574	-0.8859516120	-0.6223952689
 6	-0.6657489574	-1.7669516120	0.4596047311
 6	0.3542510426	-0.4929516120	-1.3233952689
 6	0.5872510426	-2.2549516120	0.8416047311
 6	1.6062510426	-0.9709516120	-0.9463952689
 6	1.7182510426	-1.8479516120	0.1296047311
 8	0.2542510426	0.3610483880	-2.3833952689
 1	-1.7547489574	-0.5079516120	-0.9103952689
 1	-1.5507489574	-2.0659516120	1.0066047311
 1	-0.6607489574	0.6120483880	-2.5523952689
 1	2.4842510426	-0.6459516120	-1.4773952689
 1	1.6102510426	-3.8019516120	1.8956047311
 1	-0.1437489574	-3.8459516120	2.0376047311
 1	2.6932510426	-2.2139516120	0.4156047311
 1	0.7865910426	-2.6539116120	2.9819497311
$end
$rem
EDA2		1
METHOD		WB97X-V
BASIS		DEF2-TZVPD
XC_GRID		000099000590
NL_GRID		1
UNRESTRICTED		FALSE
MAX_SCF_CYCLES		200
SYMMETRY		FALSE
SYM_IGNORE		TRUE
BASIS_LIN_DEP_THRESH		6
THRESH		14
SCF_CONVERGENCE		8
SCF_PRINT_FRGM		TRUE
SOLVENT_METHOD		PCM
!required keywords
JOBTYPE		SP
SYM_IGNORE		TRUE
SUBSYSTEM		TRUE
GEN_SCFMAN		TRUE
CHILD_INSTRUCTION		2
SYM_IGNORE		TRUE
SCFMI		0
RI_K 0		
PARI_K 0		
MIN_PARI_K 0		
IARI_K 0		
OCC_RI_K 0		
PURECART		1111
MEM_STATIC		2000
MEM_TOTAL		96000
GUI		0
CHILD_MP		1
CHILD_MP_ORDERS		232
FRZ_RELAX		0
FRZ_RELAX_METHOD		0
EDA_CLS_ELEC		1
EDA_CLS_DISP		0
FRZ_ORTHO_DECOMP		1
EDA2		FALSE
FRGM_METHOD		FALSE
CIS_N_ROOTS  0
LOCAL_CIS    0
CIS_RLX_DNS  1
$end
$pcm
THEORY                  CPCM
METHOD                  SWIG
SOLVER                  INVERSION
RADII                   UFF
HPOINTS                 302
HEAVYPOINTS             302
PRINTLEVEL              0
$end
$solvent
DIELECTRIC              78.390000 ! water
$end
--------------------------------------------------------------
 ----------------------------------------------------------------
             Standard Nuclear Orientation (Angstroms)
    I     Atom           X                Y                Z
 ----------------------------------------------------------------
    1      C       0.7232510426    -3.1829516120     2.0196047311
    2      C      -0.7857489574    -0.8859516120    -0.6223952689
    3      C      -0.6657489574    -1.7669516120     0.4596047311
    4      C       0.3542510426    -0.4929516120    -1.3233952689
    5      C       0.5872510426    -2.2549516120     0.8416047311
    6      C       1.6062510426    -0.9709516120    -0.9463952689
    7      C       1.7182510426    -1.8479516120     0.1296047311
    8      O       0.2542510426     0.3610483880    -2.3833952689
    9      H      -1.7547489574    -0.5079516120    -0.9103952689
   10      H      -1.5507489574    -2.0659516120     1.0066047311
   11      H      -0.6607489574     0.6120483880    -2.5523952689
   12      H       2.4842510426    -0.6459516120    -1.4773952689
   13      H       1.6102510426    -3.8019516120     1.8956047311
   14      H      -0.1437489574    -3.8459516120     2.0376047311
   15      H       2.6932510426    -2.2139516120     0.4156047311
   16      H       0.7865910426    -2.6539116120     2.9819497311
 ----------------------------------------------------------------
 Nuclear Repulsion Energy =         342.71250344 hartrees
 There are       29 alpha and       29 beta electrons
 Requested basis set is def2-TZVPD
 There are 145 shells and 371 basis functions

 Total QAlloc Memory Limit  96000 MB
 Mega-Array Size      1956 MB
 MEM_STATIC part      2000 MB
 Discretize the solute cavity surface with Lebedev spheres
	Using 302 Lebedev grid points for each H atom
	Using 302 Lebedev grid points for other atoms
	Atomic van der Waals radii will be scaled by 1.20
 Remove points where switching function is < 1.0e-08
 Keep 1875 surface tesserae and discard 2957 interior tesserae
 Molecular Surface Area = 190.226 Angst**2
 A cutoff of  1.0D-14 yielded  10043 shell pairs
 There are     67093 function pairs (     85795 Cartesian)
 Smallest overlap matrix eigenvalue = 5.64E-07
 Linear dependence detected in AO basis
 Tighter screening thresholds may be required for diffuse basis sets
 Use S2THRESH > 14 and THRESH = 14 in case of SCF convergence issues
 Number of orthogonalized atomic orbitals = 370
 Maximum deviation from orthogonality = 1.966E-10

 Scale SEOQF with 1.000000e-01/1.000000e-01/1.000000e-01

 Standard Electronic Orientation quadrupole field applied
 Nucleus-field energy     =     0.0000000030 hartrees
 Guess from superposition of atomic densities
 Warning:  Energy on first SCF cycle will be non-variational
 SAD guess density has 57.738434 electrons

 -----------------------------------------------------------------------
  General SCF calculation program by
  Eric Jon Sundstrom, Paul Horn, Yuezhi Mao, Dmitri Zuev, Alec White,
  David Stuck, Shaama M.S., Shane Yost, Joonho Lee, David Small,
  Daniel Levine, Susi Lehtola, Hugh Burton, Evgeny Epifanovsky
 -----------------------------------------------------------------------
 Exchange:     0.1670 Hartree-Fock + 1.0000 wB97X-V + LR-HF
 Correlation:  1.0000 wB97X-V
 Using Euler-Maclaurin-Lebedev (99,590) quadrature formula
 Nonlocal Correlation:  VV10 with C = 0.0100 and b = 6.00 and scale = 1.00000
 Grid used for NLC:  SG-1 standard quadrature
Energy prior to optimization (guess energy) = -346.497500737695
Begin Timing: Total SCF Calculation
begin iterations for algorithm: DIIS         
the SCF tolerance is set to 1.00e-08
    1    -346.4975007377      5.17e-03     00000 
    2    -346.4303628862      5.61e-03     00000 
    3    -346.8126023475      5.35e-04     00000 
    4    -346.8167340133      1.81e-04     00000 
    5    -346.8173432845      2.48e-05     00000 
    6    -346.8173628190      1.23e-05     00000 
    7    -346.8173659868      3.91e-06     00000 
    8    -346.8173664063      1.26e-06     00000 
    9    -346.8173664632      5.68e-07     00000 
   10    -346.8173664735      1.38e-07     00000 
   11    -346.8173664753      6.25e-08     00000 
   12    -346.8173664755      3.21e-08     00000 
   13    -346.8173664756      6.88e-09     00000 Convergence criterion met
Timing for Total SCF: 2139.00s (wall), 4246.65s (cpu)

************** Final PCM Free Energy Summary **************
 G_electrostatic  =      -0.00560653 hartree =      -3.51814997 kcal/mol
 G_cavitation     =       0.00000000 hartree =       0.00000000 kcal/mol
 G_dispersion     =       0.00000000 hartree =       0.00000000 kcal/mol
 G_repulsion      =       0.00000000 hartree =       0.00000000 kcal/mol
 --------------------------------------------------
 Non-electrostatic Free Energy =       0.00000000 hartree =       0.00000000 kcal/mol
 Total                         =      -0.00560653 hartree =      -3.51814997 kcal/mol
 --------------------------------------------------
 SCF Energy (H0 + V/2)                       =    -346.81736648 
 Solute Internal Energy (H0)                 =    -346.81175995 
 Total Free Energy (H0 + V/2 + non-elec)     =    -346.81736648 hartree
                                             = -217631.18217071 kcal/mol
***********************************************************

E_pcm = -0.0056065289
Multipole orders to be included
        2
        3
computing dipole RHS
computing quadrupole RHS
total number of RHS in solve_reponses: 8
RHS batch sizes
        8
Beginning Block Conjugate Gradient Iterations. Batch Number: 0
computing hessian-vector products by finite difference
              1      5.76e-01     00000 Conjugate Gradient Iteration
computing hessian-vector products by finite difference
              2      1.97e-01     00000 Conjugate Gradient Iteration
computing hessian-vector products by finite difference
              3      5.08e-02     00000 Conjugate Gradient Iteration
computing hessian-vector products by finite difference
              4      1.46e-02     00000 Conjugate Gradient Iteration
computing hessian-vector products by finite difference
              5      4.56e-03     00000 Conjugate Gradient Iteration
computing hessian-vector products by finite difference
              6      1.80e-03     00000 Conjugate Gradient Iteration
computing hessian-vector products by finite difference
              7      4.51e-04     00000 Conjugate Gradient Iteration
computing hessian-vector products by finite difference
              8      8.61e-05     00000 Conjugate Gradient Iteration
computing hessian-vector products by finite difference
              9      1.53e-05     00000 Conjugate Gradient Iteration
computing hessian-vector products by finite difference
             10      1.90e-06     00000 Conjugate Gradient Iteration
computing hessian-vector products by finite difference
             11      3.18e-07     00000 Conjugate Gradient Iteration
computing hessian-vector products by finite difference
             12      6.49e-08     00000 Conjugate Gradient Iteration
computing hessian-vector products by finite difference
             13      1.01e-08     00000 Conjugate Gradient Iteration
computing hessian-vector products by finite difference
             14      3.18e-09     00000 CG Converged
batch 0 complete
Done Calculating Responses
TESTING ORTHOGONALIZATION OF MULTIPOLE BASIS
Multipole virts passed orthogonality test
Virts Per Order
           87
          145
 
 --------------------------------------------------------------
 
                    Orbital Energies (a.u.)
 --------------------------------------------------------------
 
 Alpha MOs
 -- Occupied --
-19.2456 -10.3363 -10.2769 -10.2762 -10.2747 -10.2739 -10.2712 -10.2613
 -1.1949  -0.9946  -0.9020  -0.8839  -0.8105  -0.7492  -0.7144  -0.6660
 -0.6028  -0.5812  -0.5510  -0.5409  -0.5347  -0.5215  -0.5120  -0.4773
 -0.4564  -0.4428  -0.4419  -0.3527  -0.3131
 -- Virtual --
  0.0578   0.0580   0.0682   0.0774   0.0831   0.0942   0.1087   0.1099
  0.1139   0.1311   0.1443   0.1515   0.1542   0.1706   0.1739   0.1920
  0.1986   0.2050   0.2159   0.2232   0.2351   0.2396   0.2504   0.2510
  0.2625   0.2659   0.2715   0.2733   0.2812   0.2948   0.2950   0.3021
  0.3039   0.3089   0.3098   0.3241   0.3329   0.3395   0.3425   0.3469
  0.3541   0.3554   0.3606   0.3710   0.3758   0.3784   0.3816   0.3907
  0.3929   0.3946   0.3985   0.4086   0.4117   0.4182   0.4232   0.4312
  0.4371   0.4499   0.4542   0.4589   0.4704   0.4719   0.4763   0.4825
  0.4851   0.4923   0.4964   0.5016   0.5110   0.5136   0.5231   0.5382
  0.5393   0.5451   0.5478   0.5566   0.5615   0.5677   0.5846   0.5943
  0.6021   0.6043   0.6204   0.6279   0.6420   0.6548   0.6646   0.6711
  0.6788   0.6825   0.6874   0.6906   0.6954   0.6979   0.7175   0.7275
  0.7302   0.7400   0.7455   0.7498   0.7566   0.7747   0.7792   0.7845
  0.7880   0.7905   0.7947   0.7979   0.8065   0.8134   0.8270   0.8349
  0.8396   0.8463   0.8518   0.8553   0.8647   0.8735   0.8815   0.8905
  0.9010   0.9108   0.9254   0.9477   0.9654   0.9721   0.9880   1.0121
  1.0195   1.0356   1.0391   1.0463   1.0549   1.0723   1.0737   1.0829
  1.0990   1.1181   1.1374   1.1759   1.1932   1.2378   1.2610   1.2908
  1.3020   1.3090   1.3296   1.3525   1.3612   1.3854   1.3899   1.4302
  1.4557   1.4655   1.4745   1.4796   1.5269   1.5620   1.6017   1.6173
  1.6266   1.6343   1.6824   1.6861   1.7009   1.7205   1.7837   1.8010
  1.8160   1.8258   1.8308   1.8583   1.8681   1.8818   1.9189   1.9241
  1.9399   1.9504   1.9680   1.9855   1.9982   2.0281   2.0373   2.0504
  2.0556   2.0748   2.0911   2.0984   2.1151   2.1524   2.1928   2.2043
  2.2173   2.2350   2.2683   2.2783   2.2985   2.3170   2.3465   2.3655
  2.3965   2.4057   2.4290   2.4601   2.4921   2.4957   2.5185   2.5524
  2.5833   2.5897   2.6219   2.6411   2.6486   2.6636   2.6857   2.7413
  2.7483   2.7594   2.7718   2.7938   2.8191   2.8318   2.8629   2.8755
  2.9032   2.9147   2.9353   2.9475   2.9610   2.9703   2.9737   3.0037
  3.0141   3.0391   3.0682   3.0815   3.0978   3.1257   3.1488   3.1667
  3.1820   3.2024   3.2137   3.2267   3.2436   3.2636   3.2746   3.2911
  3.3326   3.3409   3.3835   3.3860   3.3908   3.4113   3.4493   3.4568
  3.4624   3.4691   3.4932   3.5101   3.5182   3.5208   3.5330   3.5409
  3.5574   3.5697   3.5783   3.5928   3.5964   3.6211   3.6448   3.6600
  3.6812   3.7000   3.7350   3.7561   3.8054   3.8187   3.8390   3.8860
  3.9318   3.9573   3.9808   3.9860   4.0359   4.0835   4.1277   4.1483
  4.2472   4.2635   4.2869   4.3043   4.3114   4.3248   4.3330   4.3555
  4.3718   4.3801   4.4307   4.4452   4.4907   4.5364   4.5928   4.6173
  4.7248   4.7338   4.7808   4.8063   4.8772   4.9155   5.0235   5.0591
  5.0880   5.1256   5.1531   5.2999   5.3273   5.3901   5.4448   5.5375
  5.6128   5.6395   5.7054   5.7637   5.9409   6.2079   6.4753   6.5954
  6.6260   6.8706   7.0082   7.3019   7.4553  22.6592  22.6764  22.9304
 22.9809  23.0228  23.1718  23.4943  44.4149
 --------------------------------------------------------------
 
          Ground-State Mulliken Net Atomic Charges

     Atom                 Charge (a.u.)
  ----------------------------------------
      1 C                    -1.043074
      2 C                    -0.412987
      3 C                    -0.629086
      4 C                     0.821085
      5 C                     0.606878
      6 C                    -0.753422
      7 C                    -0.416556
      8 O                    -0.484162
      9 H                     0.275230
     10 H                     0.323318
     11 H                     0.293586
     12 H                     0.337269
     13 H                     0.280404
     14 H                     0.274087
     15 H                     0.315769
     16 H                     0.211662
  ----------------------------------------
  Sum of atomic charges =     0.000000

 -----------------------------------------------------------------
                    Cartesian Multipole Moments
 -----------------------------------------------------------------
    Charge (ESU x 10^10)
                 0.0000
    Dipole Moment (Debye)
         X      -1.5757      Y      -0.2640      Z       0.6752
       Tot       1.7345
    Quadrupole Moments (Debye-Ang)
        XX     -42.1843     XY      -2.1652     YY     -47.8186
        XZ       4.0892     YZ      -4.0805     ZZ     -48.3866
    Octopole Moments (Debye-Ang^2)
       XXX     -61.8478    XXY      61.5708    XYY     -21.4757
       YYY     207.2822    XXZ       3.5190    XYZ       2.5768
       YYZ      17.6330    XZZ     -34.2455    YZZ      70.3884
       ZZZ      28.2811
    Hexadecapole Moments (Debye-Ang^3)
      XXXX    -348.3755   XXXY     111.3531   XXYY    -216.2101
      XYYY     122.3821   YYYY   -1011.9668   XXXZ      -7.6261
      XXYZ      52.0555   XYYZ       5.0750   YYYZ     158.2616
      XXZZ    -156.1761   XYZZ      35.2219   YYZZ    -269.0496
      XZZZ      29.5326   YZZZ     173.9999   ZZZZ    -618.8639
 -----------------------------------------------------------------
Archival summary:
1\1\nid00506\SP\ProcedureUnspecified\BasisUnspecified\178\meili\SunSep2621:27:362021SunSep2621:27:362021\0\\#,ProcedureUnspecified,BasisUnspecified,\\0,1\C\O,1,1.36489\H,2,0.963736,1,111.636\C,1,1.39216,2,119.408,3,179.305,0\H,4,1.07632,1,119.758,2,1.44042,0\C,4,1.39264,1,119.853,2,-179.682,0\H,6,1.07999,4,119.382,1,-179.992,0\C,1,1.39479,2,120.446,3,-0.657338,0\H,8,1.07925,1,120.068,2,-0.565877,0\C,6,1.39705,4,120.805,1,-0.136073,0\C,10,1.39788,6,118.992,4,-0.0785491,0\H,11,1.08251,10,119.888,6,-179.463,0\C,10,1.50578,6,120.34,4,-178.835,0\H,13,1.08872,10,109.565,6,-27.5295,0\H,13,1.0916,10,108.39,6,-144.772,0\H,13,1.1,10,113.155,6,94.3735,0\\\@

 Total job time:  40546.22s(wall), 80481.27s(cpu) 
 Sun Sep 26 21:27:40 2021

        *************************************************************
        *                                                           *
        *  Thank you very much for using Q-Chem.  Have a nice day.  *
        *                                                           *
        *************************************************************


Done Job For Fragment 1
calling putenv with: QCSCRATCH=/global/cscratch1/sd/meili 
calling putenv with: QCLOCALSCR=/tmp 
calling putenv with: QCTHREADS=32 
Doing General SCFMI
 Exchange:     0.1670 Hartree-Fock + 1.0000 wB97X-V + LR-HF
 Correlation:  1.0000 wB97X-V
 Using Euler-Maclaurin-Lebedev (99,590) quadrature formula
 Nonlocal Correlation:  VV10 with C = 0.0100 and b = 6.00 and scale = 1.00000
 Grid used for NLC:  SG-1 standard quadrature
performing fock build before subrot guess so that all methods have access
Printing subrot_rss_gen Method Specification:
Occupied Subspace Method is 0
Virtual Subspace Method is 0
Energy of the unrelaxed supersystem initial determinant -556.054530851092
performing fock build before subrot guess so that all methods have access
Printing subrot_rss_gen Method Specification:
Occupied Subspace Method is 0
Virtual Subspace Method is 0
Energy of the unrelaxed supersystem initial determinant w/ solvent -556.066532922739
write pseudocanon occs and virts to disk
write pseudocanon orbital energies to disk
Tolerance of ortho_decomp_scf: 1.00e-06
GDM subspace size: 20
Beginning the Orthogonal Decomposition of the Initial Supersystem Wavefunction
    1    -556.0221684329      3.14e-02     ortho_decomp Preconditoned Steepest Descent
    2    -556.0247902095      7.88e-04     ortho_decomp BFGS Step
    3    -556.0247985743      5.31e-05     ortho_decomp BFGS Step
    4    -556.0247985841      1.88e-06     ortho_decomp BFGS Step
    5    -556.0247985841      6.16e-08     ortho_decomp 00000 Convergence criterion met
 Hartree-Fock
 Hartree-Fock
 Hartree-Fock
Doing General SCFMI
 Exchange:     0.1670 Hartree-Fock + 1.0000 wB97X-V + LR-HF
 Correlation:  1.0000 wB97X-V
 Using Euler-Maclaurin-Lebedev (99,590) quadrature formula
 Nonlocal Correlation:  VV10 with C = 0.0100 and b = 6.00 and scale = 1.00000
 Grid used for NLC:  SG-1 standard quadrature
performing fock build at end of subrot_r(subrot) constructor so that all methods have access
<S^2> of initial wavefunction before polarization iterations 0.0000000000
Beginning iterations for the determination of the polarized wavefunction
Energy prior to optimization (guess energy) = -556.066532922739
Begin Timing: Total SCF Calculation
begin iterations for algorithm: DIIS         
the SCF tolerance is set to 1.00e-08
    1    -556.0665329227      5.66e-05     00000 
    2    -556.0667930497      2.98e-05     00000 
    3    -556.0668316352      1.46e-05     00000 
    4    -556.0668442192      5.48e-06     00000 
    5    -556.0668457401      2.62e-06     00000 
    6    -556.0668461986      1.23e-06     00000 
    7    -556.0668462704      4.71e-07     00000 
    8    -556.0668462802      1.69e-07     00000 
    9    -556.0668462813      8.36e-08     00000 
   10    -556.0668462816      2.79e-08     00000 
   11    -556.0668462817      1.06e-08     00000 
   12    -556.0668462817      5.04e-09     00000 Convergence criterion met
write pseudocanon occs and virts to disk
write pseudocanon orbital energies to disk
Timing for Total SCF: 6949.00s (wall), 13820.36s (cpu)
<S^2> of polarized wavefunction after polarization iterations 0.0000000000
relaxing scfmi constraint to allow all rotations in the entire AO span
Doing General SCFMI
 Exchange:     0.1670 Hartree-Fock + 1.0000 wB97X-V + LR-HF
 Correlation:  1.0000 wB97X-V
 Using Euler-Maclaurin-Lebedev (99,590) quadrature formula
 Nonlocal Correlation:  VV10 with C = 0.0100 and b = 6.00 and scale = 1.00000
 Grid used for NLC:  SG-1 standard quadrature
performing fock build at end of subrot_r(subrot) constructor so that all methods have access
<S^2> of polarized wavefunction before ct-allowed iterations 0.0000000000
Beginning iterations for the determination of the CT-Allowed wavefunction
Energy prior to optimization (guess energy) = -556.066846281685
Begin Timing: Total SCF Calculation
begin iterations for algorithm: DIIS         
the SCF tolerance is set to 1.00e-08
    1    -556.0668462817      7.48e-05     00000 
    2    -556.0677002798      7.77e-06     00000 
    3    -556.0677289731      1.61e-06     00000 
    4    -556.0677299970      1.42e-06     00000 
    5    -556.0677302225      1.76e-07     00000 
    6    -556.0677302326      1.17e-07     00000 
    7    -556.0677302345      2.53e-08     00000 
    8    -556.0677302347      9.01e-09     00000 Convergence criterion met
write pseudocanon occs and virts to disk
write pseudocanon orbital energies to disk
Timing for Total SCF: 4366.00s (wall), 8583.14s (cpu)
<S^2> of ct_allowed wavefunction after ct-allowed iterations 0.0000000000

================================
        Results of EDA2         
================================
Basic EDA Quantities
--------------------
Fragment Energies (Ha):
1 -209.2454226593
2 -346.8173664756
--------------------
  E_prp (kJ/mol) = 0.0000
  E_sol (kJ/mol) = 15.4563
  E_frz (kJ/mol) = -25.2857
  E_pol (kJ/mol) = -0.8227
  E_vct (kJ/mol) = -2.3208
  E_int (kJ/mol) = -12.9730
--------------------


Initial Wavefunction Decomposition
--------------------
  --------------------
  Orthogonal Fragment Subspace Decomposition:
  --------------------
     E_elec   (ELEC)   (kJ/mol) = -46.7569
     E_pauli  (PAULI)  (kJ/mol) = 41.3602
     E_disp   (DISP)   (kJ/mol) = -19.8890
     --------------------
     Terms summing to E_pauli:
     --------------------
        E_kep_pauli       (kJ/mol) = 52.7773
        E_disp_free_pauli (kJ/mol) = -11.4171
  --------------------
  Classical Frozen Decomposition:
  --------------------
     E_cls_elec  (CLS ELEC)  (kJ/mol) = -26.7617
     E_cls_pauli (CLS PAULI) (kJ/mol) = 1.4760
    [E_mod_pauli (MOD PAULI) (kJ/mol) = 21.3649 (CLS PAULI - DISP from orthogonal decomposition) ]
  --------------------
--------------------

Simplified EDA Summary (kJ/mol)
--------------------
 PREPARATION     0.0000
 SOLVATION       15.4563
 FROZEN          -5.3967      (does not include dispersion)
[PAULI           41.3602]     (if this is negligible, then frozen describes electrostatics)
 DISPERSION      -19.8890
 POLARIZATION    -0.8227
 CHARGE TRANSFER -2.3208
 TOTAL           -12.9730     (PRP + SOL + FRZ + DISP + POL + CT)
--------------------
 
 --------------------------------------------------------------
 
                    Orbital Energies (a.u.)
 --------------------------------------------------------------
 
 Alpha MOs
 -- Occupied --
-19.2470 -19.1766 -14.4310 -10.3754 -10.3358 -10.2768 -10.2760 -10.2746
-10.2731 -10.2723 -10.2711 -10.2613  -1.1964  -1.1700  -1.0455  -0.9943
 -0.9018  -0.8836  -0.8698  -0.8105  -0.7490  -0.7146  -0.7123  -0.6662
 -0.6619  -0.6030  -0.5880  -0.5813  -0.5697  -0.5508  -0.5405  -0.5342
 -0.5240  -0.5149  -0.5125  -0.5079  -0.4809  -0.4776  -0.4561  -0.4432
 -0.4418  -0.3807  -0.3660  -0.3522  -0.3130
 -- Virtual --
  0.0527   0.0573   0.0648   0.0698   0.0765   0.0845   0.0902   0.0948
  0.1017   0.1052   0.1085   0.1199   0.1258   0.1291   0.1381   0.1421
  0.1459   0.1551   0.1568   0.1610   0.1686   0.1785   0.1836   0.1880
  0.1900   0.1984   0.2009   0.2073   0.2164   0.2227   0.2250   0.2312
  0.2367   0.2422   0.2475   0.2528   0.2583   0.2646   0.2650   0.2722
  0.2744   0.2814   0.2857   0.2912   0.2954   0.2972   0.2995   0.3074
  0.3112   0.3183   0.3213   0.3240   0.3287   0.3326   0.3358   0.3407
  0.3416   0.3455   0.3475   0.3530   0.3555   0.3629   0.3635   0.3682
  0.3730   0.3746   0.3799   0.3830   0.3861   0.3907   0.3925   0.3975
  0.4028   0.4052   0.4070   0.4153   0.4188   0.4251   0.4297   0.4335
  0.4361   0.4405   0.4446   0.4457   0.4493   0.4549   0.4584   0.4631
  0.4657   0.4742   0.4767   0.4802   0.4849   0.4876   0.4905   0.4915
  0.4935   0.4975   0.5012   0.5099   0.5122   0.5186   0.5220   0.5260
  0.5320   0.5372   0.5388   0.5421   0.5471   0.5493   0.5583   0.5684
  0.5748   0.5810   0.5830   0.5897   0.5905   0.5955   0.5984   0.6095
  0.6098   0.6215   0.6277   0.6318   0.6367   0.6377   0.6414   0.6484
  0.6601   0.6680   0.6698   0.6762   0.6873   0.6966   0.7001   0.7066
  0.7077   0.7136   0.7258   0.7280   0.7319   0.7353   0.7420   0.7461
  0.7562   0.7595   0.7655   0.7684   0.7711   0.7721   0.7757   0.7831
  0.7877   0.7907   0.7945   0.7971   0.8023   0.8072   0.8116   0.8161
  0.8215   0.8320   0.8352   0.8359   0.8442   0.8480   0.8513   0.8531
  0.8593   0.8731   0.8765   0.8801   0.8834   0.8869   0.8961   0.9005
  0.9033   0.9080   0.9149   0.9242   0.9335   0.9362   0.9487   0.9518
  0.9561   0.9692   0.9715   0.9831   0.9964   1.0066   1.0135   1.0305
  1.0350   1.0386   1.0595   1.0646   1.0694   1.0813   1.0868   1.0985
  1.1067   1.1133   1.1210   1.1358   1.1440   1.1530   1.1775   1.1881
  1.1967   1.2043   1.2188   1.2304   1.2390   1.2456   1.2708   1.2817
  1.2924   1.3049   1.3278   1.3346   1.3503   1.3621   1.3752   1.3796
  1.3901   1.4142   1.4190   1.4276   1.4416   1.4609   1.4680   1.4884
  1.4943   1.5057   1.5259   1.5354   1.5536   1.5757   1.5807   1.6071
  1.6263   1.6385   1.6500   1.6585   1.6891   1.7009   1.7033   1.7394
  1.7466   1.7690   1.7842   1.7936   1.8020   1.8101   1.8262   1.8467
  1.8723   1.8827   1.8903   1.8982   1.9104   1.9220   1.9313   1.9489
  1.9508   1.9543   1.9611   1.9700   1.9798   1.9885   2.0027   2.0127
  2.0238   2.0424   2.0505   2.0571   2.0635   2.0815   2.0966   2.1091
  2.1171   2.1191   2.1248   2.1478   2.1586   2.1777   2.1841   2.2094
  2.2145   2.2223   2.2390   2.2441   2.2725   2.2884   2.3009   2.3100
  2.3144   2.3382   2.3491   2.3622   2.3729   2.4042   2.4133   2.4221
  2.4372   2.4513   2.4624   2.4786   2.5009   2.5025   2.5053   2.5154
  2.5272   2.5470   2.5640   2.5848   2.6092   2.6110   2.6316   2.6345
  2.6470   2.6605   2.6694   2.6863   2.7028   2.7155   2.7292   2.7347
  2.7556   2.7610   2.7810   2.7923   2.8108   2.8297   2.8388   2.8436
  2.8702   2.8823   2.8950   2.9104   2.9292   2.9357   2.9503   2.9623
  2.9760   2.9815   2.9943   3.0253   3.0260   3.0364   3.0440   3.0564
  3.0722   3.0960   3.0980   3.1197   3.1480   3.1533   3.1658   3.1845
  3.1945   3.1991   3.2145   3.2195   3.2273   3.2385   3.2511   3.2559
  3.2709   3.2856   3.2901   3.2997   3.3077   3.3180   3.3466   3.3519
  3.3580   3.3743   3.3861   3.3995   3.4140   3.4143   3.4260   3.4437
  3.4483   3.4605   3.4780   3.4905   3.4959   3.5057   3.5147   3.5215
  3.5303   3.5436   3.5552   3.5597   3.5688   3.5786   3.5840   3.5904
  3.6037   3.6096   3.6298   3.6323   3.6468   3.6618   3.6775   3.6945
  3.7029   3.7091   3.7281   3.7334   3.7608   3.7674   3.8067   3.8288
  3.8430   3.8576   3.8923   3.9066   3.9436   3.9689   3.9854   3.9903
  4.0031   4.0262   4.0621   4.0679   4.0926   4.1077   4.1479   4.1693
  4.2051   4.2571   4.2762   4.2919   4.3113   4.3202   4.3267   4.3362
  4.3473   4.3655   4.3858   4.3949   4.4456   4.4548   4.4595   4.4949
  4.5005   4.5507   4.6059   4.6259   4.6374   4.6512   4.6982   4.7317
  4.7454   4.7950   4.8028   4.8064   4.8843   4.9180   4.9424   4.9508
  4.9858   5.0339   5.0633   5.1023   5.1350   5.1634   5.1809   5.2336
  5.2780   5.3049   5.3285   5.3655   5.3992   5.4154   5.4220   5.4502
  5.4753   5.5180   5.5461   5.5875   5.6260   5.6527   5.7211   5.7477
  5.7861   5.9309   5.9596   6.1705   6.2186   6.2723   6.4692   6.5411
  6.6095   6.6675   6.6974   6.7732   6.8479   6.9002   7.0067   7.0346
  7.2437   7.3255   7.3436   7.4697  22.6140  22.6707  22.7302  22.9604
 23.0200  23.0478  23.1958  23.5080  23.6122  32.5135  44.4688  44.5137
 --------------------------------------------------------------
 
          Ground-State Mulliken Net Atomic Charges

     Atom                 Charge (a.u.)
  ----------------------------------------
      1 C                    -0.696179
      2 C                     0.498350
      3 O                    -0.604952
      4 N                    -0.209030
      5 H                     0.234500
      6 H                     0.228113
      7 H                     0.193966
      8 H                     0.181234
      9 H                     0.192911
     10 C                    -1.112989
     11 C                    -0.229834
     12 C                    -0.660801
     13 C                     0.630308
     14 C                     0.477701
     15 C                    -0.674898
     16 C                    -0.325911
     17 O                    -0.543355
     18 H                     0.281846
     19 H                     0.331359
     20 H                     0.341581
     21 H                     0.340672
     22 H                     0.285640
     23 H                     0.278662
     24 H                     0.346476
     25 H                     0.214630
  ----------------------------------------
  Sum of atomic charges =     0.000000

 -----------------------------------------------------------------
                    Cartesian Multipole Moments
 -----------------------------------------------------------------
    Charge (ESU x 10^10)
                -0.0000
    Dipole Moment (Debye)
         X       3.1099      Y      -0.8260      Z       2.8645
       Tot       4.3080
    Quadrupole Moments (Debye-Ang)
        XX     -73.7269     XY      10.5428     YY     -75.9763
        XZ       0.4599     YZ       1.3650     ZZ     -69.4202
    Octopole Moments (Debye-Ang^2)
       XXX      21.4728    XXY     -19.1394    XYY      32.0463
       YYY      10.6312    XXZ      -3.1975    XYZ      -6.7588
       YYZ      18.4909    XZZ     -13.7603    YZZ      18.7381
       ZZZ     -11.4963
    Hexadecapole Moments (Debye-Ang^3)
      XXXX    -628.1785   XXXY     326.4453   XXYY    -468.7312
      XYYY     360.2506   YYYY   -1999.7205   XXXZ      24.3610
      XXYZ      36.3888   XYYZ      -7.4057   YYYZ     106.8666
      XXZZ    -228.1902   XYZZ      87.2693   YYZZ    -436.6540
      XZZZ      64.0667   YZZZ      84.6928   ZZZZ    -833.2359
 -----------------------------------------------------------------
Archival summary:
1\1\nid00506\SP\ProcedureUnspecified\BasisUnspecified\21913\meili\MonSep2703:10:002021MonSep2703:10:002021\0\\#,ProcedureUnspecified,BasisUnspecified,\\0,1\O\H,1,0.963736\C,1,1.36489,2,111.636\C,3,1.39216,1,119.408,2,179.305,0\H,4,1.07632,3,119.758,1,1.44042,0\C,4,1.39264,3,119.853,1,-179.682,0\H,6,1.07999,4,119.382,3,-179.992,0\C,3,1.39479,1,120.446,2,-0.657338,0\H,8,1.07925,3,120.068,1,-0.565877,0\C,6,1.39705,4,120.805,3,-0.136073,0\C,10,1.39788,6,118.992,4,-0.0785491,0\H,11,1.08251,10,119.888,6,-179.463,0\C,10,1.50578,6,120.34,4,-178.835,0\H,13,1.08872,10,109.565,6,-27.5295,0\H,13,1.0916,10,108.39,6,-144.772,0\H,13,1.1,10,113.155,6,94.3735,0\H,1,2.54809,2,87.6942,3,-96.4726,0\N,17,1.00777,1,116.577,2,94.4239,0\H,18,1.00585,17,121.479,1,99.8965,0\C,18,1.32436,17,118.904,1,-82.4088,0\O,20,1.22941,18,122.085,17,-3.24333,0\C,20,1.5198,18,116.706,17,176.998,0\H,22,1.0863,20,108.164,18,-17.5195,0\H,22,1.09039,20,108.768,18,99.6061,0\H,22,1.1,20,112.341,18,-138.148,0\\\@

 Total job time:  67755.70s(wall), 40804.53s(cpu) 
 Mon Sep 27 03:10:02 2021

        *************************************************************
        *                                                           *
        *  Thank you very much for using Q-Chem.  Have a nice day.  *
        *                                                           *
        *************************************************************


