
Running Job 1 of 1 SSI-035PHE-111PHE-1_PCM_TZVPD.in
qchem SSI-035PHE-111PHE-1_PCM_TZVPD.in_54729.0 /tmp/qchem54729/ 0
/global/common/cori/software/qchem/5.2/exe/qcprog.exe_s SSI-035PHE-111PHE-1_PCM_TZVPD.in_54729.0 /tmp/qchem54729/
                  Welcome to Q-Chem
     A Quantum Leap Into The Future Of Chemistry


 Q-Chem 5.2, Q-Chem, Inc., Pleasanton, CA (2019)

 License issued to: National Energy Research Scientific Computing Center

 Yihan Shao,  Zhengting Gan,  E. Epifanovsky,  A. T. B. Gilbert,  M. Wormit,  
 J. Kussmann,  A. W. Lange,  A. Behn,  Jia Deng,  Xintian Feng,  D. Ghosh,  
 M. Goldey,  P. R. Horn,  L. D. Jacobson,  I. Kaliman,  T. Kus,  A. Landau,  
 Jie Liu,  E. I. Proynov,  R. M. Richard,  R. P. Steele,  E. J. Sundstrom,  
 H. L. Woodcock III,  P. M. Zimmerman,  D. Zuev,  B. Albrecht,  E. Alguire,  
 S. A. Baeppler,  D. Barton,  Z. Benda,  Y. A. Bernard,  E. J. Berquist,  
 K. B. Bravaya,  H. Burton,  D. Casanova,  Chun-Min Chang,  Yunqing Chen,  
 A. Chien,  K. D. Closser,  M. P. Coons,  S. Coriani,  S. Dasgupta,  
 A. L. Dempwolff,  M. Diedenhofen,  Hainam Do,  R. G. Edgar,  Po-Tung Fang,  
 S. Faraji,  S. Fatehi,  Qingguo Feng,  K. D. Fenk,  J. Fosso-Tande,  
 J. Gayvert,  Qinghui Ge,  A. Ghysels,  G. Gidofalvi,  J. Gomes,  
 J. Gonthier,  A. Gunina,  D. Hait,  M. W. D. Hanson-Heine,  
 P. H. P. Harbach,  A. W. Hauser,  M. F. Herbst,  J. E. Herr,  
 E. G. Hohenstein,  Z. C. Holden,  Kerwin Hui,  B. C. Huynh,  T.-C. Jagau,  
 Hyunjun Ji,  B. Kaduk,  K. Khistyaev,  Jaehoon Kim,  P. Klunzinger,  K. Koh,  
 D. Kosenkov,  L. Koulias,  T. Kowalczyk,  C. M. Krauter,  A. Kunitsa,  
 Ka Un Lao,  A. Laurent,  K. V. Lawler,  Joonho Lee,  D. Lefrancois,  
 S. Lehtola,  D. S. Levine,  Yi-Pei Li,  You-Sheng Lin,  Fenglai Liu,  
 E. Livshits,  A. Luenser,  P. Manohar,  E. Mansoor,  S. F. Manzer,  
 Shan-Ping Mao,  Yuezhi Mao,  N. Mardirossian,  A. V. Marenich,  
 T. Markovich,  L. A. Martinez-Martinez,  S. A. Maurer,  N. J. Mayhall,  
 S. C. McKenzie,  J.-M. Mewes,  P. Morgante,  A. F. Morrison,  
 J. W. Mullinax,  K. Nanda,  T. S. Nguyen-Beck,  R. Olivares-Amaya,  
 J. A. Parkhill,  Zheng Pei,  T. M. Perrine,  F. Plasser,  P. Pokhilko,  
 S. Prager,  A. Prociuk,  E. Ramos,  D. R. Rehn,  F. Rob,  M. Scheurer,  
 M. Schneider,  N. Sergueev,  S. M. Sharada,  S. Sharma,  D. W. Small,  
 T. Stauch,  T. Stein,  Yu-Chuan Su,  A. J. W. Thom,  A. Tkatchenko,  
 T. Tsuchimochi,  N. M. Tubman,  L. Vogt,  M. L. Vidal,  O. Vydrov,  
 M. A. Watson,  J. Wenzel,  M. de Wergifosse,  T. A. Wesolowski,  A. White,  
 J. Witte,  A. Yamada,  Jun Yang,  K. Yao,  S. Yeganeh,  S. R. Yost,  
 Zhi-Qiang You,  A. Zech,  Igor Ying Zhang,  Xing Zhang,  Yan Zhao,  
 Ying Zhu,  B. R. Brooks,  G. K. L. Chan,  C. J. Cramer,  M. S. Gordon,  
 W. J. Hehre,  A. Klamt,  M. W. Schmidt,  C. D. Sherrill,  D. G. Truhlar,  
 A. Aspuru-Guzik,  R. Baer,  A. T. Bell,  N. A. Besley,  Jeng-Da Chai,  
 A. E. DePrince, III,  R. A. DiStasio Jr.,  A. Dreuw,  B. D. Dunietz,  
 T. R. Furlani,  Chao-Ping Hsu,  Yousung Jung,  Jing Kong,  D. S. Lambrecht,  
 WanZhen Liang,  C. Ochsenfeld,  V. A. Rassolov,  L. V. Slipchenko,  
 J. E. Subotnik,  T. Van Voorhis,  J. M. Herbert,  A. I. Krylov,  
 P. M. W. Gill,  M. Head-Gordon

 Contributors to earlier versions of Q-Chem not listed above: 
 R. D. Adamson,  B. Austin,  J. Baker,  G. J. O. Beran,  K. Brandhorst,  
 S. T. Brown,  E. F. C. Byrd,  A. K. Chakraborty,  C.-L. Cheng,  
 Siu Hung Chien,  D. M. Chipman,  D. L. Crittenden,  H. Dachsel,  
 R. J. Doerksen,  A. D. Dutoi,  L. Fusti-Molnar,  W. A. Goddard III,  
 A. Golubeva-Zadorozhnaya,  S. R. Gwaltney,  G. Hawkins,  A. Heyden,  
 S. Hirata,  G. Kedziora,  F. J. Keil,  C. Kelley,  Jihan Kim,  R. A. King,  
 R. Z. Khaliullin,  P. P. Korambath,  W. Kurlancheek,  A. M. Lee,  M. S. Lee,  
 S. V. Levchenko,  Ching Yeh Lin,  D. Liotard,  R. C. Lochan,  I. Lotan,  
 P. E. Maslen,  N. Nair,  D. P. O'Neill,  D. Neuhauser,  E. Neuscamman,  
 C. M. Oana,  R. Olson,  B. Peters,  R. Peverati,  P. A. Pieniazek,  
 Y. M. Rhee,  J. Ritchie,  M. A. Rohrdanz,  E. Rosta,  N. J. Russ,  
 H. F. Schaefer III,  N. E. Schultz,  N. Shenvi,  A. C. Simmonett,  A. Sodt,  
 D. Stuck,  K. S. Thanthiriwatte,  V. Vanovschi,  Tao Wang,  A. Warshel,  
 C. F. Williams,  Q. Wu,  X. Xu,  W. Zhang

 Please cite Q-Chem as follows:
 Y. Shao et al., Mol. Phys. 113, 184-215 (2015)
 DOI: 10.1080/00268976.2014.952696

 Q-Chem 5.2.0 for Intel X86 EM64T Linux

 Parts of Q-Chem use Armadillo 8.300.2 (Tropical Shenanigans).
 http://arma.sourceforge.net/

 Q-Chem begins on Sun Sep 26 05:42:12 2021  

Host: cori01
0

     Scratch files written to /tmp/qchem54729//
 May1019 |scratch|qcdevops|jenkins|workspace|build_RNUM -1
Processing $rem in /global/common/cori/software/qchem/5.2/config/preferences:
	 MEM_TOTAL  96000 
NAlpha2: 100
NElect   100
Mult     1
Symmetry turned off for PCM/SM12/SMD calculation

 Q-Chem warning in module libgen/rem_setup.C, line 2803:

 Neither GIA nor STOLL is specified by user. Use STOLL as the default


Checking the input file for inconsistencies... 	...done.

--------------------------------------------------------------
User input:
--------------------------------------------------------------
$comment
SSI-035PHE-111PHE-1.pdb
$end

$molecule
0 1
--
0 1
C    4.564075706357   -0.239282180955    0.365425047776
C    0.792075706357   -0.440282180955    0.517425047776
C    2.075075706357   -0.041282180955    0.189425047776
C    0.589075706357   -1.456282180955    1.431425047776
C    3.171075706357   -0.653282180955    0.774425047776
C    1.673075706357   -2.068282180955    2.024425047776
C    2.960075706357   -1.684282180955    1.682425047776
H   -0.056924293643    0.031717819045    0.055425047776
H    2.215075706357    0.752717819045   -0.530574952224
H   -0.413924293643   -1.774282180955    1.675425047776
H    1.514075706357   -2.859282180955    2.743425047776
H    4.523075706357    0.093717819045   -0.674574952224
H    5.221075706357   -1.110282180955    0.393425047776
H    3.801075706357   -2.173282180955    2.146425047776
H    4.991355706357    0.569007819045    0.977065047776
--
0 1
C   -1.267924293643    0.976717819045   -3.190574952224
C   -2.156924293643    1.872717819045    0.373425047776
C   -3.086924293643    0.897717819045    0.684425047776
C   -1.566924293643    1.898717819045   -0.880574952224
C   -1.896924293643    0.939717819045   -1.827574952224
C   -3.427924293643   -0.058282180955   -0.260574952224
C   -2.838924293643   -0.031282180955   -1.513574952224
H   -1.890924293643    2.614717819045    1.112425047776
H   -3.565924293643    0.912717819045    1.651425047776
H   -0.833924293643    2.651717819045   -1.110574952224
H   -4.157924293643   -0.819282180955   -0.020574952224
H   -1.182924293643   -0.040282180955   -3.578574952224
H   -0.252924293643    1.367717819045   -3.101574952224
H   -3.106924293643   -0.784282180955   -2.241574952224
H   -1.827074293643    1.602247819045   -3.901954952224
$end

$rem
JOBTYPE			EDA
EDA2			1
method			wB97X-V
BASIS			def2-TZVPD
XC_GRID			000099000590
NL_GRID			1
UNRESTRICTED		FALSE
MAX_SCF_CYCLES		200
SYMMETRY		FALSE
SYM_IGNORE		TRUE
MEM_STATIC		2000
BASIS_LIN_DEP_THRESH 	6
THRESH 			14
SCF_CONVERGENCE 	8
SCF_PRINT_FRGM 		TRUE
SOLVENT_METHOD          PCM
$end

$PCM
THEORY                  CPCM
METHOD                  SWIG
SOLVER                  INVERSION
RADII                   UFF
HPOINTS                 302
HEAVYPOINTS             302
PRINTLEVEL              0
$END

$SOLVENT
DIELECTRIC              78.390000 ! water
$END
--------------------------------------------------------------
 ----------------------------------------------------------------
             Standard Nuclear Orientation (Angstroms)
    I     Atom           X                Y                Z
 ----------------------------------------------------------------
    1      C       4.5640757064    -0.2392821810     0.3654250478
    2      C       0.7920757064    -0.4402821810     0.5174250478
    3      C       2.0750757064    -0.0412821810     0.1894250478
    4      C       0.5890757064    -1.4562821810     1.4314250478
    5      C       3.1710757064    -0.6532821810     0.7744250478
    6      C       1.6730757064    -2.0682821810     2.0244250478
    7      C       2.9600757064    -1.6842821810     1.6824250478
    8      H      -0.0569242936     0.0317178190     0.0554250478
    9      H       2.2150757064     0.7527178190    -0.5305749522
   10      H      -0.4139242936    -1.7742821810     1.6754250478
   11      H       1.5140757064    -2.8592821810     2.7434250478
   12      H       4.5230757064     0.0937178190    -0.6745749522
   13      H       5.2210757064    -1.1102821810     0.3934250478
   14      H       3.8010757064    -2.1732821810     2.1464250478
   15      H       4.9913557064     0.5690078190     0.9770650478
   16      C      -1.2679242936     0.9767178190    -3.1905749522
   17      C      -2.1569242936     1.8727178190     0.3734250478
   18      C      -3.0869242936     0.8977178190     0.6844250478
   19      C      -1.5669242936     1.8987178190    -0.8805749522
   20      C      -1.8969242936     0.9397178190    -1.8275749522
   21      C      -3.4279242936    -0.0582821810    -0.2605749522
   22      C      -2.8389242936    -0.0312821810    -1.5135749522
   23      H      -1.8909242936     2.6147178190     1.1124250478
   24      H      -3.5659242936     0.9127178190     1.6514250478
   25      H      -0.8339242936     2.6517178190    -1.1105749522
   26      H      -4.1579242936    -0.8192821810    -0.0205749522
   27      H      -1.1829242936    -0.0402821810    -3.5785749522
   28      H      -0.2529242936     1.3677178190    -3.1015749522
   29      H      -3.1069242936    -0.7842821810    -2.2415749522
   30      H      -1.8270742936     1.6022478190    -3.9019549522
 ----------------------------------------------------------------
 Nuclear Repulsion Energy =         781.19101132 hartrees
 There are       50 alpha and       50 beta electrons
 Requested basis set is def2-TZVPD
 There are 262 shells and 662 basis functions

 Total QAlloc Memory Limit  96000 MB
 Mega-Array Size      1956 MB
 MEM_STATIC part      2000 MB
 Discretize the solute cavity surface with Lebedev spheres
	Using 302 Lebedev grid points for each H atom
	Using 302 Lebedev grid points for other atoms
	Atomic van der Waals radii will be scaled by 1.20
 Remove points where switching function is < 1.0e-08
 Keep 3422 surface tesserae and discard 5638 interior tesserae
 Molecular Surface Area = 328.028 Angst**2
 A cutoff of  1.0D-14 yielded  29356 shell pairs
 There are    188482 function pairs (    237860 Cartesian)
 Smallest overlap matrix eigenvalue = 4.30E-07
 Linear dependence detected in AO basis
 Tighter screening thresholds may be required for diffuse basis sets
 Use S2THRESH > 14 and THRESH = 14 in case of SCF convergence issues
 Number of orthogonalized atomic orbitals = 658
 Maximum deviation from orthogonality = 2.352E-10

 Scale SEOQF with 1.000000e-02/1.000000e-01/1.000000e-01

 Standard Electronic Orientation quadrupole field applied
 Nucleus-field energy     =    -0.0000000108 hartrees

 -----------------------------------------------------------------------
  General SCF calculation program by
  Eric Jon Sundstrom, Paul Horn, Yuezhi Mao, Dmitri Zuev, Alec White,
  David Stuck, Shaama M.S., Shane Yost, Joonho Lee, David Small,
  Daniel Levine, Susi Lehtola, Hugh Burton, Evgeny Epifanovsky
 -----------------------------------------------------------------------
================================================================
                 ALMO-EDA with the EDA2 driver                  
================================================================
 The second-generation ALMO-EDA (for DFT):                      
 P. R. Horn, Y. Mao and M. Head-Gordon, PCCP, 18, 23067 (2016)  
 Decomposition of the frozen energy:                            
 P. R. Horn, Y. Mao and M. Head-Gordon, JCP, 144, 114107 (2016) 
 FERF model for polarization:                                   
 P. R. Horn and M. Head-Gordon, JCP, 143, 114111 (2015)         
Using eda2 option set 1
Option set summary: Frozen orbital wavefunction, initial wavefunction decomposition, and nDQ polarization.
--------------------------------
Printing EDA Options
--------------------------------
eda_child_super_basis      0
fragmo_guess_mode          0
child_mp                   1
child_mp_orders            232
cls_elec                   1
cls_disp                   0
scfmi_mode                 1
scfmi_occs                 0
scfmi_virts                0
frz_relax                  0
frz_relax_method           0
dc_pen_start               0
dc_pen_conv                0
dc_pen_increment           0
dc_pen_steps               0
dc_pen_thresh_factor       0
dc_pen_pre_newton_thresh   0
frz_ortho_decomp           1
frz_ortho_decomp_conv      6
frgm_method                2
scfmi_freeze_ss            0
separate_rehyb             0
plot_diff_den              0
eda_nocv                   0
eda_vct_relax              1
disp_free_x                0
disp_free_c                0
eda_bsse                   0
eda_pct_a                  0
eda_covp                   0
--------------------------------
Attempting to make child job directory: /tmp/qchem54729//Frg1/
Attempting to make child job directory: /tmp/qchem54729//Frg2/
Creating input file /tmp/qchem54729/Frg1.input
using default PutDataFrgm: nothing
calling putenv with: QCSCRATCH=/tmp/qchem54729/ 
calling putenv with: QCLOCALSCR=/tmp/qchem54729/ 
Spawning Job For Fragment 0
                  Welcome to Q-Chem
     A Quantum Leap Into The Future Of Chemistry


 Q-Chem 5.2, Q-Chem, Inc., Pleasanton, CA (2019)

 License issued to: National Energy Research Scientific Computing Center

 Yihan Shao,  Zhengting Gan,  E. Epifanovsky,  A. T. B. Gilbert,  M. Wormit,  
 J. Kussmann,  A. W. Lange,  A. Behn,  Jia Deng,  Xintian Feng,  D. Ghosh,  
 M. Goldey,  P. R. Horn,  L. D. Jacobson,  I. Kaliman,  T. Kus,  A. Landau,  
 Jie Liu,  E. I. Proynov,  R. M. Richard,  R. P. Steele,  E. J. Sundstrom,  
 H. L. Woodcock III,  P. M. Zimmerman,  D. Zuev,  B. Albrecht,  E. Alguire,  
 S. A. Baeppler,  D. Barton,  Z. Benda,  Y. A. Bernard,  E. J. Berquist,  
 K. B. Bravaya,  H. Burton,  D. Casanova,  Chun-Min Chang,  Yunqing Chen,  
 A. Chien,  K. D. Closser,  M. P. Coons,  S. Coriani,  S. Dasgupta,  
 A. L. Dempwolff,  M. Diedenhofen,  Hainam Do,  R. G. Edgar,  Po-Tung Fang,  
 S. Faraji,  S. Fatehi,  Qingguo Feng,  K. D. Fenk,  J. Fosso-Tande,  
 J. Gayvert,  Qinghui Ge,  A. Ghysels,  G. Gidofalvi,  J. Gomes,  
 J. Gonthier,  A. Gunina,  D. Hait,  M. W. D. Hanson-Heine,  
 P. H. P. Harbach,  A. W. Hauser,  M. F. Herbst,  J. E. Herr,  
 E. G. Hohenstein,  Z. C. Holden,  Kerwin Hui,  B. C. Huynh,  T.-C. Jagau,  
 Hyunjun Ji,  B. Kaduk,  K. Khistyaev,  Jaehoon Kim,  P. Klunzinger,  K. Koh,  
 D. Kosenkov,  L. Koulias,  T. Kowalczyk,  C. M. Krauter,  A. Kunitsa,  
 Ka Un Lao,  A. Laurent,  K. V. Lawler,  Joonho Lee,  D. Lefrancois,  
 S. Lehtola,  D. S. Levine,  Yi-Pei Li,  You-Sheng Lin,  Fenglai Liu,  
 E. Livshits,  A. Luenser,  P. Manohar,  E. Mansoor,  S. F. Manzer,  
 Shan-Ping Mao,  Yuezhi Mao,  N. Mardirossian,  A. V. Marenich,  
 T. Markovich,  L. A. Martinez-Martinez,  S. A. Maurer,  N. J. Mayhall,  
 S. C. McKenzie,  J.-M. Mewes,  P. Morgante,  A. F. Morrison,  
 J. W. Mullinax,  K. Nanda,  T. S. Nguyen-Beck,  R. Olivares-Amaya,  
 J. A. Parkhill,  Zheng Pei,  T. M. Perrine,  F. Plasser,  P. Pokhilko,  
 S. Prager,  A. Prociuk,  E. Ramos,  D. R. Rehn,  F. Rob,  M. Scheurer,  
 M. Schneider,  N. Sergueev,  S. M. Sharada,  S. Sharma,  D. W. Small,  
 T. Stauch,  T. Stein,  Yu-Chuan Su,  A. J. W. Thom,  A. Tkatchenko,  
 T. Tsuchimochi,  N. M. Tubman,  L. Vogt,  M. L. Vidal,  O. Vydrov,  
 M. A. Watson,  J. Wenzel,  M. de Wergifosse,  T. A. Wesolowski,  A. White,  
 J. Witte,  A. Yamada,  Jun Yang,  K. Yao,  S. Yeganeh,  S. R. Yost,  
 Zhi-Qiang You,  A. Zech,  Igor Ying Zhang,  Xing Zhang,  Yan Zhao,  
 Ying Zhu,  B. R. Brooks,  G. K. L. Chan,  C. J. Cramer,  M. S. Gordon,  
 W. J. Hehre,  A. Klamt,  M. W. Schmidt,  C. D. Sherrill,  D. G. Truhlar,  
 A. Aspuru-Guzik,  R. Baer,  A. T. Bell,  N. A. Besley,  Jeng-Da Chai,  
 A. E. DePrince, III,  R. A. DiStasio Jr.,  A. Dreuw,  B. D. Dunietz,  
 T. R. Furlani,  Chao-Ping Hsu,  Yousung Jung,  Jing Kong,  D. S. Lambrecht,  
 WanZhen Liang,  C. Ochsenfeld,  V. A. Rassolov,  L. V. Slipchenko,  
 J. E. Subotnik,  T. Van Voorhis,  J. M. Herbert,  A. I. Krylov,  
 P. M. W. Gill,  M. Head-Gordon

 Contributors to earlier versions of Q-Chem not listed above: 
 R. D. Adamson,  B. Austin,  J. Baker,  G. J. O. Beran,  K. Brandhorst,  
 S. T. Brown,  E. F. C. Byrd,  A. K. Chakraborty,  C.-L. Cheng,  
 Siu Hung Chien,  D. M. Chipman,  D. L. Crittenden,  H. Dachsel,  
 R. J. Doerksen,  A. D. Dutoi,  L. Fusti-Molnar,  W. A. Goddard III,  
 A. Golubeva-Zadorozhnaya,  S. R. Gwaltney,  G. Hawkins,  A. Heyden,  
 S. Hirata,  G. Kedziora,  F. J. Keil,  C. Kelley,  Jihan Kim,  R. A. King,  
 R. Z. Khaliullin,  P. P. Korambath,  W. Kurlancheek,  A. M. Lee,  M. S. Lee,  
 S. V. Levchenko,  Ching Yeh Lin,  D. Liotard,  R. C. Lochan,  I. Lotan,  
 P. E. Maslen,  N. Nair,  D. P. O'Neill,  D. Neuhauser,  E. Neuscamman,  
 C. M. Oana,  R. Olson,  B. Peters,  R. Peverati,  P. A. Pieniazek,  
 Y. M. Rhee,  J. Ritchie,  M. A. Rohrdanz,  E. Rosta,  N. J. Russ,  
 H. F. Schaefer III,  N. E. Schultz,  N. Shenvi,  A. C. Simmonett,  A. Sodt,  
 D. Stuck,  K. S. Thanthiriwatte,  V. Vanovschi,  Tao Wang,  A. Warshel,  
 C. F. Williams,  Q. Wu,  X. Xu,  W. Zhang

 Please cite Q-Chem as follows:
 Y. Shao et al., Mol. Phys. 113, 184-215 (2015)
 DOI: 10.1080/00268976.2014.952696

 Q-Chem 5.2.0 for Intel X86 EM64T Linux

 Parts of Q-Chem use Armadillo 8.300.2 (Tropical Shenanigans).
 http://arma.sourceforge.net/

 Q-Chem begins on Sun Sep 26 05:42:20 2021  

Host: cori01
0

     Scratch files written to /tmp/qchem54729//Frg1//
 May1019 |scratch|qcdevops|jenkins|workspace|build_RNUM -1
Processing $rem in /global/common/cori/software/qchem/5.2/config/preferences:
	 MEM_TOTAL  96000 
NAlpha2: 50
NElect   50
Mult     1
Symmetry turned off for PCM/SM12/SMD calculation

Checking the input file for inconsistencies... 	...done.

--------------------------------------------------------------
User input:
--------------------------------------------------------------
$molecule
0 1
 6	4.5640757064	-0.2392821810	0.3654250478
 6	0.7920757064	-0.4402821810	0.5174250478
 6	2.0750757064	-0.0412821810	0.1894250478
 6	0.5890757064	-1.4562821810	1.4314250478
 6	3.1710757064	-0.6532821810	0.7744250478
 6	1.6730757064	-2.0682821810	2.0244250478
 6	2.9600757064	-1.6842821810	1.6824250478
 1	-0.0569242936	0.0317178190	0.0554250478
 1	2.2150757064	0.7527178190	-0.5305749522
 1	-0.4139242936	-1.7742821810	1.6754250478
 1	1.5140757064	-2.8592821810	2.7434250478
 1	4.5230757064	0.0937178190	-0.6745749522
 1	5.2210757064	-1.1102821810	0.3934250478
 1	3.8010757064	-2.1732821810	2.1464250478
 1	4.9913557064	0.5690078190	0.9770650478
$end
$rem
EDA2		1
METHOD		WB97X-V
BASIS		DEF2-TZVPD
XC_GRID		000099000590
NL_GRID		1
UNRESTRICTED		FALSE
MAX_SCF_CYCLES		200
SYMMETRY		FALSE
SYM_IGNORE		TRUE
BASIS_LIN_DEP_THRESH		6
THRESH		14
SCF_CONVERGENCE		8
SCF_PRINT_FRGM		TRUE
SOLVENT_METHOD		PCM
!required keywords
JOBTYPE		SP
SYM_IGNORE		TRUE
SUBSYSTEM		TRUE
GEN_SCFMAN		TRUE
CHILD_INSTRUCTION		2
SYM_IGNORE		TRUE
SCFMI		0
RI_K 0		
PARI_K 0		
MIN_PARI_K 0		
IARI_K 0		
OCC_RI_K 0		
PURECART		1111
MEM_STATIC		2000
MEM_TOTAL		96000
GUI		0
CHILD_MP		1
CHILD_MP_ORDERS		232
FRZ_RELAX		0
FRZ_RELAX_METHOD		0
EDA_CLS_ELEC		1
EDA_CLS_DISP		0
FRZ_ORTHO_DECOMP		1
EDA2		FALSE
FRGM_METHOD		FALSE
CIS_N_ROOTS  0
LOCAL_CIS    0
CIS_RLX_DNS  1
$end
$pcm
THEORY                  CPCM
METHOD                  SWIG
SOLVER                  INVERSION
RADII                   UFF
HPOINTS                 302
HEAVYPOINTS             302
PRINTLEVEL              0
$end
$solvent
DIELECTRIC              78.390000 ! water
$end
--------------------------------------------------------------
 ----------------------------------------------------------------
             Standard Nuclear Orientation (Angstroms)
    I     Atom           X                Y                Z
 ----------------------------------------------------------------
    1      C       4.5640757064    -0.2392821810     0.3654250478
    2      C       0.7920757064    -0.4402821810     0.5174250478
    3      C       2.0750757064    -0.0412821810     0.1894250478
    4      C       0.5890757064    -1.4562821810     1.4314250478
    5      C       3.1710757064    -0.6532821810     0.7744250478
    6      C       1.6730757064    -2.0682821810     2.0244250478
    7      C       2.9600757064    -1.6842821810     1.6824250478
    8      H      -0.0569242936     0.0317178190     0.0554250478
    9      H       2.2150757064     0.7527178190    -0.5305749522
   10      H      -0.4139242936    -1.7742821810     1.6754250478
   11      H       1.5140757064    -2.8592821810     2.7434250478
   12      H       4.5230757064     0.0937178190    -0.6745749522
   13      H       5.2210757064    -1.1102821810     0.3934250478
   14      H       3.8010757064    -2.1732821810     2.1464250478
   15      H       4.9913557064     0.5690078190     0.9770650478
 ----------------------------------------------------------------
 Nuclear Repulsion Energy =         270.94604982 hartrees
 There are       25 alpha and       25 beta electrons
 Requested basis set is def2-TZVPD
 There are 131 shells and 331 basis functions

 Total QAlloc Memory Limit  96000 MB
 Mega-Array Size      1956 MB
 MEM_STATIC part      2000 MB
 Discretize the solute cavity surface with Lebedev spheres
	Using 302 Lebedev grid points for each H atom
	Using 302 Lebedev grid points for other atoms
	Atomic van der Waals radii will be scaled by 1.20
 Remove points where switching function is < 1.0e-08
 Keep 1805 surface tesserae and discard 2725 interior tesserae
 Molecular Surface Area = 177.759 Angst**2

                       Distance Matrix (Angstroms)
             C (  1)   C (  2)   C (  3)   C (  4)   C (  5)   C (  6)
   C (  2)  3.780409
   C (  3)  2.503058  1.383067
   C (  4)  4.291628  1.381615  2.398538
   C (  5)  1.509677  2.402303  1.384913  2.782657
   C (  6)  3.802026  2.386963  2.763613  1.378858  2.410130
   C (  7)  2.528899  2.757714  2.389921  2.395125  1.389945  1.385925
   H (  8)  4.639308  1.075653  2.137454  2.127166  3.377302  3.358550
   H (  9)  2.702717  2.132248  1.080942  3.372388  2.143314  3.844454
   H ( 10)  5.371481  2.138915  3.377367  1.080125  3.862728  2.136307
   H ( 11)  4.671379  3.365698  3.844315  2.131989  3.389550  1.080705
   H ( 12)  1.092781  3.953022  2.599505  4.723779  2.117903  4.481221
   H ( 13)  1.091363  4.481107  3.328918  4.759473  2.134598  4.020725
   H ( 14)  2.737606  3.835494  3.369621  3.367827  2.142355  2.134079
   H ( 15)  1.100002  4.343258  3.081805  4.867064  2.201925  4.366147
             C (  7)   H (  8)   H (  9)   H ( 10)   H ( 11)   H ( 12)
   H (  8)  3.833285
   H (  9)  3.375109  2.454633
   H ( 10)  3.375207  2.452241  4.261902
   H ( 11)  2.144123  4.248678  4.925142  2.456630
   H ( 12)  3.340614  4.638226  2.404554  5.778053  5.427432
   H ( 13)  2.665168  5.410702  3.655213  5.817013  4.724759  1.754265
   H ( 14)  1.077821  4.911056  4.271206  4.259961  2.461173  3.690341
   H ( 15)  3.114634  5.159771  3.164563  5.932602  5.192752  1.781320
             H ( 13)   H ( 14)
   H ( 14)  2.493868
   H ( 15)  1.792602  3.210035
 
 A cutoff of  1.0D-14 yielded   8362 shell pairs
 There are     54504 function pairs (     69458 Cartesian)
 Smallest overlap matrix eigenvalue = 5.18E-07
 Linear dependence detected in AO basis
 Tighter screening thresholds may be required for diffuse basis sets
 Use S2THRESH > 14 and THRESH = 14 in case of SCF convergence issues
 Number of orthogonalized atomic orbitals = 330
 Maximum deviation from orthogonality = 1.667E-10

 Scale SEOQF with 1.000000e-02/1.000000e-01/1.000000e-01

 Standard Electronic Orientation quadrupole field applied
 Nucleus-field energy     =    -0.0000000013 hartrees
 Guess from superposition of atomic densities
 Warning:  Energy on first SCF cycle will be non-variational
 SAD guess density has 49.913408 electrons

 -----------------------------------------------------------------------
  General SCF calculation program by
  Eric Jon Sundstrom, Paul Horn, Yuezhi Mao, Dmitri Zuev, Alec White,
  David Stuck, Shaama M.S., Shane Yost, Joonho Lee, David Small,
  Daniel Levine, Susi Lehtola, Hugh Burton, Evgeny Epifanovsky
 -----------------------------------------------------------------------
 Exchange:     0.1670 Hartree-Fock + 1.0000 wB97X-V + LR-HF
 Correlation:  1.0000 wB97X-V
 Using Euler-Maclaurin-Lebedev (99,590) quadrature formula
 Nonlocal Correlation:  VV10 with C = 0.0100 and b = 6.00 and scale = 1.00000
 Grid used for NLC:  SG-1 standard quadrature
Energy prior to optimization (guess energy) = -271.517526357110
Begin Timing: Total SCF Calculation
begin iterations for algorithm: DIIS         
the SCF tolerance is set to 1.00e-08
    1    -271.5175263571      2.01e-03     00000 
    2    -271.5573395123      1.30e-03     00000 
    3    -271.5805596271      1.40e-04     00000 
    4    -271.5809717622      4.84e-05     00000 
    5    -271.5810066577      1.54e-05     00000 
    6    -271.5810109444      3.33e-06     00000 
    7    -271.5810112146      1.27e-06     00000 
    8    -271.5810112425      4.08e-07     00000 
    9    -271.5810112458      5.97e-08     00000 
   10    -271.5810112459      2.64e-08     00000 
   11    -271.5810112460      6.24e-09     00000 Convergence criterion met
Timing for Total SCF: 1365.00s (wall), 2708.93s (cpu)

************** Final PCM Free Energy Summary **************
 G_electrostatic  =      -0.00236447 hartree =      -1.48372462 kcal/mol
 G_cavitation     =       0.00000000 hartree =       0.00000000 kcal/mol
 G_dispersion     =       0.00000000 hartree =       0.00000000 kcal/mol
 G_repulsion      =       0.00000000 hartree =       0.00000000 kcal/mol
 --------------------------------------------------
 Non-electrostatic Free Energy =       0.00000000 hartree =       0.00000000 kcal/mol
 Total                         =      -0.00236447 hartree =      -1.48372462 kcal/mol
 --------------------------------------------------
 SCF Energy (H0 + V/2)                       =    -271.58101125 
 Solute Internal Energy (H0)                 =    -271.57864678 
 Total Free Energy (H0 + V/2 + non-elec)     =    -271.58101125 hartree
                                             = -170419.65670059 kcal/mol
***********************************************************

E_pcm = -0.0023644657
Multipole orders to be included
        2
        3
computing dipole RHS
computing quadrupole RHS
total number of RHS in solve_reponses: 8
RHS batch sizes
        8
Beginning Block Conjugate Gradient Iterations. Batch Number: 0
computing hessian-vector products by finite difference
              1      5.82e-01     00000 Conjugate Gradient Iteration
computing hessian-vector products by finite difference
              2      1.89e-01     00000 Conjugate Gradient Iteration
computing hessian-vector products by finite difference
              3      4.45e-02     00000 Conjugate Gradient Iteration
computing hessian-vector products by finite difference
              4      1.04e-02     00000 Conjugate Gradient Iteration
computing hessian-vector products by finite difference
              5      2.10e-03     00000 Conjugate Gradient Iteration
computing hessian-vector products by finite difference
              6      5.32e-04     00000 Conjugate Gradient Iteration
computing hessian-vector products by finite difference
              7      1.48e-04     00000 Conjugate Gradient Iteration
computing hessian-vector products by finite difference
              8      2.31e-05     00000 Conjugate Gradient Iteration
computing hessian-vector products by finite difference
              9      3.91e-06     00000 Conjugate Gradient Iteration
computing hessian-vector products by finite difference
             10      8.31e-07     00000 Conjugate Gradient Iteration
computing hessian-vector products by finite difference
             11      2.09e-07     00000 Conjugate Gradient Iteration
computing hessian-vector products by finite difference
             12      3.30e-08     00000 Conjugate Gradient Iteration
computing hessian-vector products by finite difference
             13      6.84e-09     00000 CG Converged
batch 0 complete
Done Calculating Responses
TESTING ORTHOGONALIZATION OF MULTIPOLE BASIS
Multipole virts passed orthogonality test
Virts Per Order
           75
          125
 
 --------------------------------------------------------------
 
                    Orbital Energies (a.u.)
 --------------------------------------------------------------
 
 Alpha MOs
 -- Occupied --
-10.2804 -10.2705 -10.2696 -10.2680 -10.2671 -10.2670 -10.2630  -1.0012
 -0.9085  -0.8810  -0.8143  -0.7318  -0.7070  -0.6325  -0.5759  -0.5661
 -0.5364  -0.5308  -0.5149  -0.4874  -0.4761  -0.4414  -0.4408  -0.3504
 -0.3399
 -- Virtual --
  0.0632   0.0652   0.0695   0.0790   0.0845   0.1045   0.1106   0.1136
  0.1355   0.1539   0.1667   0.1675   0.1842   0.1881   0.1952   0.2013
  0.2216   0.2225   0.2338   0.2409   0.2511   0.2591   0.2605   0.2672
  0.2808   0.2817   0.2888   0.2912   0.2929   0.3007   0.3020   0.3099
  0.3177   0.3258   0.3338   0.3392   0.3493   0.3517   0.3651   0.3736
  0.3802   0.3820   0.3837   0.3885   0.3897   0.4017   0.4046   0.4076
  0.4108   0.4274   0.4293   0.4372   0.4436   0.4498   0.4507   0.4525
  0.4659   0.4677   0.4719   0.4812   0.4956   0.5000   0.5108   0.5174
  0.5187   0.5255   0.5312   0.5394   0.5429   0.5477   0.5523   0.5643
  0.5862   0.5880   0.5971   0.6005   0.6030   0.6205   0.6427   0.6470
  0.6570   0.6749   0.6849   0.6861   0.6901   0.6920   0.7213   0.7238
  0.7307   0.7333   0.7435   0.7578   0.7651   0.7660   0.7785   0.7871
  0.7918   0.7942   0.7973   0.8057   0.8075   0.8204   0.8257   0.8321
  0.8341   0.8363   0.8395   0.8553   0.8580   0.8767   0.8890   0.8963
  0.9076   0.9099   0.9380   0.9479   0.9541   1.0151   1.0219   1.0362
  1.0486   1.0651   1.0749   1.0848   1.0902   1.0970   1.1041   1.1433
  1.1648   1.1840   1.2514   1.2844   1.2955   1.3247   1.3503   1.3517
  1.3873   1.4375   1.4532   1.4624   1.4677   1.4877   1.5272   1.5442
  1.6028   1.6066   1.6177   1.6232   1.6649   1.6877   1.7344   1.7845
  1.7957   1.7973   1.8062   1.8176   1.8328   1.8703   1.8876   1.9090
  1.9187   1.9220   1.9523   1.9544   1.9809   1.9972   2.0125   2.0266
  2.0351   2.0454   2.0721   2.0991   2.1144   2.1263   2.1672   2.1775
  2.2001   2.2281   2.2369   2.2703   2.2870   2.3188   2.3978   2.4008
  2.4087   2.4146   2.4850   2.5051   2.5307   2.5567   2.5654   2.6023
  2.6163   2.6291   2.6670   2.6721   2.7025   2.7142   2.7647   2.7792
  2.7966   2.8194   2.8244   2.8553   2.8634   2.9040   2.9082   2.9162
  2.9421   2.9466   2.9628   2.9793   2.9914   3.0146   3.0228   3.0566
  3.0605   3.0937   3.1064   3.1195   3.1842   3.1913   3.2011   3.2204
  3.2260   3.2386   3.2931   3.3086   3.3198   3.3528   3.3622   3.3831
  3.4054   3.4443   3.4497   3.4599   3.4618   3.4736   3.4935   3.5091
  3.5153   3.5372   3.5419   3.5490   3.5664   3.5766   3.5957   3.6126
  3.6181   3.6511   3.6568   3.7036   3.7145   3.7633   3.7811   3.8262
  3.8395   3.8839   3.9137   3.9547   3.9640   4.0014   4.0478   4.0631
  4.1203   4.2032   4.2805   4.2934   4.3000   4.3344   4.3408   4.3431
  4.3709   4.3883   4.4044   4.4138   4.4459   4.4705   4.4861   4.5446
  4.5993   4.6348   4.7540   4.7686   4.8451   4.9000   4.9073   4.9501
  5.0426   5.0566   5.1799   5.2716   5.4012   5.4135   5.5126   5.5297
  5.6915   5.8603  22.5664  22.6547  22.9176  22.9282  23.0443  23.1151
 23.4581
 --------------------------------------------------------------
 
          Ground-State Mulliken Net Atomic Charges

     Atom                 Charge (a.u.)
  ----------------------------------------
      1 C                    -1.048519
      2 C                    -0.502153
      3 C                    -0.361127
      4 C                    -0.484097
      5 C                     0.901884
      6 C                    -0.480751
      7 C                    -0.371649
      8 H                     0.316492
      9 H                     0.310613
     10 H                     0.323758
     11 H                     0.310514
     12 H                     0.270633
     13 H                     0.273110
     14 H                     0.324837
     15 H                     0.216455
  ----------------------------------------
  Sum of atomic charges =     0.000000

 -----------------------------------------------------------------
                    Cartesian Multipole Moments
 -----------------------------------------------------------------
    Charge (ESU x 10^10)
                 0.0000
    Dipole Moment (Debye)
         X       0.4089      Y       0.1091      Z      -0.1541
       Tot       0.4504
    Quadrupole Moments (Debye-Ang)
        XX     -36.2762     XY       0.1009     YY     -42.0443
        XZ       0.0888     YZ      -3.6586     ZZ     -42.9140
    Octopole Moments (Debye-Ang^2)
       XXX    -264.8542    XXY      34.1989    XYY     -96.7436
       YYY     116.4614    XXZ     -35.5811    XYZ      -6.1146
       YYZ     -32.3966    XZZ     -98.4351    YZZ      31.4582
       ZZZ    -126.6408
    Hexadecapole Moments (Debye-Ang^3)
      XXXX   -1819.6432   XXXY     199.4488   XXYY    -382.0840
      XYYY     226.8265   YYYY    -439.7159   XXXZ    -217.4138
      XXYZ      42.4757   XYYZ     -66.5559   YYYZ     165.0740
      XXZZ    -390.2318   XYZZ      63.8672   YYZZ    -117.4757
      XZZZ    -256.3261   YZZZ     170.0967   ZZZZ    -445.9072
 -----------------------------------------------------------------
Archival summary:
1\1\nid00557\SP\ProcedureUnspecified\BasisUnspecified\78\meili\SunSep2614:19:042021SunSep2614:19:042021\0\\#,ProcedureUnspecified,BasisUnspecified,\\0,1\C\C,1,1.38491\H,2,1.08094,1,120.229\C,2,1.38307,1,120.429,3,179.874,0\H,4,1.07565,2,120.247,1,-179.511,0\C,4,1.38162,2,120.353,1,-0.110713,0\H,6,1.08012,4,120.158,2,-179.185,0\C,6,1.37886,4,119.695,2,0.405049,0\H,8,1.0807,6,119.691,4,179.663,0\C,8,1.38593,6,120.062,4,-1.38448,0\H,10,1.07782,8,119.515,6,-179.581,0\C,1,1.50968,2,119.643,3,-2.14719,0\H,12,1.09136,1,109.248,2,-145.58,0\H,12,1.09278,1,107.865,2,-29.7629,0\H,12,1.1,1,114.16,2,91.0933,0\\\@

 Total job time:  31007.50s(wall), 61507.55s(cpu) 
 Sun Sep 26 14:19:08 2021

        *************************************************************
        *                                                           *
        *  Thank you very much for using Q-Chem.  Have a nice day.  *
        *                                                           *
        *************************************************************


Done Job For Fragment 0
calling putenv with: QCSCRATCH=/global/cscratch1/sd/meili 
calling putenv with: QCLOCALSCR=/tmp 
calling putenv with: QCTHREADS=32 
Creating input file /tmp/qchem54729/Frg2.input
using default PutDataFrgm: nothing
calling putenv with: QCSCRATCH=/tmp/qchem54729/ 
calling putenv with: QCLOCALSCR=/tmp/qchem54729/ 
Spawning Job For Fragment 1
                  Welcome to Q-Chem
     A Quantum Leap Into The Future Of Chemistry


 Q-Chem 5.2, Q-Chem, Inc., Pleasanton, CA (2019)

 License issued to: National Energy Research Scientific Computing Center

 Yihan Shao,  Zhengting Gan,  E. Epifanovsky,  A. T. B. Gilbert,  M. Wormit,  
 J. Kussmann,  A. W. Lange,  A. Behn,  Jia Deng,  Xintian Feng,  D. Ghosh,  
 M. Goldey,  P. R. Horn,  L. D. Jacobson,  I. Kaliman,  T. Kus,  A. Landau,  
 Jie Liu,  E. I. Proynov,  R. M. Richard,  R. P. Steele,  E. J. Sundstrom,  
 H. L. Woodcock III,  P. M. Zimmerman,  D. Zuev,  B. Albrecht,  E. Alguire,  
 S. A. Baeppler,  D. Barton,  Z. Benda,  Y. A. Bernard,  E. J. Berquist,  
 K. B. Bravaya,  H. Burton,  D. Casanova,  Chun-Min Chang,  Yunqing Chen,  
 A. Chien,  K. D. Closser,  M. P. Coons,  S. Coriani,  S. Dasgupta,  
 A. L. Dempwolff,  M. Diedenhofen,  Hainam Do,  R. G. Edgar,  Po-Tung Fang,  
 S. Faraji,  S. Fatehi,  Qingguo Feng,  K. D. Fenk,  J. Fosso-Tande,  
 J. Gayvert,  Qinghui Ge,  A. Ghysels,  G. Gidofalvi,  J. Gomes,  
 J. Gonthier,  A. Gunina,  D. Hait,  M. W. D. Hanson-Heine,  
 P. H. P. Harbach,  A. W. Hauser,  M. F. Herbst,  J. E. Herr,  
 E. G. Hohenstein,  Z. C. Holden,  Kerwin Hui,  B. C. Huynh,  T.-C. Jagau,  
 Hyunjun Ji,  B. Kaduk,  K. Khistyaev,  Jaehoon Kim,  P. Klunzinger,  K. Koh,  
 D. Kosenkov,  L. Koulias,  T. Kowalczyk,  C. M. Krauter,  A. Kunitsa,  
 Ka Un Lao,  A. Laurent,  K. V. Lawler,  Joonho Lee,  D. Lefrancois,  
 S. Lehtola,  D. S. Levine,  Yi-Pei Li,  You-Sheng Lin,  Fenglai Liu,  
 E. Livshits,  A. Luenser,  P. Manohar,  E. Mansoor,  S. F. Manzer,  
 Shan-Ping Mao,  Yuezhi Mao,  N. Mardirossian,  A. V. Marenich,  
 T. Markovich,  L. A. Martinez-Martinez,  S. A. Maurer,  N. J. Mayhall,  
 S. C. McKenzie,  J.-M. Mewes,  P. Morgante,  A. F. Morrison,  
 J. W. Mullinax,  K. Nanda,  T. S. Nguyen-Beck,  R. Olivares-Amaya,  
 J. A. Parkhill,  Zheng Pei,  T. M. Perrine,  F. Plasser,  P. Pokhilko,  
 S. Prager,  A. Prociuk,  E. Ramos,  D. R. Rehn,  F. Rob,  M. Scheurer,  
 M. Schneider,  N. Sergueev,  S. M. Sharada,  S. Sharma,  D. W. Small,  
 T. Stauch,  T. Stein,  Yu-Chuan Su,  A. J. W. Thom,  A. Tkatchenko,  
 T. Tsuchimochi,  N. M. Tubman,  L. Vogt,  M. L. Vidal,  O. Vydrov,  
 M. A. Watson,  J. Wenzel,  M. de Wergifosse,  T. A. Wesolowski,  A. White,  
 J. Witte,  A. Yamada,  Jun Yang,  K. Yao,  S. Yeganeh,  S. R. Yost,  
 Zhi-Qiang You,  A. Zech,  Igor Ying Zhang,  Xing Zhang,  Yan Zhao,  
 Ying Zhu,  B. R. Brooks,  G. K. L. Chan,  C. J. Cramer,  M. S. Gordon,  
 W. J. Hehre,  A. Klamt,  M. W. Schmidt,  C. D. Sherrill,  D. G. Truhlar,  
 A. Aspuru-Guzik,  R. Baer,  A. T. Bell,  N. A. Besley,  Jeng-Da Chai,  
 A. E. DePrince, III,  R. A. DiStasio Jr.,  A. Dreuw,  B. D. Dunietz,  
 T. R. Furlani,  Chao-Ping Hsu,  Yousung Jung,  Jing Kong,  D. S. Lambrecht,  
 WanZhen Liang,  C. Ochsenfeld,  V. A. Rassolov,  L. V. Slipchenko,  
 J. E. Subotnik,  T. Van Voorhis,  J. M. Herbert,  A. I. Krylov,  
 P. M. W. Gill,  M. Head-Gordon

 Contributors to earlier versions of Q-Chem not listed above: 
 R. D. Adamson,  B. Austin,  J. Baker,  G. J. O. Beran,  K. Brandhorst,  
 S. T. Brown,  E. F. C. Byrd,  A. K. Chakraborty,  C.-L. Cheng,  
 Siu Hung Chien,  D. M. Chipman,  D. L. Crittenden,  H. Dachsel,  
 R. J. Doerksen,  A. D. Dutoi,  L. Fusti-Molnar,  W. A. Goddard III,  
 A. Golubeva-Zadorozhnaya,  S. R. Gwaltney,  G. Hawkins,  A. Heyden,  
 S. Hirata,  G. Kedziora,  F. J. Keil,  C. Kelley,  Jihan Kim,  R. A. King,  
 R. Z. Khaliullin,  P. P. Korambath,  W. Kurlancheek,  A. M. Lee,  M. S. Lee,  
 S. V. Levchenko,  Ching Yeh Lin,  D. Liotard,  R. C. Lochan,  I. Lotan,  
 P. E. Maslen,  N. Nair,  D. P. O'Neill,  D. Neuhauser,  E. Neuscamman,  
 C. M. Oana,  R. Olson,  B. Peters,  R. Peverati,  P. A. Pieniazek,  
 Y. M. Rhee,  J. Ritchie,  M. A. Rohrdanz,  E. Rosta,  N. J. Russ,  
 H. F. Schaefer III,  N. E. Schultz,  N. Shenvi,  A. C. Simmonett,  A. Sodt,  
 D. Stuck,  K. S. Thanthiriwatte,  V. Vanovschi,  Tao Wang,  A. Warshel,  
 C. F. Williams,  Q. Wu,  X. Xu,  W. Zhang

 Please cite Q-Chem as follows:
 Y. Shao et al., Mol. Phys. 113, 184-215 (2015)
 DOI: 10.1080/00268976.2014.952696

 Q-Chem 5.2.0 for Intel X86 EM64T Linux

 Parts of Q-Chem use Armadillo 8.300.2 (Tropical Shenanigans).
 http://arma.sourceforge.net/

 Q-Chem begins on Sun Sep 26 14:19:12 2021  

Host: cori01
0

     Scratch files written to /tmp/qchem54729//Frg2//
 May1019 |scratch|qcdevops|jenkins|workspace|build_RNUM -1
Processing $rem in /global/common/cori/software/qchem/5.2/config/preferences:
	 MEM_TOTAL  96000 
NAlpha2: 50
NElect   50
Mult     1
Symmetry turned off for PCM/SM12/SMD calculation

Checking the input file for inconsistencies... 	...done.

--------------------------------------------------------------
User input:
--------------------------------------------------------------
$molecule
0 1
 6	-1.2679242936	0.9767178190	-3.1905749522
 6	-2.1569242936	1.8727178190	0.3734250478
 6	-3.0869242936	0.8977178190	0.6844250478
 6	-1.5669242936	1.8987178190	-0.8805749522
 6	-1.8969242936	0.9397178190	-1.8275749522
 6	-3.4279242936	-0.0582821810	-0.2605749522
 6	-2.8389242936	-0.0312821810	-1.5135749522
 1	-1.8909242936	2.6147178190	1.1124250478
 1	-3.5659242936	0.9127178190	1.6514250478
 1	-0.8339242936	2.6517178190	-1.1105749522
 1	-4.1579242936	-0.8192821810	-0.0205749522
 1	-1.1829242936	-0.0402821810	-3.5785749522
 1	-0.2529242936	1.3677178190	-3.1015749522
 1	-3.1069242936	-0.7842821810	-2.2415749522
 1	-1.8270742936	1.6022478190	-3.9019549522
$end
$rem
EDA2		1
METHOD		WB97X-V
BASIS		DEF2-TZVPD
XC_GRID		000099000590
NL_GRID		1
UNRESTRICTED		FALSE
MAX_SCF_CYCLES		200
SYMMETRY		FALSE
SYM_IGNORE		TRUE
BASIS_LIN_DEP_THRESH		6
THRESH		14
SCF_CONVERGENCE		8
SCF_PRINT_FRGM		TRUE
SOLVENT_METHOD		PCM
!required keywords
JOBTYPE		SP
SYM_IGNORE		TRUE
SUBSYSTEM		TRUE
GEN_SCFMAN		TRUE
CHILD_INSTRUCTION		2
SYM_IGNORE		TRUE
SCFMI		0
RI_K 0		
PARI_K 0		
MIN_PARI_K 0		
IARI_K 0		
OCC_RI_K 0		
PURECART		1111
MEM_STATIC		2000
MEM_TOTAL		96000
GUI		0
CHILD_MP		1
CHILD_MP_ORDERS		232
FRZ_RELAX		0
FRZ_RELAX_METHOD		0
EDA_CLS_ELEC		1
EDA_CLS_DISP		0
FRZ_ORTHO_DECOMP		1
EDA2		FALSE
FRGM_METHOD		FALSE
CIS_N_ROOTS  0
LOCAL_CIS    0
CIS_RLX_DNS  1
$end
$pcm
THEORY                  CPCM
METHOD                  SWIG
SOLVER                  INVERSION
RADII                   UFF
HPOINTS                 302
HEAVYPOINTS             302
PRINTLEVEL              0
$end
$solvent
DIELECTRIC              78.390000 ! water
$end
--------------------------------------------------------------
 ----------------------------------------------------------------
             Standard Nuclear Orientation (Angstroms)
    I     Atom           X                Y                Z
 ----------------------------------------------------------------
    1      C      -1.2679242936     0.9767178190    -3.1905749522
    2      C      -2.1569242936     1.8727178190     0.3734250478
    3      C      -3.0869242936     0.8977178190     0.6844250478
    4      C      -1.5669242936     1.8987178190    -0.8805749522
    5      C      -1.8969242936     0.9397178190    -1.8275749522
    6      C      -3.4279242936    -0.0582821810    -0.2605749522
    7      C      -2.8389242936    -0.0312821810    -1.5135749522
    8      H      -1.8909242936     2.6147178190     1.1124250478
    9      H      -3.5659242936     0.9127178190     1.6514250478
   10      H      -0.8339242936     2.6517178190    -1.1105749522
   11      H      -4.1579242936    -0.8192821810    -0.0205749522
   12      H      -1.1829242936    -0.0402821810    -3.5785749522
   13      H      -0.2529242936     1.3677178190    -3.1015749522
   14      H      -3.1069242936    -0.7842821810    -2.2415749522
   15      H      -1.8270742936     1.6022478190    -3.9019549522
 ----------------------------------------------------------------
 Nuclear Repulsion Energy =         270.87410942 hartrees
 There are       25 alpha and       25 beta electrons
 Requested basis set is def2-TZVPD
 There are 131 shells and 331 basis functions

 Total QAlloc Memory Limit  96000 MB
 Mega-Array Size      1956 MB
 MEM_STATIC part      2000 MB
 Discretize the solute cavity surface with Lebedev spheres
	Using 302 Lebedev grid points for each H atom
	Using 302 Lebedev grid points for other atoms
	Atomic van der Waals radii will be scaled by 1.20
 Remove points where switching function is < 1.0e-08
 Keep 1796 surface tesserae and discard 2734 interior tesserae
 Molecular Surface Area = 177.694 Angst**2

                       Distance Matrix (Angstroms)
             C (  1)   C (  2)   C (  3)   C (  4)   C (  5)   C (  6)
   C (  2)  3.780904
   C (  3)  4.281428  1.382840
   C (  4)  2.505112  1.386107  2.400339
   C (  5)  1.501592  2.404681  2.779929  1.387584
   C (  6)  3.784406  2.397115  1.386810  2.770843  2.407375
   C (  7)  2.509270  2.766064  2.399114  2.396575  1.388813  1.384796
   H (  8)  4.646179  1.080482  2.135811  2.142354  3.383676  3.375267
   H (  9)  5.360025  2.130766  1.079238  3.373310  3.858721  2.148867
   H ( 10)  2.705620  2.135281  3.372618  1.075731  2.138925  3.846484
   H ( 11)  4.650443  3.377292  2.142931  3.852325  3.386953  1.081490
   H ( 12)  1.091814  4.497394  4.762166  3.344605  2.129835  4.006179
   H ( 13)  1.091342  3.994479  4.752500  2.634653  2.123440  4.492814
   H ( 14)  2.717286  3.847125  3.375056  3.379706  2.146549  2.134122
   H ( 15)  1.099999  4.296607  4.808167  3.047017  2.178733  4.310421
             C (  7)   H (  8)   H (  9)   H ( 10)   H ( 11)   H ( 12)
   H (  8)  3.846543
   H (  9)  3.381847  2.448050
   H ( 10)  3.373562  2.461777  4.256359
   H ( 11)  2.142371  4.267943  2.479087  4.927973
   H ( 12)  2.647006  5.436522  5.825787  3.668745  4.702853
   H ( 13)  3.341608  4.689973  5.811541  2.439323  5.433650  1.753537
   H ( 14)  1.081118  4.927593  4.271527  4.272211  2.457370  2.458227
   H ( 15)  3.065391  5.115973  5.859956  3.143173  5.134372  1.793714
             H ( 13)   H ( 14)
   H ( 14)  3.676414
   H ( 15)  1.781449  3.176540
 
 A cutoff of  1.0D-14 yielded   8363 shell pairs
 There are     54511 function pairs (     69466 Cartesian)
 Smallest overlap matrix eigenvalue = 5.26E-07
 Linear dependence detected in AO basis
 Tighter screening thresholds may be required for diffuse basis sets
 Use S2THRESH > 14 and THRESH = 14 in case of SCF convergence issues
 Number of orthogonalized atomic orbitals = 330
 Maximum deviation from orthogonality = 1.921E-10

 Scale SEOQF with 1.000000e-01/1.000000e-01/1.000000e-01

 Standard Electronic Orientation quadrupole field applied
 Guess from superposition of atomic densities
 Warning:  Energy on first SCF cycle will be non-variational
 SAD guess density has 49.913408 electrons

 -----------------------------------------------------------------------
  General SCF calculation program by
  Eric Jon Sundstrom, Paul Horn, Yuezhi Mao, Dmitri Zuev, Alec White,
  David Stuck, Shaama M.S., Shane Yost, Joonho Lee, David Small,
  Daniel Levine, Susi Lehtola, Hugh Burton, Evgeny Epifanovsky
 -----------------------------------------------------------------------
 Exchange:     0.1670 Hartree-Fock + 1.0000 wB97X-V + LR-HF
 Correlation:  1.0000 wB97X-V
 Using Euler-Maclaurin-Lebedev (99,590) quadrature formula
 Nonlocal Correlation:  VV10 with C = 0.0100 and b = 6.00 and scale = 1.00000
 Grid used for NLC:  SG-1 standard quadrature
Energy prior to optimization (guess energy) = -271.518289980468
Begin Timing: Total SCF Calculation
begin iterations for algorithm: DIIS         
the SCF tolerance is set to 1.00e-08
    1    -271.5182899805      2.00e-03     00000 
    2    -271.5580354468      1.29e-03     00000 
    3    -271.5810984303      1.40e-04     00000 
    4    -271.5815104685      4.97e-05     00000 
    5    -271.5815463784      1.63e-05     00000 
    6    -271.5815509500      4.13e-06     00000 
    7    -271.5815512806      1.91e-06     00000 
    8    -271.5815513423      3.47e-07     00000 
    9    -271.5815513454      6.23e-08     00000 
   10    -271.5815513456      3.19e-08     00000 
   11    -271.5815513456      5.95e-09     00000 Convergence criterion met
Timing for Total SCF: 1334.00s (wall), 2648.45s (cpu)

************** Final PCM Free Energy Summary **************
 G_electrostatic  =      -0.00238615 hartree =      -1.49733440 kcal/mol
 G_cavitation     =       0.00000000 hartree =       0.00000000 kcal/mol
 G_dispersion     =       0.00000000 hartree =       0.00000000 kcal/mol
 G_repulsion      =       0.00000000 hartree =       0.00000000 kcal/mol
 --------------------------------------------------
 Non-electrostatic Free Energy =       0.00000000 hartree =       0.00000000 kcal/mol
 Total                         =      -0.00238615 hartree =      -1.49733440 kcal/mol
 --------------------------------------------------
 SCF Energy (H0 + V/2)                       =    -271.58155135 
 Solute Internal Energy (H0)                 =    -271.57916519 
 Total Free Energy (H0 + V/2 + non-elec)     =    -271.58155135 hartree
                                             = -170419.99561822 kcal/mol
***********************************************************

E_pcm = -0.0023861543
Multipole orders to be included
        2
        3
computing dipole RHS
computing quadrupole RHS
total number of RHS in solve_reponses: 8
RHS batch sizes
        8
Beginning Block Conjugate Gradient Iterations. Batch Number: 0
computing hessian-vector products by finite difference
              1      5.72e-01     00000 Conjugate Gradient Iteration
computing hessian-vector products by finite difference
              2      1.83e-01     00000 Conjugate Gradient Iteration
computing hessian-vector products by finite difference
              3      4.22e-02     00000 Conjugate Gradient Iteration
computing hessian-vector products by finite difference
              4      9.73e-03     00000 Conjugate Gradient Iteration
computing hessian-vector products by finite difference
              5      2.22e-03     00000 Conjugate Gradient Iteration
computing hessian-vector products by finite difference
              6      6.02e-04     00000 Conjugate Gradient Iteration
computing hessian-vector products by finite difference
              7      1.63e-04     00000 Conjugate Gradient Iteration
computing hessian-vector products by finite difference
              8      2.57e-05     00000 Conjugate Gradient Iteration
computing hessian-vector products by finite difference
              9      3.91e-06     00000 Conjugate Gradient Iteration
computing hessian-vector products by finite difference
             10      1.23e-06     00000 Conjugate Gradient Iteration
computing hessian-vector products by finite difference
             11      2.92e-07     00000 Conjugate Gradient Iteration
computing hessian-vector products by finite difference
             12      4.95e-08     00000 Conjugate Gradient Iteration
computing hessian-vector products by finite difference
             13      9.13e-09     00000 CG Converged
batch 0 complete
Done Calculating Responses
TESTING ORTHOGONALIZATION OF MULTIPOLE BASIS
Multipole virts passed orthogonality test
Virts Per Order
           75
          125
 
 --------------------------------------------------------------
 
                    Orbital Energies (a.u.)
 --------------------------------------------------------------
 
 Alpha MOs
 -- Occupied --
-10.2799 -10.2717 -10.2708 -10.2681 -10.2680 -10.2673 -10.2621  -1.0005
 -0.9086  -0.8810  -0.8139  -0.7315  -0.7067  -0.6318  -0.5756  -0.5666
 -0.5373  -0.5314  -0.5145  -0.4872  -0.4754  -0.4417  -0.4408  -0.3505
 -0.3389
 -- Virtual --
  0.0632   0.0646   0.0688   0.0790   0.0845   0.1045   0.1105   0.1137
  0.1356   0.1520   0.1658   0.1667   0.1876   0.1890   0.1948   0.2013
  0.2219   0.2246   0.2341   0.2412   0.2483   0.2582   0.2605   0.2698
  0.2796   0.2808   0.2833   0.2925   0.2936   0.3014   0.3046   0.3108
  0.3213   0.3241   0.3325   0.3339   0.3492   0.3540   0.3666   0.3728
  0.3793   0.3819   0.3832   0.3888   0.3891   0.4013   0.4048   0.4091
  0.4093   0.4286   0.4292   0.4368   0.4424   0.4489   0.4516   0.4529
  0.4625   0.4697   0.4744   0.4814   0.4934   0.4958   0.5126   0.5175
  0.5177   0.5268   0.5353   0.5369   0.5408   0.5478   0.5489   0.5660
  0.5845   0.5892   0.5960   0.5965   0.6028   0.6230   0.6425   0.6449
  0.6618   0.6728   0.6843   0.6849   0.6865   0.6984   0.7207   0.7244
  0.7289   0.7303   0.7431   0.7606   0.7643   0.7658   0.7765   0.7870
  0.7895   0.7970   0.8009   0.8027   0.8083   0.8228   0.8259   0.8334
  0.8359   0.8373   0.8401   0.8500   0.8604   0.8758   0.8877   0.8958
  0.9087   0.9162   0.9347   0.9500   0.9515   1.0144   1.0212   1.0424
  1.0446   1.0603   1.0719   1.0789   1.0894   1.0941   1.1067   1.1449
  1.1691   1.1801   1.2500   1.2786   1.2967   1.3196   1.3500   1.3510
  1.3820   1.4365   1.4515   1.4606   1.4688   1.4879   1.5277   1.5424
  1.5997   1.6020   1.6209   1.6227   1.6693   1.6834   1.7357   1.7782
  1.7944   1.7962   1.8071   1.8107   1.8371   1.8702   1.8834   1.9131
  1.9206   1.9300   1.9556   1.9578   1.9839   1.9978   2.0118   2.0283
  2.0314   2.0452   2.0712   2.0963   2.1145   2.1246   2.1711   2.1776
  2.1946   2.2350   2.2403   2.2658   2.2872   2.3150   2.3951   2.4060
  2.4113   2.4115   2.4831   2.5070   2.5381   2.5577   2.5676   2.6066
  2.6143   2.6249   2.6679   2.6721   2.7017   2.7143   2.7604   2.7752
  2.7935   2.8176   2.8256   2.8519   2.8639   2.9051   2.9070   2.9177
  2.9415   2.9466   2.9623   2.9771   2.9926   3.0153   3.0205   3.0557
  3.0613   3.0902   3.1030   3.1404   3.1824   3.1866   3.2031   3.2243
  3.2275   3.2389   3.2927   3.3131   3.3306   3.3588   3.3677   3.3812
  3.4010   3.4475   3.4498   3.4517   3.4590   3.4727   3.4984   3.5065
  3.5101   3.5326   3.5413   3.5454   3.5676   3.5791   3.5952   3.6081
  3.6157   3.6370   3.6574   3.6966   3.7188   3.7575   3.7859   3.8183
  3.8366   3.8915   3.9115   3.9706   3.9728   3.9991   4.0436   4.0637
  4.1172   4.2030   4.2752   4.2892   4.3068   4.3263   4.3303   4.3311
  4.3638   4.3832   4.4000   4.4149   4.4518   4.4581   4.4882   4.5386
  4.6049   4.6399   4.7650   4.7687   4.8431   4.9009   4.9042   4.9531
  5.0380   5.0562   5.1771   5.2724   5.3941   5.4027   5.5122   5.5335
  5.6850   5.8536  22.5712  22.6700  22.9069  22.9205  23.0401  23.1052
 23.4541
 --------------------------------------------------------------
 
          Ground-State Mulliken Net Atomic Charges

     Atom                 Charge (a.u.)
  ----------------------------------------
      1 C                    -1.042476
      2 C                    -0.485263
      3 C                    -0.476272
      4 C                    -0.376738
      5 C                     0.894090
      6 C                    -0.500699
      7 C                    -0.366351
      8 H                     0.308215
      9 H                     0.331052
     10 H                     0.325609
     11 H                     0.309554
     12 H                     0.274409
     13 H                     0.273437
     14 H                     0.320928
     15 H                     0.210504
  ----------------------------------------
  Sum of atomic charges =     0.000000

 -----------------------------------------------------------------
                    Cartesian Multipole Moments
 -----------------------------------------------------------------
    Charge (ESU x 10^10)
                -0.0000
    Dipole Moment (Debye)
         X       0.1803      Y       0.0415      Z      -0.4309
       Tot       0.4690
    Quadrupole Moments (Debye-Ang)
        XX     -43.2859     XY       3.4724     YY     -41.0014
        XZ      -1.2017     YZ       1.1490     ZZ     -38.2800
    Octopole Moments (Debye-Ang^2)
       XXX     296.1833    XXY     -56.9715    XYY     100.2384
       YYY    -115.0481    XXZ      50.9576    XYZ      -6.2985
       YYZ      43.3205    XZZ      88.6273    YZZ     -36.3405
       ZZZ     120.1839
    Hexadecapole Moments (Debye-Ang^3)
      XXXX   -1594.4451   XXXY     289.4193   XXYY    -351.5976
      XYYY     226.2919   YYYY    -435.6202   XXXZ    -240.9100
      XXYZ      52.4924   XYYZ     -72.3327   YYYZ     102.1492
      XXZZ    -375.7210   XYZZ      67.6461   YYZZ    -194.8112
      XZZZ    -187.3169   YZZZ      94.2869   ZZZZ    -772.1405
 -----------------------------------------------------------------
Archival summary:
1\1\nid00557\SP\ProcedureUnspecified\BasisUnspecified\78\meili\SunSep2622:38:352021SunSep2622:38:352021\0\\#,ProcedureUnspecified,BasisUnspecified,\\0,1\C\C,1,1.38758\H,2,1.07573,1,119.994\C,2,1.38611,1,120.215,3,-178.555,0\H,4,1.08048,2,120.073,1,179.388,0\C,4,1.38284,2,120.196,1,-0.570192,0\H,6,1.07924,4,119.354,2,-177.66,0\C,6,1.38681,4,119.878,2,0.131219,0\H,8,1.08149,6,119.988,4,-179.759,0\C,8,1.3848,6,119.904,4,-0.178231,0\H,10,1.08112,8,119.359,6,179.643,0\C,1,1.50159,2,120.188,3,-2.07124,0\H,12,1.09134,1,108.929,2,32.7617,0\H,12,1.09181,1,109.404,2,149.26,0\H,12,1.1,1,112.837,2,-88.1357,0\\\@

 Total job time:  29967.34s(wall), 59362.00s(cpu) 
 Sun Sep 26 22:38:39 2021

        *************************************************************
        *                                                           *
        *  Thank you very much for using Q-Chem.  Have a nice day.  *
        *                                                           *
        *************************************************************


Done Job For Fragment 1
calling putenv with: QCSCRATCH=/global/cscratch1/sd/meili 
calling putenv with: QCLOCALSCR=/tmp 
calling putenv with: QCTHREADS=32 
Doing General SCFMI
 Exchange:     0.1670 Hartree-Fock + 1.0000 wB97X-V + LR-HF
 Correlation:  1.0000 wB97X-V
 Using Euler-Maclaurin-Lebedev (99,590) quadrature formula
 Nonlocal Correlation:  VV10 with C = 0.0100 and b = 6.00 and scale = 1.00000
 Grid used for NLC:  SG-1 standard quadrature
performing fock build before subrot guess so that all methods have access
Printing subrot_rss_gen Method Specification:
Occupied Subspace Method is 0
Virtual Subspace Method is 0
Energy of the unrelaxed supersystem initial determinant -543.160044470536
performing fock build before subrot guess so that all methods have access
Printing subrot_rss_gen Method Specification:
Occupied Subspace Method is 0
Virtual Subspace Method is 0
Energy of the unrelaxed supersystem initial determinant w/ solvent -543.164542470190
write pseudocanon occs and virts to disk
write pseudocanon orbital energies to disk
Tolerance of ortho_decomp_scf: 1.00e-06
GDM subspace size: 20
Beginning the Orthogonal Decomposition of the Initial Supersystem Wavefunction
    1    -543.1420661397      1.89e-02     ortho_decomp Preconditoned Steepest Descent
    2    -543.1436074059      4.76e-04     ortho_decomp BFGS Step
    3    -543.1436123221      3.79e-05     ortho_decomp BFGS Step
    4    -543.1436123332      1.61e-06     ortho_decomp BFGS Step
    5    -543.1436123332      4.93e-08     ortho_decomp 00000 Convergence criterion met
 Hartree-Fock
 Hartree-Fock
 Hartree-Fock
Doing General SCFMI
 Exchange:     0.1670 Hartree-Fock + 1.0000 wB97X-V + LR-HF
 Correlation:  1.0000 wB97X-V
 Using Euler-Maclaurin-Lebedev (99,590) quadrature formula
 Nonlocal Correlation:  VV10 with C = 0.0100 and b = 6.00 and scale = 1.00000
 Grid used for NLC:  SG-1 standard quadrature
performing fock build at end of subrot_r(subrot) constructor so that all methods have access
<S^2> of initial wavefunction before polarization iterations 0.0000000000
Beginning iterations for the determination of the polarized wavefunction
Energy prior to optimization (guess energy) = -543.164542470190
Begin Timing: Total SCF Calculation
begin iterations for algorithm: DIIS         
the SCF tolerance is set to 1.00e-08
    1    -543.1645424702      5.05e-05     00000 
    2    -543.1648012204      1.98e-05     00000 
    3    -543.1648238787      1.15e-05     00000 
    4    -543.1648325626      2.77e-06     00000 
    5    -543.1648333168      1.14e-06     00000 
    6    -543.1648334643      5.34e-07     00000 
    7    -543.1648334932      2.11e-07     00000 
    8    -543.1648334981      1.02e-07     00000 
    9    -543.1648334989      5.39e-08     00000 
   10    -543.1648334991      2.47e-08     00000 
   11    -543.1648334991      1.21e-08     00000 
   12    -543.1648334991      5.52e-09     00000 Convergence criterion met
write pseudocanon occs and virts to disk
write pseudocanon orbital energies to disk
Timing for Total SCF: 10232.00s (wall), 20284.53s (cpu)
<S^2> of polarized wavefunction after polarization iterations 0.0000000000
relaxing scfmi constraint to allow all rotations in the entire AO span
Doing General SCFMI
 Exchange:     0.1670 Hartree-Fock + 1.0000 wB97X-V + LR-HF
 Correlation:  1.0000 wB97X-V
 Using Euler-Maclaurin-Lebedev (99,590) quadrature formula
 Nonlocal Correlation:  VV10 with C = 0.0100 and b = 6.00 and scale = 1.00000
 Grid used for NLC:  SG-1 standard quadrature
performing fock build at end of subrot_r(subrot) constructor so that all methods have access
<S^2> of polarized wavefunction before ct-allowed iterations 0.0000000000
Beginning iterations for the determination of the CT-Allowed wavefunction
Energy prior to optimization (guess energy) = -543.164833499112
Begin Timing: Total SCF Calculation
begin iterations for algorithm: DIIS         
the SCF tolerance is set to 1.00e-08
    1    -543.1648334991      6.74e-05     00000 
    2    -543.1658128646      7.32e-06     00000 
    3    -543.1658429126      1.39e-06     00000 
    4    -543.1658438509      8.90e-07     00000 
    5    -543.1658440366      1.43e-07     00000 
    6    -543.1658440463      6.71e-08     00000 
    7    -543.1658440477      1.45e-08     00000 
    8    -543.1658440478      5.59e-09     00000 Convergence criterion met
write pseudocanon occs and virts to disk
write pseudocanon orbital energies to disk
Timing for Total SCF: 6498.00s (wall), 12937.39s (cpu)
<S^2> of ct_allowed wavefunction after ct-allowed iterations 0.0000000000

================================
        Results of EDA2         
================================
Basic EDA Quantities
--------------------
Fragment Energies (Ha):
1 -271.5810112460
2 -271.5815513456
--------------------
  E_prp (kJ/mol) = 0.0000
  E_sol (kJ/mol) = 0.6633
  E_frz (kJ/mol) = -5.8615
  E_pol (kJ/mol) = -0.7641
  E_vct (kJ/mol) = -2.6532
  E_int (kJ/mol) = -8.6156
--------------------


Initial Wavefunction Decomposition
--------------------
  --------------------
  Orthogonal Fragment Subspace Decomposition:
  --------------------
     E_elec   (ELEC)   (kJ/mol) = -19.2060
     E_pauli  (PAULI)  (kJ/mol) = 29.0319
     E_disp   (DISP)   (kJ/mol) = -15.6874
     --------------------
     Terms summing to E_pauli:
     --------------------
        E_kep_pauli       (kJ/mol) = 37.2816
        E_disp_free_pauli (kJ/mol) = -8.2497
  --------------------
  Classical Frozen Decomposition:
  --------------------
     E_cls_elec  (CLS ELEC)  (kJ/mol) = -8.1750
     E_cls_pauli (CLS PAULI) (kJ/mol) = 2.3135
    [E_mod_pauli (MOD PAULI) (kJ/mol) = 18.0009 (CLS PAULI - DISP from orthogonal decomposition) ]
  --------------------
--------------------

Simplified EDA Summary (kJ/mol)
--------------------
 PREPARATION     0.0000
 SOLVATION       0.6633
 FROZEN          9.8259      (does not include dispersion)
[PAULI           29.0319]     (if this is negligible, then frozen describes electrostatics)
 DISPERSION      -15.6874
 POLARIZATION    -0.7641
 CHARGE TRANSFER -2.6532
 TOTAL           -8.6156     (PRP + SOL + FRZ + DISP + POL + CT)
--------------------
 
 --------------------------------------------------------------
 
                    Orbital Energies (a.u.)
 --------------------------------------------------------------
 
 Alpha MOs
 -- Occupied --
-10.2811 -10.2793 -10.2734 -10.2720 -10.2696 -10.2696 -10.2693 -10.2683
-10.2667 -10.2657 -10.2653 -10.2648 -10.2629 -10.2625  -1.0023  -0.9995
 -0.9099  -0.9071  -0.8828  -0.8789  -0.8150  -0.8133  -0.7329  -0.7300
 -0.7080  -0.7053  -0.6331  -0.6312  -0.5768  -0.5743  -0.5677  -0.5656
 -0.5404  -0.5357  -0.5326  -0.5271  -0.5156  -0.5136  -0.4881  -0.4866
 -0.4769  -0.4743  -0.4430  -0.4420  -0.4399  -0.4375  -0.3536  -0.3474
 -0.3410  -0.3373
 -- Virtual --
  0.0559   0.0608   0.0616   0.0664   0.0699   0.0732   0.0739   0.0815
  0.0874   0.0972   0.1018   0.1045   0.1140   0.1158   0.1218   0.1271
  0.1347   0.1478   0.1530   0.1582   0.1656   0.1661   0.1685   0.1775
  0.1825   0.1884   0.1910   0.1998   0.2058   0.2136   0.2153   0.2194
  0.2241   0.2292   0.2319   0.2337   0.2404   0.2461   0.2508   0.2550
  0.2585   0.2616   0.2660   0.2709   0.2716   0.2759   0.2778   0.2817
  0.2841   0.2855   0.2871   0.2934   0.2946   0.2969   0.2988   0.3033
  0.3060   0.3118   0.3197   0.3209   0.3230   0.3276   0.3307   0.3340
  0.3375   0.3398   0.3476   0.3492   0.3537   0.3561   0.3580   0.3613
  0.3616   0.3665   0.3721   0.3747   0.3775   0.3795   0.3818   0.3847
  0.3856   0.3919   0.3940   0.3965   0.3983   0.4047   0.4091   0.4097
  0.4133   0.4166   0.4224   0.4251   0.4295   0.4333   0.4360   0.4386
  0.4399   0.4426   0.4437   0.4465   0.4513   0.4546   0.4571   0.4631
  0.4655   0.4694   0.4718   0.4752   0.4770   0.4792   0.4854   0.4906
  0.4948   0.4972   0.4978   0.5090   0.5092   0.5126   0.5144   0.5189
  0.5235   0.5240   0.5320   0.5356   0.5385   0.5398   0.5447   0.5478
  0.5514   0.5552   0.5618   0.5675   0.5705   0.5738   0.5815   0.5853
  0.5889   0.5927   0.5991   0.6018   0.6064   0.6081   0.6111   0.6188
  0.6215   0.6315   0.6348   0.6373   0.6443   0.6522   0.6553   0.6590
  0.6609   0.6678   0.6739   0.6792   0.6810   0.6873   0.6898   0.6938
  0.6987   0.7022   0.7052   0.7087   0.7157   0.7197   0.7269   0.7325
  0.7342   0.7417   0.7465   0.7476   0.7517   0.7546   0.7568   0.7628
  0.7673   0.7686   0.7716   0.7762   0.7788   0.7843   0.7871   0.7915
  0.7956   0.7984   0.8003   0.8034   0.8040   0.8088   0.8157   0.8203
  0.8227   0.8268   0.8293   0.8319   0.8358   0.8395   0.8410   0.8434
  0.8478   0.8535   0.8571   0.8614   0.8624   0.8654   0.8729   0.8782
  0.8823   0.8895   0.8934   0.8977   0.9020   0.9109   0.9155   0.9194
  0.9247   0.9333   0.9400   0.9470   0.9483   0.9533   0.9631   0.9752
  0.9830   0.9912   0.9997   1.0011   1.0094   1.0163   1.0267   1.0306
  1.0390   1.0526   1.0653   1.0704   1.0733   1.0783   1.0825   1.0880
  1.0932   1.1013   1.1062   1.1103   1.1179   1.1271   1.1310   1.1440
  1.1446   1.1502   1.1647   1.1887   1.1911   1.2097   1.2112   1.2295
  1.2403   1.2715   1.2939   1.3161   1.3250   1.3304   1.3392   1.3434
  1.3566   1.3669   1.3776   1.3886   1.4011   1.4221   1.4280   1.4501
  1.4608   1.4682   1.4727   1.4755   1.4881   1.4919   1.5029   1.5118
  1.5197   1.5354   1.5394   1.5617   1.5663   1.5741   1.6024   1.6144
  1.6254   1.6331   1.6356   1.6457   1.6618   1.6759   1.6838   1.6926
  1.6979   1.7161   1.7529   1.7964   1.8020   1.8030   1.8057   1.8122
  1.8160   1.8182   1.8260   1.8379   1.8527   1.8686   1.8938   1.9001
  1.9036   1.9116   1.9225   1.9302   1.9372   1.9440   1.9521   1.9607
  1.9733   1.9780   1.9843   1.9890   1.9966   2.0048   2.0138   2.0222
  2.0327   2.0366   2.0401   2.0512   2.0554   2.0687   2.0762   2.0874
  2.0899   2.0985   2.1184   2.1249   2.1407   2.1521   2.1620   2.1715
  2.1808   2.1872   2.1949   2.2045   2.2247   2.2383   2.2426   2.2490
  2.2504   2.2697   2.2804   2.2950   2.3017   2.3162   2.3319   2.3514
  2.3587   2.4003   2.4073   2.4139   2.4174   2.4298   2.4346   2.4366
  2.4481   2.4632   2.5083   2.5121   2.5275   2.5405   2.5522   2.5667
  2.5802   2.5827   2.5944   2.6156   2.6197   2.6266   2.6301   2.6345
  2.6401   2.6469   2.6777   2.6932   2.7055   2.7162   2.7207   2.7261
  2.7389   2.7607   2.7669   2.7752   2.7904   2.7940   2.8123   2.8239
  2.8306   2.8378   2.8507   2.8615   2.8693   2.8751   2.8781   2.8844
  2.9161   2.9182   2.9236   2.9267   2.9361   2.9477   2.9555   2.9611
  2.9701   2.9747   2.9834   2.9957   3.0045   3.0067   3.0124   3.0268
  3.0307   3.0398   3.0480   3.0673   3.0775   3.0800   3.0870   3.0981
  3.1113   3.1134   3.1200   3.1313   3.1483   3.1660   3.1963   3.2020
  3.2090   3.2171   3.2228   3.2321   3.2470   3.2497   3.2597   3.2623
  3.2966   3.2987   3.3111   3.3242   3.3294   3.3418   3.3521   3.3689
  3.3744   3.3851   3.3895   3.4009   3.4142   3.4209   3.4287   3.4327
  3.4540   3.4643   3.4659   3.4693   3.4734   3.4781   3.4805   3.4925
  3.5004   3.5061   3.5136   3.5172   3.5317   3.5320   3.5444   3.5477
  3.5527   3.5576   3.5596   3.5640   3.5701   3.5781   3.5890   3.5930
  3.5981   3.6007   3.6189   3.6224   3.6254   3.6363   3.6417   3.6565
  3.6631   3.6672   3.6832   3.6957   3.7076   3.7131   3.7224   3.7305
  3.7415   3.7651   3.8034   3.8130   3.8243   3.8336   3.8468   3.8514
  3.8896   3.9032   3.9203   3.9338   3.9618   3.9761   3.9847   3.9943
  4.0093   4.0164   4.0489   4.0645   4.0713   4.0910   4.1261   4.1462
  4.2264   4.2397   4.2894   4.2968   4.3006   4.3084   4.3154   4.3258
  4.3385   4.3439   4.3476   4.3510   4.3550   4.3573   4.3804   4.3828
  4.3955   4.3990   4.4107   4.4174   4.4275   4.4470   4.4599   4.4641
  4.4675   4.4986   4.5076   4.5119   4.5496   4.5697   4.6172   4.6263
  4.6404   4.6601   4.7617   4.7728   4.7782   4.7858   4.8472   4.8533
  4.9051   4.9088   4.9173   4.9374   4.9647   4.9745   5.0499   5.0661
  5.0694   5.0877   5.1821   5.2048   5.2802   5.2983   5.3960   5.4039
  5.4159   5.4244   5.5178   5.5246   5.5347   5.5394   5.6919   5.7223
  5.8285   5.8566  22.6269  22.6649  22.6922  22.7504  22.9387  22.9479
 22.9717  22.9938  23.0685  23.0865  23.1311  23.1619  23.4615  23.4774
 --------------------------------------------------------------
 
          Ground-State Mulliken Net Atomic Charges

     Atom                 Charge (a.u.)
  ----------------------------------------
      1 C                    -1.074640
      2 C                     0.339505
      3 C                    -0.695067
      4 C                    -0.477337
      5 C                     0.566907
      6 C                    -0.536821
      7 C                    -0.352394
      8 H                    -0.010610
      9 H                     0.357061
     10 H                     0.363674
     11 H                     0.331862
     12 H                     0.275479
     13 H                     0.282559
     14 H                     0.346815
     15 H                     0.220251
     16 C                    -1.270886
     17 C                    -0.312598
     18 C                    -0.552480
     19 C                    -0.364982
     20 C                     1.039204
     21 C                    -0.527172
     22 C                    -0.367767
     23 H                     0.300245
     24 H                     0.336975
     25 H                     0.348703
     26 H                     0.310939
     27 H                     0.279781
     28 H                     0.261970
     29 H                     0.329819
     30 H                     0.251002
  ----------------------------------------
  Sum of atomic charges =     0.000000

 -----------------------------------------------------------------
                    Cartesian Multipole Moments
 -----------------------------------------------------------------
    Charge (ESU x 10^10)
                 0.0000
    Dipole Moment (Debye)
         X       0.3200      Y       0.2636      Z      -0.6665
       Tot       0.7849
    Quadrupole Moments (Debye-Ang)
        XX     -79.5496     XY       3.6412     YY     -83.1809
        XZ      -1.1803     YZ      -2.3478     ZZ     -81.2060
    Octopole Moments (Debye-Ang^2)
       XXX      27.2655    XXY     -22.2415    XYY       2.8564
       YYY       2.2374    XXZ      14.7562    XYZ     -12.2458
       YYZ      10.5467    XZZ     -10.7172    YZZ      -4.3313
       ZZZ      -7.5878
    Hexadecapole Moments (Debye-Ang^3)
      XXXX   -3414.8769   XXXY     490.2134   XXYY    -734.5753
      XYYY     453.6886   YYYY    -876.4315   XXXZ    -459.4794
      XXYZ      96.1150   XYYZ    -139.5514   YYYZ     268.2638
      XXZZ    -765.9497   XYZZ     131.8307   YYZZ    -312.8011
      XZZZ    -443.4731   YZZZ     264.8851   ZZZZ   -1217.0217
 -----------------------------------------------------------------
Archival summary:
1\1\nid00557\SP\ProcedureUnspecified\BasisUnspecified\1416\meili\MonSep2707:05:192021MonSep2707:05:192021\0\\#,ProcedureUnspecified,BasisUnspecified,\\0,1\C\H,1,1.07565\C,1,1.38162,2,119.397\H,3,1.08012,1,120.158,2,0.21985,0\C,3,1.37886,1,119.695,2,179.81,0\H,5,1.0807,3,119.691,1,179.663,0\C,1,1.38307,2,120.247,3,179.406,0\H,7,1.08094,1,119.342,2,0.364252,0\C,7,1.38491,1,120.429,2,-179.511,0\C,5,1.38593,3,120.062,1,-1.38448,0\H,10,1.07782,5,119.515,3,-179.581,0\C,9,1.50968,7,119.643,1,177.726,0\H,12,1.09136,9,109.248,7,-145.58,0\H,12,1.09278,9,107.865,7,-29.7629,0\H,12,1.1,9,114.16,7,91.0933,0\C,2,2.57719,1,159.444,3,137.99,0\H,16,1.07573,2,100.691,1,25.0704,0\C,16,1.38611,2,84.6772,1,-94.2682,0\H,18,1.08048,16,120.073,2,100.115,0\C,18,1.38284,16,120.196,2,-79.8432,0\H,20,1.07924,18,119.354,16,-177.66,0\C,20,1.38681,18,119.878,16,0.131219,0\H,22,1.08149,20,119.988,18,-179.759,0\C,22,1.3848,20,119.904,18,-0.178231,0\H,24,1.08112,22,119.359,20,179.643,0\C,16,1.38758,2,83.4849,1,144.443,0\C,26,1.50159,16,120.188,2,-100.679,0\H,27,1.09134,26,108.929,16,32.7617,0\H,27,1.09181,26,109.404,16,149.26,0\H,27,1.1,26,112.837,16,-88.1357,0\\\@

 Total job time:  91390.00s(wall), 60499.50s(cpu) 
 Mon Sep 27 07:05:22 2021

        *************************************************************
        *                                                           *
        *  Thank you very much for using Q-Chem.  Have a nice day.  *
        *                                                           *
        *************************************************************


