
Running Job 1 of 1 SSI-032GLU-035ARG-1_SMD_TZVPD.in
qchem SSI-032GLU-035ARG-1_SMD_TZVPD.in_27471.0 /tmp/qchem27471/ 0
/global/common/cori/software/qchem/5.2/exe/qcprog.exe_s SSI-032GLU-035ARG-1_SMD_TZVPD.in_27471.0 /tmp/qchem27471/
                  Welcome to Q-Chem
     A Quantum Leap Into The Future Of Chemistry


 Q-Chem 5.2, Q-Chem, Inc., Pleasanton, CA (2019)

 License issued to: National Energy Research Scientific Computing Center

 Yihan Shao,  Zhengting Gan,  E. Epifanovsky,  A. T. B. Gilbert,  M. Wormit,  
 J. Kussmann,  A. W. Lange,  A. Behn,  Jia Deng,  Xintian Feng,  D. Ghosh,  
 M. Goldey,  P. R. Horn,  L. D. Jacobson,  I. Kaliman,  T. Kus,  A. Landau,  
 Jie Liu,  E. I. Proynov,  R. M. Richard,  R. P. Steele,  E. J. Sundstrom,  
 H. L. Woodcock III,  P. M. Zimmerman,  D. Zuev,  B. Albrecht,  E. Alguire,  
 S. A. Baeppler,  D. Barton,  Z. Benda,  Y. A. Bernard,  E. J. Berquist,  
 K. B. Bravaya,  H. Burton,  D. Casanova,  Chun-Min Chang,  Yunqing Chen,  
 A. Chien,  K. D. Closser,  M. P. Coons,  S. Coriani,  S. Dasgupta,  
 A. L. Dempwolff,  M. Diedenhofen,  Hainam Do,  R. G. Edgar,  Po-Tung Fang,  
 S. Faraji,  S. Fatehi,  Qingguo Feng,  K. D. Fenk,  J. Fosso-Tande,  
 J. Gayvert,  Qinghui Ge,  A. Ghysels,  G. Gidofalvi,  J. Gomes,  
 J. Gonthier,  A. Gunina,  D. Hait,  M. W. D. Hanson-Heine,  
 P. H. P. Harbach,  A. W. Hauser,  M. F. Herbst,  J. E. Herr,  
 E. G. Hohenstein,  Z. C. Holden,  Kerwin Hui,  B. C. Huynh,  T.-C. Jagau,  
 Hyunjun Ji,  B. Kaduk,  K. Khistyaev,  Jaehoon Kim,  P. Klunzinger,  K. Koh,  
 D. Kosenkov,  L. Koulias,  T. Kowalczyk,  C. M. Krauter,  A. Kunitsa,  
 Ka Un Lao,  A. Laurent,  K. V. Lawler,  Joonho Lee,  D. Lefrancois,  
 S. Lehtola,  D. S. Levine,  Yi-Pei Li,  You-Sheng Lin,  Fenglai Liu,  
 E. Livshits,  A. Luenser,  P. Manohar,  E. Mansoor,  S. F. Manzer,  
 Shan-Ping Mao,  Yuezhi Mao,  N. Mardirossian,  A. V. Marenich,  
 T. Markovich,  L. A. Martinez-Martinez,  S. A. Maurer,  N. J. Mayhall,  
 S. C. McKenzie,  J.-M. Mewes,  P. Morgante,  A. F. Morrison,  
 J. W. Mullinax,  K. Nanda,  T. S. Nguyen-Beck,  R. Olivares-Amaya,  
 J. A. Parkhill,  Zheng Pei,  T. M. Perrine,  F. Plasser,  P. Pokhilko,  
 S. Prager,  A. Prociuk,  E. Ramos,  D. R. Rehn,  F. Rob,  M. Scheurer,  
 M. Schneider,  N. Sergueev,  S. M. Sharada,  S. Sharma,  D. W. Small,  
 T. Stauch,  T. Stein,  Yu-Chuan Su,  A. J. W. Thom,  A. Tkatchenko,  
 T. Tsuchimochi,  N. M. Tubman,  L. Vogt,  M. L. Vidal,  O. Vydrov,  
 M. A. Watson,  J. Wenzel,  M. de Wergifosse,  T. A. Wesolowski,  A. White,  
 J. Witte,  A. Yamada,  Jun Yang,  K. Yao,  S. Yeganeh,  S. R. Yost,  
 Zhi-Qiang You,  A. Zech,  Igor Ying Zhang,  Xing Zhang,  Yan Zhao,  
 Ying Zhu,  B. R. Brooks,  G. K. L. Chan,  C. J. Cramer,  M. S. Gordon,  
 W. J. Hehre,  A. Klamt,  M. W. Schmidt,  C. D. Sherrill,  D. G. Truhlar,  
 A. Aspuru-Guzik,  R. Baer,  A. T. Bell,  N. A. Besley,  Jeng-Da Chai,  
 A. E. DePrince, III,  R. A. DiStasio Jr.,  A. Dreuw,  B. D. Dunietz,  
 T. R. Furlani,  Chao-Ping Hsu,  Yousung Jung,  Jing Kong,  D. S. Lambrecht,  
 WanZhen Liang,  C. Ochsenfeld,  V. A. Rassolov,  L. V. Slipchenko,  
 J. E. Subotnik,  T. Van Voorhis,  J. M. Herbert,  A. I. Krylov,  
 P. M. W. Gill,  M. Head-Gordon

 Contributors to earlier versions of Q-Chem not listed above: 
 R. D. Adamson,  B. Austin,  J. Baker,  G. J. O. Beran,  K. Brandhorst,  
 S. T. Brown,  E. F. C. Byrd,  A. K. Chakraborty,  C.-L. Cheng,  
 Siu Hung Chien,  D. M. Chipman,  D. L. Crittenden,  H. Dachsel,  
 R. J. Doerksen,  A. D. Dutoi,  L. Fusti-Molnar,  W. A. Goddard III,  
 A. Golubeva-Zadorozhnaya,  S. R. Gwaltney,  G. Hawkins,  A. Heyden,  
 S. Hirata,  G. Kedziora,  F. J. Keil,  C. Kelley,  Jihan Kim,  R. A. King,  
 R. Z. Khaliullin,  P. P. Korambath,  W. Kurlancheek,  A. M. Lee,  M. S. Lee,  
 S. V. Levchenko,  Ching Yeh Lin,  D. Liotard,  R. C. Lochan,  I. Lotan,  
 P. E. Maslen,  N. Nair,  D. P. O'Neill,  D. Neuhauser,  E. Neuscamman,  
 C. M. Oana,  R. Olson,  B. Peters,  R. Peverati,  P. A. Pieniazek,  
 Y. M. Rhee,  J. Ritchie,  M. A. Rohrdanz,  E. Rosta,  N. J. Russ,  
 H. F. Schaefer III,  N. E. Schultz,  N. Shenvi,  A. C. Simmonett,  A. Sodt,  
 D. Stuck,  K. S. Thanthiriwatte,  V. Vanovschi,  Tao Wang,  A. Warshel,  
 C. F. Williams,  Q. Wu,  X. Xu,  W. Zhang

 Please cite Q-Chem as follows:
 Y. Shao et al., Mol. Phys. 113, 184-215 (2015)
 DOI: 10.1080/00268976.2014.952696

 Q-Chem 5.2.0 for Intel X86 EM64T Linux

 Parts of Q-Chem use Armadillo 8.300.2 (Tropical Shenanigans).
 http://arma.sourceforge.net/

 Q-Chem begins on Sun Sep 26 05:20:23 2021  

Host: cori01
0

     Scratch files written to /tmp/qchem27471//
 May1019 |scratch|qcdevops|jenkins|workspace|build_RNUM -1
Processing $rem in /global/common/cori/software/qchem/5.2/config/preferences:
	 MEM_TOTAL  96000 
NAlpha2: 72
NElect   72
Mult     1
Symmetry turned off for PCM/SM12/SMD calculation

 Q-Chem warning in module libgen/rem_setup.C, line 2803:

 Neither GIA nor STOLL is specified by user. Use STOLL as the default


Checking the input file for inconsistencies... 	...done.

--------------------------------------------------------------
User input:
--------------------------------------------------------------
$comment
SSI-032GLU-035ARG-1.pdb
$end

$molecule
0 1
--
-1 1
C   -1.965430942118   -3.051960581908    0.699274421944
C   -1.071430942118   -2.010960581908    0.024274421944
O   -1.572430942118   -1.313960581908   -0.888725578056
O    0.122569057882   -1.876960581908    0.378274421944
H   -2.236430942118   -3.808960581908   -0.040725578056
H   -2.892430942118   -2.585960581908    1.032274421944
H   -1.500421942118   -3.570624581908    1.550594421944
--
1 1
C    2.192569057882    1.292039418092    1.438274421944
C    0.575569057882    1.724039418092   -0.400725578056
N   -0.355430942118    1.266039418092   -1.212725578056
N    1.153569057882    0.905039418092    0.470274421944
N    0.920569057882    2.996039418092   -0.471725578056
H   -0.673430942118    0.298039418092   -1.118725578056
H   -0.789430942118    1.868039418092   -1.891725578056
H    0.858569057882   -0.070960581908    0.449274421944
H    1.655569057882    3.350039418092    0.115274421944
H    0.484569057882    3.606039418092   -1.146725578056
H    2.937569057882    1.932039418092    0.960274421944
H    2.711569057882    0.393039418092    1.778274421944
H    1.773989057882    1.809154318092    2.314274421944
$end

$rem
JOBTYPE			EDA
EDA2			1
method			wB97X-V
BASIS			def2-TZVPD
XC_GRID			000099000590
NL_GRID			1
UNRESTRICTED		FALSE
MAX_SCF_CYCLES		200
SYMMETRY		FALSE
SYM_IGNORE		TRUE
MEM_STATIC		2000
BASIS_LIN_DEP_THRESH 	6
THRESH 			14
SCF_CONVERGENCE 	8
SCF_PRINT_FRGM 		TRUE
SOLVENT_METHOD          SMD
$end

$SMX
SOLVENT			WATER
$END
--------------------------------------------------------------
 ----------------------------------------------------------------
             Standard Nuclear Orientation (Angstroms)
    I     Atom           X                Y                Z
 ----------------------------------------------------------------
    1      C      -1.9654309421    -3.0519605819     0.6992744219
    2      C      -1.0714309421    -2.0109605819     0.0242744219
    3      O      -1.5724309421    -1.3139605819    -0.8887255781
    4      O       0.1225690579    -1.8769605819     0.3782744219
    5      H      -2.2364309421    -3.8089605819    -0.0407255781
    6      H      -2.8924309421    -2.5859605819     1.0322744219
    7      H      -1.5004219421    -3.5706245819     1.5505944219
    8      C       2.1925690579     1.2920394181     1.4382744219
    9      C       0.5755690579     1.7240394181    -0.4007255781
   10      N      -0.3554309421     1.2660394181    -1.2127255781
   11      N       1.1535690579     0.9050394181     0.4702744219
   12      N       0.9205690579     2.9960394181    -0.4717255781
   13      H      -0.6734309421     0.2980394181    -1.1187255781
   14      H      -0.7894309421     1.8680394181    -1.8917255781
   15      H       0.8585690579    -0.0709605819     0.4492744219
   16      H       1.6555690579     3.3500394181     0.1152744219
   17      H       0.4845690579     3.6060394181    -1.1467255781
   18      H       2.9375690579     1.9320394181     0.9602744219
   19      H       2.7115690579     0.3930394181     1.7782744219
   20      H       1.7739890579     1.8091543181     2.3142744219
 ----------------------------------------------------------------
 Nuclear Repulsion Energy =         462.23137649 hartrees
 There are       36 alpha and       36 beta electrons
 Requested basis set is def2-TZVPD
 There are 174 shells and 438 basis functions

 Total QAlloc Memory Limit  96000 MB
 Mega-Array Size      1956 MB
 MEM_STATIC part      2000 MB
 
 Citation of the SMD model:
 Marenich, A.V.; Cramer, C.J.; Truhlar, D.G.
 J. Phys. Chem. B 2009, 113, 6378-6396.
 iSolventCode=           1
 Solvent: water                                                           
 
 vradii
            1           2           3           4           5           6
    1   1.8500000   1.8500000   1.5200000   1.5200000   1.2000000   1.2000000
            7           8           9          10          11          12
    1   1.2000000   1.8500000   1.8500000   1.8900000   1.8900000   1.8900000
           13          14          15          16          17          18
    1   1.2000000   1.2000000   1.2000000   1.2000000   1.2000000   1.2000000
           19          20
    1   1.2000000   1.2000000
 Changing PCM_VDW_RADII to SMD_RADIUS
 Discretize the solute cavity surface with Lebedev spheres
	Using 110 Lebedev grid points for each H atom
	Using 194 Lebedev grid points for other atoms
	Atomic van der Waals radii will be scaled by 1.20
 Remove points where switching function is < 1.0e-08
 Keep 1502 surface tesserae and discard 1454 interior tesserae
 Molecular Surface Area = 179.946 Angst**2
 A cutoff of  1.0D-14 yielded  13581 shell pairs
 There are     87137 function pairs (    109651 Cartesian)
 Smallest overlap matrix eigenvalue = 9.42E-06

 Scale SEOQF with 1.000000e-01/1.000000e-01/1.000000e-01

 Standard Electronic Orientation quadrupole field applied
 Nucleus-field energy     =     0.0000000202 hartrees

 -----------------------------------------------------------------------
  General SCF calculation program by
  Eric Jon Sundstrom, Paul Horn, Yuezhi Mao, Dmitri Zuev, Alec White,
  David Stuck, Shaama M.S., Shane Yost, Joonho Lee, David Small,
  Daniel Levine, Susi Lehtola, Hugh Burton, Evgeny Epifanovsky
 -----------------------------------------------------------------------
================================================================
                 ALMO-EDA with the EDA2 driver                  
================================================================
 The second-generation ALMO-EDA (for DFT):                      
 P. R. Horn, Y. Mao and M. Head-Gordon, PCCP, 18, 23067 (2016)  
 Decomposition of the frozen energy:                            
 P. R. Horn, Y. Mao and M. Head-Gordon, JCP, 144, 114107 (2016) 
 FERF model for polarization:                                   
 P. R. Horn and M. Head-Gordon, JCP, 143, 114111 (2015)         
Using eda2 option set 1
Option set summary: Frozen orbital wavefunction, initial wavefunction decomposition, and nDQ polarization.
--------------------------------
Printing EDA Options
--------------------------------
eda_child_super_basis      0
fragmo_guess_mode          0
child_mp                   1
child_mp_orders            232
cls_elec                   1
cls_disp                   0
scfmi_mode                 1
scfmi_occs                 0
scfmi_virts                0
frz_relax                  0
frz_relax_method           0
dc_pen_start               0
dc_pen_conv                0
dc_pen_increment           0
dc_pen_steps               0
dc_pen_thresh_factor       0
dc_pen_pre_newton_thresh   0
frz_ortho_decomp           1
frz_ortho_decomp_conv      6
frgm_method                2
scfmi_freeze_ss            0
separate_rehyb             0
plot_diff_den              0
eda_nocv                   0
eda_vct_relax              1
disp_free_x                0
disp_free_c                0
eda_bsse                   0
eda_pct_a                  0
eda_covp                   0
--------------------------------
Attempting to make child job directory: /tmp/qchem27471//Frg1/
Attempting to make child job directory: /tmp/qchem27471//Frg2/
Creating input file /tmp/qchem27471/Frg1.input
using default PutDataFrgm: nothing
calling putenv with: QCSCRATCH=/tmp/qchem27471/ 
calling putenv with: QCLOCALSCR=/tmp/qchem27471/ 
Spawning Job For Fragment 0
                  Welcome to Q-Chem
     A Quantum Leap Into The Future Of Chemistry


 Q-Chem 5.2, Q-Chem, Inc., Pleasanton, CA (2019)

 License issued to: National Energy Research Scientific Computing Center

 Yihan Shao,  Zhengting Gan,  E. Epifanovsky,  A. T. B. Gilbert,  M. Wormit,  
 J. Kussmann,  A. W. Lange,  A. Behn,  Jia Deng,  Xintian Feng,  D. Ghosh,  
 M. Goldey,  P. R. Horn,  L. D. Jacobson,  I. Kaliman,  T. Kus,  A. Landau,  
 Jie Liu,  E. I. Proynov,  R. M. Richard,  R. P. Steele,  E. J. Sundstrom,  
 H. L. Woodcock III,  P. M. Zimmerman,  D. Zuev,  B. Albrecht,  E. Alguire,  
 S. A. Baeppler,  D. Barton,  Z. Benda,  Y. A. Bernard,  E. J. Berquist,  
 K. B. Bravaya,  H. Burton,  D. Casanova,  Chun-Min Chang,  Yunqing Chen,  
 A. Chien,  K. D. Closser,  M. P. Coons,  S. Coriani,  S. Dasgupta,  
 A. L. Dempwolff,  M. Diedenhofen,  Hainam Do,  R. G. Edgar,  Po-Tung Fang,  
 S. Faraji,  S. Fatehi,  Qingguo Feng,  K. D. Fenk,  J. Fosso-Tande,  
 J. Gayvert,  Qinghui Ge,  A. Ghysels,  G. Gidofalvi,  J. Gomes,  
 J. Gonthier,  A. Gunina,  D. Hait,  M. W. D. Hanson-Heine,  
 P. H. P. Harbach,  A. W. Hauser,  M. F. Herbst,  J. E. Herr,  
 E. G. Hohenstein,  Z. C. Holden,  Kerwin Hui,  B. C. Huynh,  T.-C. Jagau,  
 Hyunjun Ji,  B. Kaduk,  K. Khistyaev,  Jaehoon Kim,  P. Klunzinger,  K. Koh,  
 D. Kosenkov,  L. Koulias,  T. Kowalczyk,  C. M. Krauter,  A. Kunitsa,  
 Ka Un Lao,  A. Laurent,  K. V. Lawler,  Joonho Lee,  D. Lefrancois,  
 S. Lehtola,  D. S. Levine,  Yi-Pei Li,  You-Sheng Lin,  Fenglai Liu,  
 E. Livshits,  A. Luenser,  P. Manohar,  E. Mansoor,  S. F. Manzer,  
 Shan-Ping Mao,  Yuezhi Mao,  N. Mardirossian,  A. V. Marenich,  
 T. Markovich,  L. A. Martinez-Martinez,  S. A. Maurer,  N. J. Mayhall,  
 S. C. McKenzie,  J.-M. Mewes,  P. Morgante,  A. F. Morrison,  
 J. W. Mullinax,  K. Nanda,  T. S. Nguyen-Beck,  R. Olivares-Amaya,  
 J. A. Parkhill,  Zheng Pei,  T. M. Perrine,  F. Plasser,  P. Pokhilko,  
 S. Prager,  A. Prociuk,  E. Ramos,  D. R. Rehn,  F. Rob,  M. Scheurer,  
 M. Schneider,  N. Sergueev,  S. M. Sharada,  S. Sharma,  D. W. Small,  
 T. Stauch,  T. Stein,  Yu-Chuan Su,  A. J. W. Thom,  A. Tkatchenko,  
 T. Tsuchimochi,  N. M. Tubman,  L. Vogt,  M. L. Vidal,  O. Vydrov,  
 M. A. Watson,  J. Wenzel,  M. de Wergifosse,  T. A. Wesolowski,  A. White,  
 J. Witte,  A. Yamada,  Jun Yang,  K. Yao,  S. Yeganeh,  S. R. Yost,  
 Zhi-Qiang You,  A. Zech,  Igor Ying Zhang,  Xing Zhang,  Yan Zhao,  
 Ying Zhu,  B. R. Brooks,  G. K. L. Chan,  C. J. Cramer,  M. S. Gordon,  
 W. J. Hehre,  A. Klamt,  M. W. Schmidt,  C. D. Sherrill,  D. G. Truhlar,  
 A. Aspuru-Guzik,  R. Baer,  A. T. Bell,  N. A. Besley,  Jeng-Da Chai,  
 A. E. DePrince, III,  R. A. DiStasio Jr.,  A. Dreuw,  B. D. Dunietz,  
 T. R. Furlani,  Chao-Ping Hsu,  Yousung Jung,  Jing Kong,  D. S. Lambrecht,  
 WanZhen Liang,  C. Ochsenfeld,  V. A. Rassolov,  L. V. Slipchenko,  
 J. E. Subotnik,  T. Van Voorhis,  J. M. Herbert,  A. I. Krylov,  
 P. M. W. Gill,  M. Head-Gordon

 Contributors to earlier versions of Q-Chem not listed above: 
 R. D. Adamson,  B. Austin,  J. Baker,  G. J. O. Beran,  K. Brandhorst,  
 S. T. Brown,  E. F. C. Byrd,  A. K. Chakraborty,  C.-L. Cheng,  
 Siu Hung Chien,  D. M. Chipman,  D. L. Crittenden,  H. Dachsel,  
 R. J. Doerksen,  A. D. Dutoi,  L. Fusti-Molnar,  W. A. Goddard III,  
 A. Golubeva-Zadorozhnaya,  S. R. Gwaltney,  G. Hawkins,  A. Heyden,  
 S. Hirata,  G. Kedziora,  F. J. Keil,  C. Kelley,  Jihan Kim,  R. A. King,  
 R. Z. Khaliullin,  P. P. Korambath,  W. Kurlancheek,  A. M. Lee,  M. S. Lee,  
 S. V. Levchenko,  Ching Yeh Lin,  D. Liotard,  R. C. Lochan,  I. Lotan,  
 P. E. Maslen,  N. Nair,  D. P. O'Neill,  D. Neuhauser,  E. Neuscamman,  
 C. M. Oana,  R. Olson,  B. Peters,  R. Peverati,  P. A. Pieniazek,  
 Y. M. Rhee,  J. Ritchie,  M. A. Rohrdanz,  E. Rosta,  N. J. Russ,  
 H. F. Schaefer III,  N. E. Schultz,  N. Shenvi,  A. C. Simmonett,  A. Sodt,  
 D. Stuck,  K. S. Thanthiriwatte,  V. Vanovschi,  Tao Wang,  A. Warshel,  
 C. F. Williams,  Q. Wu,  X. Xu,  W. Zhang

 Please cite Q-Chem as follows:
 Y. Shao et al., Mol. Phys. 113, 184-215 (2015)
 DOI: 10.1080/00268976.2014.952696

 Q-Chem 5.2.0 for Intel X86 EM64T Linux

 Parts of Q-Chem use Armadillo 8.300.2 (Tropical Shenanigans).
 http://arma.sourceforge.net/

 Q-Chem begins on Sun Sep 26 05:20:26 2021  

Host: cori01
0

     Scratch files written to /tmp/qchem27471//Frg1//
 May1019 |scratch|qcdevops|jenkins|workspace|build_RNUM -1
Processing $rem in /global/common/cori/software/qchem/5.2/config/preferences:
	 MEM_TOTAL  96000 
NAlpha2: 32
NElect   32
Mult     1
Symmetry turned off for PCM/SM12/SMD calculation

Checking the input file for inconsistencies... 	...done.

--------------------------------------------------------------
User input:
--------------------------------------------------------------
$molecule
-1 1
 6	-1.9654309421	-3.0519605819	0.6992744219
 6	-1.0714309421	-2.0109605819	0.0242744219
 8	-1.5724309421	-1.3139605819	-0.8887255781
 8	0.1225690579	-1.8769605819	0.3782744219
 1	-2.2364309421	-3.8089605819	-0.0407255781
 1	-2.8924309421	-2.5859605819	1.0322744219
 1	-1.5004219421	-3.5706245819	1.5505944219
$end
$rem
EDA2		1
METHOD		WB97X-V
BASIS		DEF2-TZVPD
XC_GRID		000099000590
NL_GRID		1
UNRESTRICTED		FALSE
MAX_SCF_CYCLES		200
SYMMETRY		FALSE
SYM_IGNORE		TRUE
BASIS_LIN_DEP_THRESH		6
THRESH		14
SCF_CONVERGENCE		8
SCF_PRINT_FRGM		TRUE
SOLVENT_METHOD		SMD
!required keywords
JOBTYPE		SP
SYM_IGNORE		TRUE
SUBSYSTEM		TRUE
GEN_SCFMAN		TRUE
CHILD_INSTRUCTION		2
SYM_IGNORE		TRUE
SCFMI		0
RI_K 0		
PARI_K 0		
MIN_PARI_K 0		
IARI_K 0		
OCC_RI_K 0		
PURECART		1111
MEM_STATIC		2000
MEM_TOTAL		96000
GUI		0
CHILD_MP		1
CHILD_MP_ORDERS		232
FRZ_RELAX		0
FRZ_RELAX_METHOD		0
EDA_CLS_ELEC		1
EDA_CLS_DISP		0
FRZ_ORTHO_DECOMP		1
EDA2		FALSE
FRGM_METHOD		FALSE
CIS_N_ROOTS  0
LOCAL_CIS    0
CIS_RLX_DNS  1
$end
$smx
SOLVENT			WATER
$end
--------------------------------------------------------------
 ----------------------------------------------------------------
             Standard Nuclear Orientation (Angstroms)
    I     Atom           X                Y                Z
 ----------------------------------------------------------------
    1      C      -1.9654309421    -3.0519605819     0.6992744219
    2      C      -1.0714309421    -2.0109605819     0.0242744219
    3      O      -1.5724309421    -1.3139605819    -0.8887255781
    4      O       0.1225690579    -1.8769605819     0.3782744219
    5      H      -2.2364309421    -3.8089605819    -0.0407255781
    6      H      -2.8924309421    -2.5859605819     1.0322744219
    7      H      -1.5004219421    -3.5706245819     1.5505944219
 ----------------------------------------------------------------
 Nuclear Repulsion Energy =         112.35709904 hartrees
 There are       16 alpha and       16 beta electrons
 Requested basis set is def2-TZVPD
 There are 69 shells and 181 basis functions

 Total QAlloc Memory Limit  96000 MB
 Mega-Array Size      1956 MB
 MEM_STATIC part      2000 MB
 
 Citation of the SMD model:
 Marenich, A.V.; Cramer, C.J.; Truhlar, D.G.
 J. Phys. Chem. B 2009, 113, 6378-6396.
 iSolventCode=           1
 Solvent: water                                                           
 
 vradii
            1           2           3           4           5           6
    1   1.8500000   1.8500000   1.5200000   1.5200000   1.2000000   1.2000000
            7
    1   1.2000000
 Changing PCM_VDW_RADII to SMD_RADIUS
 Discretize the solute cavity surface with Lebedev spheres
	Using 110 Lebedev grid points for each H atom
	Using 194 Lebedev grid points for other atoms
	Atomic van der Waals radii will be scaled by 1.20
 Remove points where switching function is < 1.0e-08
 Keep 642 surface tesserae and discard 464 interior tesserae
 Molecular Surface Area = 80.028 Angst**2

                       Distance Matrix (Angstroms)
             C (  1)   C (  2)   O (  3)   O (  4)   H (  5)   H (  6)
   C (  2)  1.529229
   O (  3)  2.386805  1.253148
   O (  4)  2.417315  1.252561  2.189813
   H (  5)  1.092744  2.143421  2.717540  3.077835
   H (  6)  1.089667  2.159336  2.655301  3.165537  1.754250
   H (  7)  1.099996  2.224014  3.323853  2.622390  1.769410  1.782108

 
 A cutoff of  1.0D-14 yielded   2390 shell pairs
 There are     16694 function pairs (     21490 Cartesian)
 Smallest overlap matrix eigenvalue = 1.69E-05

 Scale SEOQF with 1.000000e-01/1.000000e-01/1.000000e-01

 Standard Electronic Orientation quadrupole field applied
 Nucleus-field energy     =     0.0000000120 hartrees
 Guess from superposition of atomic densities
 Warning:  Energy on first SCF cycle will be non-variational
 SAD guess density has 30.625312 electrons

 -----------------------------------------------------------------------
  General SCF calculation program by
  Eric Jon Sundstrom, Paul Horn, Yuezhi Mao, Dmitri Zuev, Alec White,
  David Stuck, Shaama M.S., Shane Yost, Joonho Lee, David Small,
  Daniel Levine, Susi Lehtola, Hugh Burton, Evgeny Epifanovsky
 -----------------------------------------------------------------------
 Exchange:     0.1670 Hartree-Fock + 1.0000 wB97X-V + LR-HF
 Correlation:  1.0000 wB97X-V
 Using Euler-Maclaurin-Lebedev (99,590) quadrature formula
 Nonlocal Correlation:  VV10 with C = 0.0100 and b = 6.00 and scale = 1.00000
 Grid used for NLC:  SG-1 standard quadrature
Energy prior to optimization (guess energy) = -227.758272012235
Begin Timing: Total SCF Calculation
begin iterations for algorithm: DIIS         
the SCF tolerance is set to 1.00e-08
    1    -227.7582720122      1.66e-02     00000 
    2    -225.6041878497      2.51e-02     00000 
    3    -228.6062569710      4.08e-03     00000 
    4    -228.6590566143      1.40e-03     00000 
    5    -228.6651205150      3.00e-04     00000 
    6    -228.6653977101      2.11e-04     00000 
    7    -228.6655167152      5.08e-05     00000 
    8    -228.6655269037      1.37e-05     00000 
    9    -228.6655280919      4.03e-06     00000 
   10    -228.6655282126      1.16e-06     00000 
   11    -228.6655282243      2.39e-07     00000 
   12    -228.6655282247      5.35e-08     00000 
   13    -228.6655282247      1.39e-08     00000 
   14    -228.6655282247      3.58e-09     00000 Convergence criterion met
Timing for Total SCF: 282.00s (wall), 549.17s (cpu)
(3)  G-ENP(liq) elect-nuc-pol free energy of system     -228.665528225 a.u.
(4)  G-CDS(liq) cavity-dispersion-solvent structure 
     free energy                                                3.8979 kcal/mol
(6)  G-S(liq) free energy of system                     -228.659316554 a.u.
E_pcm = -0.1316741741
E_cds = 0.0062116710
Multipole orders to be included
        2
        3
computing dipole RHS
computing quadrupole RHS
total number of RHS in solve_reponses: 8
RHS batch sizes
        8
Beginning Block Conjugate Gradient Iterations. Batch Number: 0
computing hessian-vector products by finite difference
              1      6.93e-01     00000 Conjugate Gradient Iteration
computing hessian-vector products by finite difference
              2      2.21e-01     00000 Conjugate Gradient Iteration
computing hessian-vector products by finite difference
              3      6.04e-02     00000 Conjugate Gradient Iteration
computing hessian-vector products by finite difference
              4      1.59e-02     00000 Conjugate Gradient Iteration
computing hessian-vector products by finite difference
              5      2.29e-03     00000 Conjugate Gradient Iteration
computing hessian-vector products by finite difference
              6      5.75e-04     00000 Conjugate Gradient Iteration
computing hessian-vector products by finite difference
              7      8.04e-05     00000 Conjugate Gradient Iteration
computing hessian-vector products by finite difference
              8      9.74e-06     00000 Conjugate Gradient Iteration
computing hessian-vector products by finite difference
              9      1.51e-06     00000 Conjugate Gradient Iteration
computing hessian-vector products by finite difference
             10      1.58e-07     00000 Conjugate Gradient Iteration
computing hessian-vector products by finite difference
             11      2.15e-08     00000 Conjugate Gradient Iteration
computing hessian-vector products by finite difference
             12      5.30e-09     00000 CG Converged
batch 0 complete
Done Calculating Responses
TESTING ORTHOGONALIZATION OF MULTIPOLE BASIS
Multipole virts passed orthogonality test
Virts Per Order
        48
        80
 
 --------------------------------------------------------------
 
                    Orbital Energies (a.u.)
 --------------------------------------------------------------
 
 Alpha MOs
 -- Occupied --
-19.1540 -19.1522 -10.3560 -10.2485  -1.1655  -1.0638  -0.8400  -0.6190
 -0.5474  -0.5460  -0.5406  -0.4819  -0.4625  -0.3650  -0.3597  -0.3442
 -- Virtual --
  0.0671   0.0998   0.1004   0.1075   0.1351   0.1441   0.1454   0.1498
  0.1564   0.1908   0.2021   0.2269   0.2325   0.2379   0.2608   0.2637
  0.2981   0.3147   0.3335   0.3464   0.3510   0.3616   0.3688   0.3844
  0.3882   0.3941   0.4158   0.4247   0.4272   0.4556   0.4675   0.4729
  0.4828   0.4880   0.5055   0.5104   0.5462   0.5591   0.5818   0.6010
  0.6113   0.6234   0.6248   0.6487   0.6566   0.6647   0.6784   0.6969
  0.7046   0.7251   0.7671   0.7899   0.8071   0.8103   0.8332   0.8436
  0.8626   0.9563   0.9663   0.9796   0.9854   1.0330   1.0383   1.1069
  1.1490   1.1798   1.2413   1.2638   1.2796   1.3025   1.3276   1.3375
  1.4395   1.5471   1.5855   1.7372   1.8019   1.8386   1.8562   1.8988
  1.9013   1.9389   1.9471   1.9569   2.0128   2.0876   2.1124   2.1490
  2.1910   2.2016   2.2997   2.3148   2.3927   2.4214   2.4571   2.4827
  2.5584   2.5825   2.6127   2.6666   2.7617   2.8053   2.8673   2.9200
  2.9388   2.9764   3.0034   3.1667   3.1792   3.2343   3.2617   3.3036
  3.3190   3.3326   3.3737   3.3947   3.4101   3.5162   3.5354   3.5522
  3.5884   3.6340   3.6728   3.7195   3.7473   3.8632   3.9262   4.0190
  4.0666   4.1766   4.3472   4.5463   4.5973   4.6396   4.7818   4.8027
  4.9716   5.2971   5.3224   5.3330   5.3385   5.4579   5.6741   5.7473
  5.7855   5.9960   6.1920   6.3133   6.3210   6.5770   6.5953   6.6953
  6.7086   6.7252   6.9145   6.9474   7.0032   7.2182   7.3033   7.3569
  7.3785  22.5819  23.6944  44.1913  44.3096
 --------------------------------------------------------------
 
          Ground-State Mulliken Net Atomic Charges

     Atom                 Charge (a.u.)
  ----------------------------------------
      1 C                    -0.598132
      2 C                     0.509403
      3 O                    -0.777858
      4 O                    -0.768183
      5 H                     0.197997
      6 H                     0.212688
      7 H                     0.224086
  ----------------------------------------
  Sum of atomic charges =    -1.000000

 -----------------------------------------------------------------
                    Cartesian Multipole Moments
 -----------------------------------------------------------------
    Charge (ESU x 10^10)
                -4.8032
    Dipole Moment (Debye)
         X       2.0951      Y       6.0253      Z       2.2708
       Tot       6.7712
    Quadrupole Moments (Debye-Ang)
        XX     -31.6358     XY       0.5829     YY     -32.1377
        XZ      -6.5567     YZ      -1.8602     ZZ     -29.4177
    Octopole Moments (Debye-Ang^2)
       XXX     100.6492    XXY      58.5566    XYY      21.0308
       YYY     165.2140    XXZ       8.8217    XYZ       8.7312
       YYZ      -1.9343    XZZ      34.5977    YZZ      58.7298
       ZZZ      -3.4539
    Hexadecapole Moments (Debye-Ang^3)
      XXXX    -369.7852   XXXY    -218.8355   XXYY    -188.5135
      XYYY    -175.3808   YYYY    -777.0359   XXXZ     -16.8437
      XXYZ       0.5321   XYYZ      -8.8792   YYYZ      48.4970
      XXZZ     -82.8070   XYZZ     -75.2144   YYZZ    -152.0253
      XZZZ      -1.1681   YZZZ      38.1349   ZZZZ    -100.2499
 -----------------------------------------------------------------
Archival summary:
1\1\nid00534\SP\ProcedureUnspecified\BasisUnspecified\223(1-,1)\meili\SunSep2606:34:502021SunSep2606:34:502021\0\\#,ProcedureUnspecified,BasisUnspecified,\\-1,1\C\O,1,1.25256\O,1,1.25315,2,121.837\C,1,1.52923,2,120.355,3,179.571,0\H,4,1.08967,1,109.944,2,128.634,0\H,4,1.09274,1,108.521,2,-114.659,0\H,4,1.1,1,114.548,2,5.5721,0\\\@

 Total job time:  4463.20s(wall), 8752.41s(cpu) 
 Sun Sep 26 06:34:50 2021

        *************************************************************
        *                                                           *
        *  Thank you very much for using Q-Chem.  Have a nice day.  *
        *                                                           *
        *************************************************************


Done Job For Fragment 0
calling putenv with: QCSCRATCH=/global/cscratch1/sd/meili 
calling putenv with: QCLOCALSCR=/tmp 
calling putenv with: QCTHREADS=32 
Creating input file /tmp/qchem27471/Frg2.input
using default PutDataFrgm: nothing
calling putenv with: QCSCRATCH=/tmp/qchem27471/ 
calling putenv with: QCLOCALSCR=/tmp/qchem27471/ 
Spawning Job For Fragment 1
                  Welcome to Q-Chem
     A Quantum Leap Into The Future Of Chemistry


 Q-Chem 5.2, Q-Chem, Inc., Pleasanton, CA (2019)

 License issued to: National Energy Research Scientific Computing Center

 Yihan Shao,  Zhengting Gan,  E. Epifanovsky,  A. T. B. Gilbert,  M. Wormit,  
 J. Kussmann,  A. W. Lange,  A. Behn,  Jia Deng,  Xintian Feng,  D. Ghosh,  
 M. Goldey,  P. R. Horn,  L. D. Jacobson,  I. Kaliman,  T. Kus,  A. Landau,  
 Jie Liu,  E. I. Proynov,  R. M. Richard,  R. P. Steele,  E. J. Sundstrom,  
 H. L. Woodcock III,  P. M. Zimmerman,  D. Zuev,  B. Albrecht,  E. Alguire,  
 S. A. Baeppler,  D. Barton,  Z. Benda,  Y. A. Bernard,  E. J. Berquist,  
 K. B. Bravaya,  H. Burton,  D. Casanova,  Chun-Min Chang,  Yunqing Chen,  
 A. Chien,  K. D. Closser,  M. P. Coons,  S. Coriani,  S. Dasgupta,  
 A. L. Dempwolff,  M. Diedenhofen,  Hainam Do,  R. G. Edgar,  Po-Tung Fang,  
 S. Faraji,  S. Fatehi,  Qingguo Feng,  K. D. Fenk,  J. Fosso-Tande,  
 J. Gayvert,  Qinghui Ge,  A. Ghysels,  G. Gidofalvi,  J. Gomes,  
 J. Gonthier,  A. Gunina,  D. Hait,  M. W. D. Hanson-Heine,  
 P. H. P. Harbach,  A. W. Hauser,  M. F. Herbst,  J. E. Herr,  
 E. G. Hohenstein,  Z. C. Holden,  Kerwin Hui,  B. C. Huynh,  T.-C. Jagau,  
 Hyunjun Ji,  B. Kaduk,  K. Khistyaev,  Jaehoon Kim,  P. Klunzinger,  K. Koh,  
 D. Kosenkov,  L. Koulias,  T. Kowalczyk,  C. M. Krauter,  A. Kunitsa,  
 Ka Un Lao,  A. Laurent,  K. V. Lawler,  Joonho Lee,  D. Lefrancois,  
 S. Lehtola,  D. S. Levine,  Yi-Pei Li,  You-Sheng Lin,  Fenglai Liu,  
 E. Livshits,  A. Luenser,  P. Manohar,  E. Mansoor,  S. F. Manzer,  
 Shan-Ping Mao,  Yuezhi Mao,  N. Mardirossian,  A. V. Marenich,  
 T. Markovich,  L. A. Martinez-Martinez,  S. A. Maurer,  N. J. Mayhall,  
 S. C. McKenzie,  J.-M. Mewes,  P. Morgante,  A. F. Morrison,  
 J. W. Mullinax,  K. Nanda,  T. S. Nguyen-Beck,  R. Olivares-Amaya,  
 J. A. Parkhill,  Zheng Pei,  T. M. Perrine,  F. Plasser,  P. Pokhilko,  
 S. Prager,  A. Prociuk,  E. Ramos,  D. R. Rehn,  F. Rob,  M. Scheurer,  
 M. Schneider,  N. Sergueev,  S. M. Sharada,  S. Sharma,  D. W. Small,  
 T. Stauch,  T. Stein,  Yu-Chuan Su,  A. J. W. Thom,  A. Tkatchenko,  
 T. Tsuchimochi,  N. M. Tubman,  L. Vogt,  M. L. Vidal,  O. Vydrov,  
 M. A. Watson,  J. Wenzel,  M. de Wergifosse,  T. A. Wesolowski,  A. White,  
 J. Witte,  A. Yamada,  Jun Yang,  K. Yao,  S. Yeganeh,  S. R. Yost,  
 Zhi-Qiang You,  A. Zech,  Igor Ying Zhang,  Xing Zhang,  Yan Zhao,  
 Ying Zhu,  B. R. Brooks,  G. K. L. Chan,  C. J. Cramer,  M. S. Gordon,  
 W. J. Hehre,  A. Klamt,  M. W. Schmidt,  C. D. Sherrill,  D. G. Truhlar,  
 A. Aspuru-Guzik,  R. Baer,  A. T. Bell,  N. A. Besley,  Jeng-Da Chai,  
 A. E. DePrince, III,  R. A. DiStasio Jr.,  A. Dreuw,  B. D. Dunietz,  
 T. R. Furlani,  Chao-Ping Hsu,  Yousung Jung,  Jing Kong,  D. S. Lambrecht,  
 WanZhen Liang,  C. Ochsenfeld,  V. A. Rassolov,  L. V. Slipchenko,  
 J. E. Subotnik,  T. Van Voorhis,  J. M. Herbert,  A. I. Krylov,  
 P. M. W. Gill,  M. Head-Gordon

 Contributors to earlier versions of Q-Chem not listed above: 
 R. D. Adamson,  B. Austin,  J. Baker,  G. J. O. Beran,  K. Brandhorst,  
 S. T. Brown,  E. F. C. Byrd,  A. K. Chakraborty,  C.-L. Cheng,  
 Siu Hung Chien,  D. M. Chipman,  D. L. Crittenden,  H. Dachsel,  
 R. J. Doerksen,  A. D. Dutoi,  L. Fusti-Molnar,  W. A. Goddard III,  
 A. Golubeva-Zadorozhnaya,  S. R. Gwaltney,  G. Hawkins,  A. Heyden,  
 S. Hirata,  G. Kedziora,  F. J. Keil,  C. Kelley,  Jihan Kim,  R. A. King,  
 R. Z. Khaliullin,  P. P. Korambath,  W. Kurlancheek,  A. M. Lee,  M. S. Lee,  
 S. V. Levchenko,  Ching Yeh Lin,  D. Liotard,  R. C. Lochan,  I. Lotan,  
 P. E. Maslen,  N. Nair,  D. P. O'Neill,  D. Neuhauser,  E. Neuscamman,  
 C. M. Oana,  R. Olson,  B. Peters,  R. Peverati,  P. A. Pieniazek,  
 Y. M. Rhee,  J. Ritchie,  M. A. Rohrdanz,  E. Rosta,  N. J. Russ,  
 H. F. Schaefer III,  N. E. Schultz,  N. Shenvi,  A. C. Simmonett,  A. Sodt,  
 D. Stuck,  K. S. Thanthiriwatte,  V. Vanovschi,  Tao Wang,  A. Warshel,  
 C. F. Williams,  Q. Wu,  X. Xu,  W. Zhang

 Please cite Q-Chem as follows:
 Y. Shao et al., Mol. Phys. 113, 184-215 (2015)
 DOI: 10.1080/00268976.2014.952696

 Q-Chem 5.2.0 for Intel X86 EM64T Linux

 Parts of Q-Chem use Armadillo 8.300.2 (Tropical Shenanigans).
 http://arma.sourceforge.net/

 Q-Chem begins on Sun Sep 26 06:34:50 2021  

Host: cori01
0

     Scratch files written to /tmp/qchem27471//Frg2//
 May1019 |scratch|qcdevops|jenkins|workspace|build_RNUM -1
Processing $rem in /global/common/cori/software/qchem/5.2/config/preferences:
	 MEM_TOTAL  96000 
NAlpha2: 40
NElect   40
Mult     1
Symmetry turned off for PCM/SM12/SMD calculation

Checking the input file for inconsistencies... 	...done.

--------------------------------------------------------------
User input:
--------------------------------------------------------------
$molecule
1 1
 6	2.1925690579	1.2920394181	1.4382744219
 6	0.5755690579	1.7240394181	-0.4007255781
 7	-0.3554309421	1.2660394181	-1.2127255781
 7	1.1535690579	0.9050394181	0.4702744219
 7	0.9205690579	2.9960394181	-0.4717255781
 1	-0.6734309421	0.2980394181	-1.1187255781
 1	-0.7894309421	1.8680394181	-1.8917255781
 1	0.8585690579	-0.0709605819	0.4492744219
 1	1.6555690579	3.3500394181	0.1152744219
 1	0.4845690579	3.6060394181	-1.1467255781
 1	2.9375690579	1.9320394181	0.9602744219
 1	2.7115690579	0.3930394181	1.7782744219
 1	1.7739890579	1.8091543181	2.3142744219
$end
$rem
EDA2		1
METHOD		WB97X-V
BASIS		DEF2-TZVPD
XC_GRID		000099000590
NL_GRID		1
UNRESTRICTED		FALSE
MAX_SCF_CYCLES		200
SYMMETRY		FALSE
SYM_IGNORE		TRUE
BASIS_LIN_DEP_THRESH		6
THRESH		14
SCF_CONVERGENCE		8
SCF_PRINT_FRGM		TRUE
SOLVENT_METHOD		SMD
!required keywords
JOBTYPE		SP
SYM_IGNORE		TRUE
SUBSYSTEM		TRUE
GEN_SCFMAN		TRUE
CHILD_INSTRUCTION		2
SYM_IGNORE		TRUE
SCFMI		0
RI_K 0		
PARI_K 0		
MIN_PARI_K 0		
IARI_K 0		
OCC_RI_K 0		
PURECART		1111
MEM_STATIC		2000
MEM_TOTAL		96000
GUI		0
CHILD_MP		1
CHILD_MP_ORDERS		232
FRZ_RELAX		0
FRZ_RELAX_METHOD		0
EDA_CLS_ELEC		1
EDA_CLS_DISP		0
FRZ_ORTHO_DECOMP		1
EDA2		FALSE
FRGM_METHOD		FALSE
CIS_N_ROOTS  0
LOCAL_CIS    0
CIS_RLX_DNS  1
$end
$smx
SOLVENT			WATER
$end
--------------------------------------------------------------
 ----------------------------------------------------------------
             Standard Nuclear Orientation (Angstroms)
    I     Atom           X                Y                Z
 ----------------------------------------------------------------
    1      C       2.1925690579     1.2920394181     1.4382744219
    2      C       0.5755690579     1.7240394181    -0.4007255781
    3      N      -0.3554309421     1.2660394181    -1.2127255781
    4      N       1.1535690579     0.9050394181     0.4702744219
    5      N       0.9205690579     2.9960394181    -0.4717255781
    6      H      -0.6734309421     0.2980394181    -1.1187255781
    7      H      -0.7894309421     1.8680394181    -1.8917255781
    8      H       0.8585690579    -0.0709605819     0.4492744219
    9      H       1.6555690579     3.3500394181     0.1152744219
   10      H       0.4845690579     3.6060394181    -1.1467255781
   11      H       2.9375690579     1.9320394181     0.9602744219
   12      H       2.7115690579     0.3930394181     1.7782744219
   13      H       1.7739890579     1.8091543181     2.3142744219
 ----------------------------------------------------------------
 Nuclear Repulsion Energy =         193.83751451 hartrees
 There are       20 alpha and       20 beta electrons
 Requested basis set is def2-TZVPD
 There are 105 shells and 257 basis functions

 Total QAlloc Memory Limit  96000 MB
 Mega-Array Size      1956 MB
 MEM_STATIC part      2000 MB
 
 Citation of the SMD model:
 Marenich, A.V.; Cramer, C.J.; Truhlar, D.G.
 J. Phys. Chem. B 2009, 113, 6378-6396.
 iSolventCode=           1
 Solvent: water                                                           
 
 vradii
            1           2           3           4           5           6
    1   1.8500000   1.8500000   1.8900000   1.8900000   1.8900000   1.2000000
            7           8           9          10          11          12
    1   1.2000000   1.2000000   1.2000000   1.2000000   1.2000000   1.2000000
           13
    1   1.2000000
 Changing PCM_VDW_RADII to SMD_RADIUS
 Discretize the solute cavity surface with Lebedev spheres
	Using 110 Lebedev grid points for each H atom
	Using 194 Lebedev grid points for other atoms
	Atomic van der Waals radii will be scaled by 1.20
 Remove points where switching function is < 1.0e-08
 Keep 922 surface tesserae and discard 928 interior tesserae
 Molecular Surface Area = 113.990 Angst**2

                       Distance Matrix (Angstroms)
             C (  1)   C (  2)   N (  3)   N (  4)   N (  5)   H (  6)
   C (  2)  2.486611
   N (  3)  3.677061  1.317524
   N (  4)  1.471840  1.327963  2.289081
   N (  5)  2.858269  1.319867  2.273798  2.305197
   H (  6)  3.967397  2.027067  1.023222  2.496257  3.199789
   H (  7)  4.506995  2.026584  1.005883  3.206503  2.492566  1.753820
   H (  8)  2.148359  2.006144  2.454304  1.019824  3.202901  2.223018
   H (  9)  2.504808  2.019042  3.186026  2.521122  1.005042  4.032580
   H ( 10)  3.867051  2.026505  2.487078  3.218330  1.008871  3.504941
   H ( 11)  1.092295  2.733977  4.001167  2.116007  2.692770  4.475658
   H ( 12)  1.092320  3.328979  4.372036  2.097706  3.878890  4.456440
   H ( 13)  1.099997  2.968953  4.155615  2.145386  3.146239  4.478708
             H (  7)   H (  8)   H (  9)   H ( 10)   H ( 11)   H ( 12)
   H (  8)  3.457731
   H (  9)  3.493193  3.528457
   H ( 10)  2.280076  4.025844  1.740523
   H ( 11)  4.693456  2.931786  2.090041  3.641282
   H ( 12)  5.282190  2.327047  3.553105  4.882471  1.757476
   H ( 13)  4.925954  2.801973  2.687741  4.107301  1.789507  1.780936

 
 A cutoff of  1.0D-14 yielded   5441 shell pairs
 There are     33177 function pairs (     41513 Cartesian)
 Smallest overlap matrix eigenvalue = 1.65E-05

 Scale SEOQF with 1.000000e-01/1.000000e-01/1.000000e-01

 Standard Electronic Orientation quadrupole field applied
 Nucleus-field energy     =     0.0000000082 hartrees
 Guess from superposition of atomic densities
 Warning:  Energy on first SCF cycle will be non-variational
 SAD guess density has 40.388232 electrons

 -----------------------------------------------------------------------
  General SCF calculation program by
  Eric Jon Sundstrom, Paul Horn, Yuezhi Mao, Dmitri Zuev, Alec White,
  David Stuck, Shaama M.S., Shane Yost, Joonho Lee, David Small,
  Daniel Levine, Susi Lehtola, Hugh Burton, Evgeny Epifanovsky
 -----------------------------------------------------------------------
 Exchange:     0.1670 Hartree-Fock + 1.0000 wB97X-V + LR-HF
 Correlation:  1.0000 wB97X-V
 Using Euler-Maclaurin-Lebedev (99,590) quadrature formula
 Nonlocal Correlation:  VV10 with C = 0.0100 and b = 6.00 and scale = 1.00000
 Grid used for NLC:  SG-1 standard quadrature
Energy prior to optimization (guess energy) = -244.727146585513
Begin Timing: Total SCF Calculation
begin iterations for algorithm: DIIS         
the SCF tolerance is set to 1.00e-08
    1    -244.7271465855      7.92e-03     00000 
    2    -244.9652934051      6.24e-03     00000 
    3    -245.2058759409      3.29e-04     00000 
    4    -245.2068021971      1.72e-04     00000 
    5    -245.2070321036      4.61e-05     00000 
    6    -245.2070501572      1.93e-05     00000 
    7    -245.2070532271      3.21e-06     00000 
    8    -245.2070534078      9.21e-07     00000 
    9    -245.2070534205      3.83e-07     00000 
   10    -245.2070534231      9.23e-08     00000 
   11    -245.2070534233      4.34e-08     00000 
   12    -245.2070534233      1.42e-08     00000 
   13    -245.2070534233      1.92e-09     00000 Convergence criterion met
Timing for Total SCF: 723.00s (wall), 1436.38s (cpu)
(3)  G-ENP(liq) elect-nuc-pol free energy of system     -245.207053423 a.u.
(4)  G-CDS(liq) cavity-dispersion-solvent structure 
     free energy                                                2.7190 kcal/mol
(6)  G-S(liq) free energy of system                     -245.202720441 a.u.
E_pcm = -0.1081862211
E_cds = 0.0043329823
Multipole orders to be included
        2
        3
computing dipole RHS
computing quadrupole RHS
total number of RHS in solve_reponses: 8
RHS batch sizes
        8
Beginning Block Conjugate Gradient Iterations. Batch Number: 0
computing hessian-vector products by finite difference
              1      4.92e-01     00000 Conjugate Gradient Iteration
computing hessian-vector products by finite difference
              2      1.91e-01     00000 Conjugate Gradient Iteration
computing hessian-vector products by finite difference
              3      5.08e-02     00000 Conjugate Gradient Iteration
computing hessian-vector products by finite difference
              4      1.26e-02     00000 Conjugate Gradient Iteration
computing hessian-vector products by finite difference
              5      1.65e-03     00000 Conjugate Gradient Iteration
computing hessian-vector products by finite difference
              6      2.81e-04     00000 Conjugate Gradient Iteration
computing hessian-vector products by finite difference
              7      4.15e-05     00000 Conjugate Gradient Iteration
computing hessian-vector products by finite difference
              8      5.74e-06     00000 Conjugate Gradient Iteration
computing hessian-vector products by finite difference
              9      1.02e-06     00000 Conjugate Gradient Iteration
computing hessian-vector products by finite difference
             10      1.70e-07     00000 Conjugate Gradient Iteration
computing hessian-vector products by finite difference
             11      3.17e-08     00000 Conjugate Gradient Iteration
computing hessian-vector products by finite difference
             12      3.65e-09     00000 CG Converged
batch 0 complete
Done Calculating Responses
TESTING ORTHOGONALIZATION OF MULTIPOLE BASIS
Multipole virts passed orthogonality test
Virts Per Order
           60
          100
 
 --------------------------------------------------------------
 
                    Orbital Energies (a.u.)
 --------------------------------------------------------------
 
 Alpha MOs
 -- Occupied --
-14.4558 -14.4477 -14.4459 -10.4221 -10.3062  -1.1722  -1.0533  -1.0415
 -0.8519  -0.7643  -0.7204  -0.6880  -0.6159  -0.6095  -0.5936  -0.5698
 -0.5258  -0.5057  -0.3992  -0.3765
 -- Virtual --
  0.0586   0.0847   0.0980   0.1038   0.1237   0.1252   0.1375   0.1508
  0.1726   0.1789   0.1920   0.1996   0.2031   0.2118   0.2222   0.2401
  0.2424   0.2459   0.2484   0.2700   0.2801   0.2854   0.2933   0.3034
  0.3119   0.3205   0.3239   0.3269   0.3391   0.3427   0.3515   0.3598
  0.3680   0.3759   0.3795   0.3983   0.4065   0.4113   0.4160   0.4302
  0.4408   0.4469   0.4587   0.4603   0.4708   0.4772   0.4888   0.4990
  0.5018   0.5072   0.5199   0.5233   0.5300   0.5357   0.5508   0.5545
  0.5601   0.5769   0.5805   0.5846   0.6106   0.6263   0.6420   0.6547
  0.6619   0.6779   0.6787   0.7027   0.7215   0.7284   0.7532   0.7656
  0.7939   0.8004   0.8162   0.8325   0.8422   0.8497   0.8615   0.8707
  0.8796   0.8928   0.9052   0.9217   0.9363   0.9812   0.9896   1.0018
  1.0403   1.0682   1.0804   1.0944   1.1105   1.1211   1.1336   1.1429
  1.1512   1.1717   1.2221   1.2564   1.2689   1.3394   1.3696   1.4201
  1.4274   1.4508   1.4779   1.4902   1.5530   1.5760   1.6545   1.6672
  1.6801   1.7111   1.7529   1.7971   1.8439   1.8597   1.8714   1.8908
  1.9089   1.9268   1.9311   1.9768   2.0021   2.0094   2.0401   2.0733
  2.1147   2.1236   2.1793   2.2013   2.2069   2.2530   2.2643   2.3066
  2.3283   2.3460   2.3924   2.4216   2.4342   2.4748   2.4922   2.5287
  2.5562   2.5892   2.6240   2.6393   2.6534   2.6740   2.7150   2.7307
  2.7862   2.8133   2.8466   2.8942   2.8993   2.9180   2.9451   2.9621
  3.0553   3.1328   3.1477   3.1547   3.1763   3.2092   3.2241   3.2542
  3.2683   3.2963   3.3095   3.3151   3.3562   3.3864   3.4276   3.4324
  3.4598   3.4990   3.5336   3.5965   3.6166   3.6379   3.6731   3.7432
  3.8139   3.8712   3.9526   3.9899   4.0814   4.1549   4.1696   4.2353
  4.3062   4.3109   4.3439   4.3606   4.3708   4.4889   4.5709   4.6192
  4.6592   4.8382   4.8559   4.8724   4.9391   4.9981   5.0289   5.0518
  5.1164   5.1277   5.1315   5.1602   5.1916   5.2186   5.2773   5.3708
  5.3987   5.4130   5.4489   5.4559   5.4743   5.5107   5.5741   5.6571
  5.7115   5.7788   5.8107   5.8976   6.1419   6.2012   6.3838   6.4835
 22.6590  23.6567  32.3395  32.4531  32.8207
 --------------------------------------------------------------
 
          Ground-State Mulliken Net Atomic Charges

     Atom                 Charge (a.u.)
  ----------------------------------------
      1 C                    -0.804772
      2 C                     0.438949
      3 N                    -0.314207
      4 N                    -0.113246
      5 N                    -0.280852
      6 H                     0.256362
      7 H                     0.241366
      8 H                     0.294940
      9 H                     0.206700
     10 H                     0.241328
     11 H                     0.291086
     12 H                     0.281614
     13 H                     0.260733
  ----------------------------------------
  Sum of atomic charges =     1.000000

 -----------------------------------------------------------------
                    Cartesian Multipole Moments
 -----------------------------------------------------------------
    Charge (ESU x 10^10)
                 4.8032
    Dipole Moment (Debye)
         X       3.1678      Y       8.0543      Z      -1.5658
       Tot       8.7954
    Quadrupole Moments (Debye-Ang)
        XX     -20.9732     XY       7.5282     YY      -3.4718
        XZ       7.5819     YZ      -5.9711     ZZ     -22.2591
    Octopole Moments (Debye-Ang^2)
       XXX     -67.6994    XXY     -32.4155    XYY      -3.4991
       YYY     -59.7275    XXZ       8.6766    XYZ       9.1502
       YYZ     -21.0720    XZZ     -28.4804    YZZ     -33.1274
       ZZZ      -5.7872
    Hexadecapole Moments (Debye-Ang^3)
      XXXX    -303.9173   XXXY    -104.4739   XXYY    -114.6108
      XYYY     -53.4777   YYYY    -328.5775   XXXZ     -52.1813
      XXYZ      17.3477   XYYZ      -8.6018   YYYZ     -54.7396
      XXZZ     -77.4037   XYZZ     -49.5783   YYZZ     -96.9848
      XZZZ     -58.7848   YZZZ       3.2202   ZZZZ    -189.8257
 -----------------------------------------------------------------
Archival summary:
1\1\nid00534\SP\ProcedureUnspecified\BasisUnspecified\328(1+,1)\meili\SunSep2610:14:282021SunSep2610:14:282021\0\\#,ProcedureUnspecified,BasisUnspecified,\\1,1\C\N,1,1.31752\H,2,1.00588,1,120.855\H,2,1.02322,1,119.462,3,-176.894,0\N,1,1.31987,2,119.115,3,1.13525,0\H,5,1.00504,1,119.946,2,-177.483,0\H,5,1.00887,1,120.38,2,-0.736072,0\N,1,1.32796,2,119.828,3,-178.684,0\H,8,1.01982,1,116.796,2,1.70353,0\C,8,1.47184,1,125.202,2,-179.338,0\H,10,1.0923,8,110.348,1,-43.9077,0\H,10,1.09232,8,108.888,1,-161.212,0\H,10,1.1,8,112.256,1,78.4396,0\\\@

 Total job time:  13179.84s(wall), 25847.70s(cpu) 
 Sun Sep 26 10:14:30 2021

        *************************************************************
        *                                                           *
        *  Thank you very much for using Q-Chem.  Have a nice day.  *
        *                                                           *
        *************************************************************


Done Job For Fragment 1
calling putenv with: QCSCRATCH=/global/cscratch1/sd/meili 
calling putenv with: QCLOCALSCR=/tmp 
calling putenv with: QCTHREADS=32 
Doing General SCFMI
 Exchange:     0.1670 Hartree-Fock + 1.0000 wB97X-V + LR-HF
 Correlation:  1.0000 wB97X-V
 Using Euler-Maclaurin-Lebedev (99,590) quadrature formula
 Nonlocal Correlation:  VV10 with C = 0.0100 and b = 6.00 and scale = 1.00000
 Grid used for NLC:  SG-1 standard quadrature
performing fock build before subrot guess so that all methods have access
Printing subrot_rss_gen Method Specification:
Occupied Subspace Method is 0
Virtual Subspace Method is 0
Energy of the unrelaxed supersystem initial determinant -473.796068676142
performing fock build before subrot guess so that all methods have access
Printing subrot_rss_gen Method Specification:
Occupied Subspace Method is 0
Virtual Subspace Method is 0
Energy of the unrelaxed supersystem initial determinant w/ solvent -473.873672111792
write pseudocanon occs and virts to disk
write pseudocanon orbital energies to disk
Tolerance of ortho_decomp_scf: 1.00e-06
GDM subspace size: 20
Beginning the Orthogonal Decomposition of the Initial Supersystem Wavefunction
    1    -473.5410149606      9.94e-02     ortho_decomp Preconditoned Steepest Descent
    2    -473.5570222067      2.80e-03     ortho_decomp BFGS Step
    3    -473.5570901872      2.39e-04     ortho_decomp BFGS Step
    4    -473.5570903195      1.05e-05     ortho_decomp BFGS Step
    5    -473.5570903201      3.79e-07     ortho_decomp 00000 Convergence criterion met
 Hartree-Fock
 Hartree-Fock
 Hartree-Fock
Doing General SCFMI
 Exchange:     0.1670 Hartree-Fock + 1.0000 wB97X-V + LR-HF
 Correlation:  1.0000 wB97X-V
 Using Euler-Maclaurin-Lebedev (99,590) quadrature formula
 Nonlocal Correlation:  VV10 with C = 0.0100 and b = 6.00 and scale = 1.00000
 Grid used for NLC:  SG-1 standard quadrature
performing fock build at end of subrot_r(subrot) constructor so that all methods have access
<S^2> of initial wavefunction before polarization iterations 0.0000000000
Beginning iterations for the determination of the polarized wavefunction
Energy prior to optimization (guess energy) = -473.873672111792
Begin Timing: Total SCF Calculation
begin iterations for algorithm: DIIS         
the SCF tolerance is set to 1.00e-08
    1    -473.8736721118      2.16e-04     00000 
    2    -473.8759805605      9.62e-05     00000 
    3    -473.8762431259      5.70e-05     00000 
    4    -473.8763359219      1.51e-05     00000 
    5    -473.8763455696      6.30e-06     00000 
    6    -473.8763479573      2.54e-06     00000 
    7    -473.8763483092      1.25e-06     00000 
    8    -473.8763483805      5.01e-07     00000 
    9    -473.8763483902      2.38e-07     00000 
   10    -473.8763483916      6.59e-08     00000 
   11    -473.8763483918      2.88e-08     00000 
   12    -473.8763483918      1.26e-08     00000 
   13    -473.8763483918      4.34e-09     00000 Convergence criterion met
write pseudocanon occs and virts to disk
write pseudocanon orbital energies to disk
Timing for Total SCF: 2855.00s (wall), 5675.18s (cpu)
<S^2> of polarized wavefunction after polarization iterations 0.0000000000
relaxing scfmi constraint to allow all rotations in the entire AO span
Doing General SCFMI
 Exchange:     0.1670 Hartree-Fock + 1.0000 wB97X-V + LR-HF
 Correlation:  1.0000 wB97X-V
 Using Euler-Maclaurin-Lebedev (99,590) quadrature formula
 Nonlocal Correlation:  VV10 with C = 0.0100 and b = 6.00 and scale = 1.00000
 Grid used for NLC:  SG-1 standard quadrature
performing fock build at end of subrot_r(subrot) constructor so that all methods have access
<S^2> of polarized wavefunction before ct-allowed iterations 0.0000000000
Beginning iterations for the determination of the CT-Allowed wavefunction
Energy prior to optimization (guess energy) = -473.876348391815
Begin Timing: Total SCF Calculation
begin iterations for algorithm: DIIS         
the SCF tolerance is set to 1.00e-08
    1    -473.8763483918      2.61e-04     00000 
    2    -473.8846727484      4.47e-05     00000 
    3    -473.8850515899      1.98e-05     00000 
    4    -473.8850804724      9.03e-06     00000 
    5    -473.8850882876      1.91e-06     00000 
    6    -473.8850887280      7.36e-07     00000 
    7    -473.8850888076      3.79e-07     00000 
    8    -473.8850888208      8.41e-08     00000 
    9    -473.8850888222      3.42e-08     00000 
   10    -473.8850888224      1.16e-08     00000 
   11    -473.8850888224      3.65e-09     00000 Convergence criterion met
write pseudocanon occs and virts to disk
write pseudocanon orbital energies to disk
Timing for Total SCF: 2399.00s (wall), 4770.36s (cpu)
<S^2> of ct_allowed wavefunction after ct-allowed iterations 0.0000000000

================================
        Results of EDA2         
================================
Basic EDA Quantities
--------------------
Fragment Energies (Ha):
1 -228.6593165537
2 -245.2027204411
--------------------
  E_prp (kJ/mol) = 0.0000
  E_sol (kJ/mol) = 419.9659
  E_frz (kJ/mol) = -428.8737
  E_pol (kJ/mol) = -7.0267
  E_vct (kJ/mol) = -22.9483
  E_int (kJ/mol) = -38.8828
--------------------


Initial Wavefunction Decomposition
--------------------
  --------------------
  Orthogonal Fragment Subspace Decomposition:
  --------------------
     E_elec   (ELEC)   (kJ/mol) = -568.8772
     E_pauli  (PAULI)  (kJ/mol) = 163.2989
     E_disp   (DISP)   (kJ/mol) = -23.2955
     --------------------
     Terms summing to E_pauli:
     --------------------
        E_kep_pauli       (kJ/mol) = 198.5714
        E_disp_free_pauli (kJ/mol) = -35.2725
  --------------------
  Classical Frozen Decomposition:
  --------------------
     E_cls_elec  (CLS ELEC)  (kJ/mol) = -506.6064
     E_cls_pauli (CLS PAULI) (kJ/mol) = 77.7326
    [E_mod_pauli (MOD PAULI) (kJ/mol) = 101.0281 (CLS PAULI - DISP from orthogonal decomposition) ]
  --------------------
--------------------

Simplified EDA Summary (kJ/mol)
--------------------
 PREPARATION     0.0000
 SOLVATION       419.9659
 FROZEN          -405.5782      (does not include dispersion)
[PAULI           163.2989]     (if this is negligible, then frozen describes electrostatics)
 DISPERSION      -23.2955
 POLARIZATION    -7.0267
 CHARGE TRANSFER -22.9483
 TOTAL           -38.8828     (PRP + SOL + FRZ + DISP + POL + CT)
--------------------
 
 --------------------------------------------------------------
 
                    Orbital Energies (a.u.)
 --------------------------------------------------------------
 
 Alpha MOs
 -- Occupied --
-19.1635 -19.1624 -14.4404 -14.4401 -14.4268 -10.4109 -10.3647 -10.3011
-10.2520  -1.1767  -1.1611  -1.0749  -1.0425  -1.0303  -0.8450  -0.8442
 -0.7557  -0.7111  -0.6778  -0.6352  -0.6075  -0.5970  -0.5850  -0.5635
 -0.5550  -0.5507  -0.5437  -0.5196  -0.5005  -0.4861  -0.4673  -0.3905
 -0.3763  -0.3665  -0.3639  -0.3545
 -- Virtual --
  0.0576   0.0780   0.0836   0.0944   0.1048   0.1070   0.1159   0.1219
  0.1319   0.1336   0.1428   0.1481   0.1492   0.1582   0.1608   0.1753
  0.1873   0.1903   0.1961   0.2067   0.2073   0.2128   0.2255   0.2306
  0.2355   0.2427   0.2473   0.2557   0.2637   0.2660   0.2699   0.2777
  0.2825   0.2903   0.2943   0.2979   0.3076   0.3094   0.3194   0.3236
  0.3288   0.3361   0.3397   0.3433   0.3463   0.3500   0.3517   0.3569
  0.3620   0.3712   0.3744   0.3761   0.3787   0.3820   0.3859   0.3940
  0.4031   0.4046   0.4087   0.4158   0.4199   0.4301   0.4375   0.4408
  0.4478   0.4545   0.4573   0.4598   0.4696   0.4723   0.4829   0.4866
  0.4894   0.4933   0.4982   0.5038   0.5048   0.5130   0.5165   0.5314
  0.5326   0.5399   0.5439   0.5504   0.5617   0.5650   0.5717   0.5736
  0.5820   0.5863   0.5955   0.5979   0.6061   0.6132   0.6172   0.6308
  0.6323   0.6456   0.6528   0.6585   0.6671   0.6704   0.6785   0.6848
  0.7009   0.7029   0.7073   0.7168   0.7222   0.7282   0.7363   0.7418
  0.7526   0.7555   0.7725   0.7752   0.7841   0.7937   0.7959   0.8071
  0.8172   0.8194   0.8283   0.8308   0.8400   0.8460   0.8569   0.8602
  0.8685   0.8732   0.8827   0.9062   0.9091   0.9208   0.9229   0.9302
  0.9439   0.9603   0.9631   0.9686   0.9814   0.9929   1.0154   1.0309
  1.0436   1.0594   1.0677   1.0838   1.0918   1.0972   1.1138   1.1228
  1.1375   1.1392   1.1557   1.1589   1.1845   1.1894   1.2015   1.2103
  1.2261   1.2354   1.2424   1.2481   1.2615   1.2793   1.3105   1.3185
  1.3328   1.3441   1.3567   1.3715   1.3979   1.4142   1.4266   1.4463
  1.4769   1.4936   1.5134   1.5378   1.5479   1.6056   1.6239   1.6579
  1.6720   1.6928   1.7180   1.7344   1.7379   1.7557   1.7706   1.8441
  1.8679   1.8796   1.8876   1.8927   1.9089   1.9149   1.9257   1.9326
  1.9378   1.9522   1.9619   1.9717   1.9854   1.9923   2.0112   2.0289
  2.0362   2.0483   2.0661   2.0871   2.1164   2.1313   2.1490   2.1618
  2.1729   2.2059   2.2211   2.2295   2.2400   2.2518   2.2741   2.2925
  2.3071   2.3370   2.3562   2.3587   2.3744   2.4020   2.4284   2.4579
  2.4629   2.4688   2.4900   2.5092   2.5302   2.5401   2.5689   2.5898
  2.5969   2.6139   2.6320   2.6529   2.6567   2.6786   2.6847   2.7088
  2.7180   2.7224   2.7522   2.7770   2.7865   2.8333   2.8516   2.8622
  2.8758   2.8825   2.9212   2.9262   2.9389   2.9723   2.9820   3.0046
  3.0242   3.0337   3.0771   3.1176   3.1793   3.1874   3.1979   3.2056
  3.2138   3.2300   3.2459   3.2577   3.2625   3.2801   3.2890   3.3083
  3.3169   3.3365   3.3400   3.3457   3.3701   3.3845   3.3986   3.4127
  3.4223   3.4276   3.4560   3.4602   3.4717   3.5043   3.5197   3.5388
  3.5533   3.5705   3.6124   3.6214   3.6313   3.6444   3.6574   3.6811
  3.7119   3.7350   3.7363   3.7580   3.7712   3.8344   3.8890   3.9028
  3.9353   3.9923   4.0217   4.0352   4.0825   4.1076   4.1847   4.1899
  4.2144   4.2622   4.3351   4.3410   4.3647   4.3727   4.3869   4.3983
  4.5133   4.5722   4.5942   4.6162   4.6436   4.6482   4.6805   4.8209
  4.8554   4.8604   4.8714   4.9101   4.9869   4.9935   5.0328   5.0662
  5.0908   5.1466   5.1492   5.1680   5.2002   5.2107   5.2446   5.3036
  5.3228   5.3266   5.3477   5.3792   5.4015   5.4180   5.4448   5.4703
  5.4732   5.4877   5.5359   5.5490   5.5983   5.6779   5.7262   5.7478
  5.7512   5.7816   5.8162   5.8438   5.9325   6.0074   6.1745   6.2106
  6.2333   6.3125   6.3569   6.4191   6.5176   6.6025   6.6688   6.7177
  6.7455   6.8033   6.9534   6.9923   7.0252   7.2442   7.3215   7.3879
  7.4268  22.5969  22.6844  23.7046  23.7171  32.4024  32.5557  32.9670
 44.2733  44.3668
 --------------------------------------------------------------
 
          Ground-State Mulliken Net Atomic Charges

     Atom                 Charge (a.u.)
  ----------------------------------------
      1 C                    -0.784966
      2 C                     0.640650
      3 O                    -0.843470
      4 O                    -0.820715
      5 H                     0.233791
      6 H                     0.245472
      7 H                     0.238865
      8 C                    -0.873581
      9 C                     0.392285
     10 N                    -0.135667
     11 N                     0.061000
     12 N                    -0.267516
     13 H                     0.137733
     14 H                     0.243724
     15 H                     0.211153
     16 H                     0.204241
     17 H                     0.250489
     18 H                     0.321313
     19 H                     0.283471
     20 H                     0.261729
  ----------------------------------------
  Sum of atomic charges =     0.000000

 -----------------------------------------------------------------
                    Cartesian Multipole Moments
 -----------------------------------------------------------------
    Charge (ESU x 10^10)
                 0.0000
    Dipole Moment (Debye)
         X       4.7188      Y      12.9405      Z       0.7123
       Tot      13.7924
    Quadrupole Moments (Debye-Ang)
        XX     -52.5633     XY       8.1644     YY     -35.9605
        XZ       0.8447     YZ      -7.6198     ZZ     -51.9310
    Octopole Moments (Debye-Ang^2)
       XXX      28.9891    XXY      22.8378    XYY      14.3536
       YYY      95.6818    XXZ      16.6214    XYZ      17.4153
       YYZ     -21.8445    XZZ       4.9201    YZZ      23.4039
       ZZZ      -9.3436
    Hexadecapole Moments (Debye-Ang^3)
      XXXX    -673.9132   XXXY    -322.2477   XXYY    -301.8634
      XYYY    -227.4074   YYYY   -1107.8391   XXXZ     -70.9731
      XXYZ      17.0743   XYYZ     -18.6801   YYYZ      -5.6728
      XXZZ    -160.9486   XYZZ    -124.6089   YYZZ    -250.1025
      XZZZ     -61.1952   YZZZ      41.9336   ZZZZ    -292.2212
 -----------------------------------------------------------------
Archival summary:
1\1\nid00534\SP\ProcedureUnspecified\BasisUnspecified\23411\meili\SunSep2612:42:152021SunSep2612:42:152021\0\\#,ProcedureUnspecified,BasisUnspecified,\\0,1\N\H,1,1.01982\C,1,1.32796,2,116.796\N,3,1.31752,1,119.828,2,1.70353,0\H,4,1.00588,3,120.855,1,-178.684,0\H,4,1.02322,3,119.462,1,4.42192,0\N,3,1.31987,1,121.056,2,-178.112,0\H,7,1.00504,3,119.946,1,2.33356,0\H,7,1.00887,3,120.38,1,179.081,0\C,1,1.47184,2,117.994,3,-179.036,0\H,10,1.0923,1,110.348,2,135.039,0\H,10,1.09232,1,108.888,2,17.7347,0\H,10,1.1,1,112.256,2,-102.613,0\O,6,1.86001,4,168.95,3,120.167,0\C,14,1.25315,6,112.265,4,-123.148,0\O,15,1.25256,14,121.837,6,-23.9758,0\C,15,1.52923,14,117.807,6,156.443,0\H,17,1.08967,15,109.944,14,-51.7775,0\H,17,1.09274,15,108.521,14,64.9287,0\H,17,1.1,15,114.548,14,-174.84,0\\\@

 Total job time:  26515.84s(wall), 17647.18s(cpu) 
 Sun Sep 26 12:42:19 2021

        *************************************************************
        *                                                           *
        *  Thank you very much for using Q-Chem.  Have a nice day.  *
        *                                                           *
        *************************************************************


