
Running Job 1 of 1 SSI-045ASP-081GLU-1_PCM_TZVPD.in
qchem SSI-045ASP-081GLU-1_PCM_TZVPD.in_35061.0 /tmp/qchem35061/ 0
/global/common/cori/software/qchem/5.2/exe/qcprog.exe_s SSI-045ASP-081GLU-1_PCM_TZVPD.in_35061.0 /tmp/qchem35061/
                  Welcome to Q-Chem
     A Quantum Leap Into The Future Of Chemistry


 Q-Chem 5.2, Q-Chem, Inc., Pleasanton, CA (2019)

 License issued to: National Energy Research Scientific Computing Center

 Yihan Shao,  Zhengting Gan,  E. Epifanovsky,  A. T. B. Gilbert,  M. Wormit,  
 J. Kussmann,  A. W. Lange,  A. Behn,  Jia Deng,  Xintian Feng,  D. Ghosh,  
 M. Goldey,  P. R. Horn,  L. D. Jacobson,  I. Kaliman,  T. Kus,  A. Landau,  
 Jie Liu,  E. I. Proynov,  R. M. Richard,  R. P. Steele,  E. J. Sundstrom,  
 H. L. Woodcock III,  P. M. Zimmerman,  D. Zuev,  B. Albrecht,  E. Alguire,  
 S. A. Baeppler,  D. Barton,  Z. Benda,  Y. A. Bernard,  E. J. Berquist,  
 K. B. Bravaya,  H. Burton,  D. Casanova,  Chun-Min Chang,  Yunqing Chen,  
 A. Chien,  K. D. Closser,  M. P. Coons,  S. Coriani,  S. Dasgupta,  
 A. L. Dempwolff,  M. Diedenhofen,  Hainam Do,  R. G. Edgar,  Po-Tung Fang,  
 S. Faraji,  S. Fatehi,  Qingguo Feng,  K. D. Fenk,  J. Fosso-Tande,  
 J. Gayvert,  Qinghui Ge,  A. Ghysels,  G. Gidofalvi,  J. Gomes,  
 J. Gonthier,  A. Gunina,  D. Hait,  M. W. D. Hanson-Heine,  
 P. H. P. Harbach,  A. W. Hauser,  M. F. Herbst,  J. E. Herr,  
 E. G. Hohenstein,  Z. C. Holden,  Kerwin Hui,  B. C. Huynh,  T.-C. Jagau,  
 Hyunjun Ji,  B. Kaduk,  K. Khistyaev,  Jaehoon Kim,  P. Klunzinger,  K. Koh,  
 D. Kosenkov,  L. Koulias,  T. Kowalczyk,  C. M. Krauter,  A. Kunitsa,  
 Ka Un Lao,  A. Laurent,  K. V. Lawler,  Joonho Lee,  D. Lefrancois,  
 S. Lehtola,  D. S. Levine,  Yi-Pei Li,  You-Sheng Lin,  Fenglai Liu,  
 E. Livshits,  A. Luenser,  P. Manohar,  E. Mansoor,  S. F. Manzer,  
 Shan-Ping Mao,  Yuezhi Mao,  N. Mardirossian,  A. V. Marenich,  
 T. Markovich,  L. A. Martinez-Martinez,  S. A. Maurer,  N. J. Mayhall,  
 S. C. McKenzie,  J.-M. Mewes,  P. Morgante,  A. F. Morrison,  
 J. W. Mullinax,  K. Nanda,  T. S. Nguyen-Beck,  R. Olivares-Amaya,  
 J. A. Parkhill,  Zheng Pei,  T. M. Perrine,  F. Plasser,  P. Pokhilko,  
 S. Prager,  A. Prociuk,  E. Ramos,  D. R. Rehn,  F. Rob,  M. Scheurer,  
 M. Schneider,  N. Sergueev,  S. M. Sharada,  S. Sharma,  D. W. Small,  
 T. Stauch,  T. Stein,  Yu-Chuan Su,  A. J. W. Thom,  A. Tkatchenko,  
 T. Tsuchimochi,  N. M. Tubman,  L. Vogt,  M. L. Vidal,  O. Vydrov,  
 M. A. Watson,  J. Wenzel,  M. de Wergifosse,  T. A. Wesolowski,  A. White,  
 J. Witte,  A. Yamada,  Jun Yang,  K. Yao,  S. Yeganeh,  S. R. Yost,  
 Zhi-Qiang You,  A. Zech,  Igor Ying Zhang,  Xing Zhang,  Yan Zhao,  
 Ying Zhu,  B. R. Brooks,  G. K. L. Chan,  C. J. Cramer,  M. S. Gordon,  
 W. J. Hehre,  A. Klamt,  M. W. Schmidt,  C. D. Sherrill,  D. G. Truhlar,  
 A. Aspuru-Guzik,  R. Baer,  A. T. Bell,  N. A. Besley,  Jeng-Da Chai,  
 A. E. DePrince, III,  R. A. DiStasio Jr.,  A. Dreuw,  B. D. Dunietz,  
 T. R. Furlani,  Chao-Ping Hsu,  Yousung Jung,  Jing Kong,  D. S. Lambrecht,  
 WanZhen Liang,  C. Ochsenfeld,  V. A. Rassolov,  L. V. Slipchenko,  
 J. E. Subotnik,  T. Van Voorhis,  J. M. Herbert,  A. I. Krylov,  
 P. M. W. Gill,  M. Head-Gordon

 Contributors to earlier versions of Q-Chem not listed above: 
 R. D. Adamson,  B. Austin,  J. Baker,  G. J. O. Beran,  K. Brandhorst,  
 S. T. Brown,  E. F. C. Byrd,  A. K. Chakraborty,  C.-L. Cheng,  
 Siu Hung Chien,  D. M. Chipman,  D. L. Crittenden,  H. Dachsel,  
 R. J. Doerksen,  A. D. Dutoi,  L. Fusti-Molnar,  W. A. Goddard III,  
 A. Golubeva-Zadorozhnaya,  S. R. Gwaltney,  G. Hawkins,  A. Heyden,  
 S. Hirata,  G. Kedziora,  F. J. Keil,  C. Kelley,  Jihan Kim,  R. A. King,  
 R. Z. Khaliullin,  P. P. Korambath,  W. Kurlancheek,  A. M. Lee,  M. S. Lee,  
 S. V. Levchenko,  Ching Yeh Lin,  D. Liotard,  R. C. Lochan,  I. Lotan,  
 P. E. Maslen,  N. Nair,  D. P. O'Neill,  D. Neuhauser,  E. Neuscamman,  
 C. M. Oana,  R. Olson,  B. Peters,  R. Peverati,  P. A. Pieniazek,  
 Y. M. Rhee,  J. Ritchie,  M. A. Rohrdanz,  E. Rosta,  N. J. Russ,  
 H. F. Schaefer III,  N. E. Schultz,  N. Shenvi,  A. C. Simmonett,  A. Sodt,  
 D. Stuck,  K. S. Thanthiriwatte,  V. Vanovschi,  Tao Wang,  A. Warshel,  
 C. F. Williams,  Q. Wu,  X. Xu,  W. Zhang

 Please cite Q-Chem as follows:
 Y. Shao et al., Mol. Phys. 113, 184-215 (2015)
 DOI: 10.1080/00268976.2014.952696

 Q-Chem 5.2.0 for Intel X86 EM64T Linux

 Parts of Q-Chem use Armadillo 8.300.2 (Tropical Shenanigans).
 http://arma.sourceforge.net/

 Q-Chem begins on Sun Sep 26 07:54:28 2021  

Host: cori01
0

     Scratch files written to /tmp/qchem35061//
 May1019 |scratch|qcdevops|jenkins|workspace|build_RNUM -1
Processing $rem in /global/common/cori/software/qchem/5.2/config/preferences:
	 MEM_TOTAL  96000 
NAlpha2: 64
NElect   64
Mult     1
Symmetry turned off for PCM/SM12/SMD calculation

 Q-Chem warning in module libgen/rem_setup.C, line 2803:

 Neither GIA nor STOLL is specified by user. Use STOLL as the default


Checking the input file for inconsistencies... 	...done.

--------------------------------------------------------------
User input:
--------------------------------------------------------------
$comment
SSI-045ASP-081GLU-1.pdb
$end

$molecule
-2 1
--
-1 1
C    0.931353963890    1.584837822833   -2.981344876531
C    0.151353963890    1.141837822833   -1.753344876531
O    0.531353963890    0.091837822833   -1.201344876531
O   -0.819646036110    1.826837822833   -1.351344876531
H    1.826353963890    2.109837822833   -2.638344876531
H    0.327353963890    2.285837822833   -3.559344876531
H    1.230476963890    0.730200822833   -3.605944876531
--
-1 1
C    0.827353963890   -2.113162177167    1.421655123469
C   -0.245646036110   -1.105162177167    1.848655123469
O   -0.669646036110   -0.282162177167    1.014655123469
O   -0.710646036110   -1.143162177167    3.009655123469
H    1.425353963890   -1.683162177167    0.617655123469
H    0.343353963890   -3.011162177167    1.034655123469
H    1.510833963890   -2.407418177167    2.231755123469
$end

$rem
JOBTYPE			EDA
EDA2			1
method			wB97X-V
BASIS			def2-TZVPD
XC_GRID			000099000590
NL_GRID			1
UNRESTRICTED		FALSE
MAX_SCF_CYCLES		200
SYMMETRY		FALSE
SYM_IGNORE		TRUE
MEM_STATIC		2000
BASIS_LIN_DEP_THRESH 	6
THRESH 			14
SCF_CONVERGENCE 	8
SCF_PRINT_FRGM 		TRUE
SOLVENT_METHOD          PCM
$end

$PCM
THEORY                  CPCM
METHOD                  SWIG
SOLVER                  INVERSION
RADII                   UFF
HPOINTS                 302
HEAVYPOINTS             302
PRINTLEVEL              0
$END

$SOLVENT
DIELECTRIC              78.390000 ! water
$END
--------------------------------------------------------------
 ----------------------------------------------------------------
             Standard Nuclear Orientation (Angstroms)
    I     Atom           X                Y                Z
 ----------------------------------------------------------------
    1      C       0.9313539639     1.5848378228    -2.9813448765
    2      C       0.1513539639     1.1418378228    -1.7533448765
    3      O       0.5313539639     0.0918378228    -1.2013448765
    4      O      -0.8196460361     1.8268378228    -1.3513448765
    5      H       1.8263539639     2.1098378228    -2.6383448765
    6      H       0.3273539639     2.2858378228    -3.5593448765
    7      H       1.2304769639     0.7302008228    -3.6059448765
    8      C       0.8273539639    -2.1131621772     1.4216551235
    9      C      -0.2456460361    -1.1051621772     1.8486551235
   10      O      -0.6696460361    -0.2821621772     1.0146551235
   11      O      -0.7106460361    -1.1431621772     3.0096551235
   12      H       1.4253539639    -1.6831621772     0.6176551235
   13      H       0.3433539639    -3.0111621772     1.0346551235
   14      H       1.5108339639    -2.4074181772     2.2317551235
 ----------------------------------------------------------------
 Nuclear Repulsion Energy =         343.75483603 hartrees
 There are       32 alpha and       32 beta electrons
 Requested basis set is def2-TZVPD
 There are 138 shells and 362 basis functions

 Total QAlloc Memory Limit  96000 MB
 Mega-Array Size      1956 MB
 MEM_STATIC part      2000 MB
 Discretize the solute cavity surface with Lebedev spheres
	Using 302 Lebedev grid points for each H atom
	Using 302 Lebedev grid points for other atoms
	Atomic van der Waals radii will be scaled by 1.20
 Remove points where switching function is < 1.0e-08
 Keep 1869 surface tesserae and discard 2359 interior tesserae
 Molecular Surface Area = 207.883 Angst**2

                       Distance Matrix (Angstroms)
             C (  1)   C (  2)   O (  3)   O (  4)   H (  5)   H (  6)
   C (  2)  1.520734
   O (  3)  2.357424  1.245634
   O (  4)  2.404468  1.254460  2.204070
   H (  5)  1.092840  2.127410  2.795410  2.955973
   H (  6)  1.091009  2.145075  3.227292  2.530129  1.768111
   H (  7)  1.100002  2.183135  2.584256  3.238648  1.787377  1.799391
   C (  8)  5.750863  4.597024  3.439443  5.091732  5.942670  6.664200
   C (  9)  5.652462  4.263921  3.367349  4.377910  5.895980  6.408875
   O ( 10)  4.692218  3.219261  2.548123  3.173064  5.029522  5.339486
   O ( 11)  6.784558  5.352610  4.560736  5.277414  6.994161  7.482463
   H ( 12)  4.886375  3.901966  2.694183  4.608371  5.014896  5.865654
   H ( 13)  6.131657  5.005718  3.829314  5.518316  6.474169  7.011655
   H ( 14)  6.591685  5.506943  4.357963  6.016533  6.650040  7.547458
             H (  7)   C (  8)   C (  9)   O ( 10)   O ( 11)   H ( 12)
   C (  8)  5.789990
   C (  9)  5.941394  1.532880
   O ( 10)  5.097577  2.399837  1.246058
   O ( 11)  7.144481  2.414143  1.251235  2.173253
   H ( 12)  4.868377  1.090376  2.154457  2.551359  3.252039
   H ( 13)  6.026604  1.091068  2.154612  2.911015  2.915641  1.763008
   H ( 14)  6.633400  1.099997  2.219878  3.279106  2.671787  1.771206
             H ( 13)
   H ( 14)  1.777798
 
 A cutoff of  1.0D-14 yielded   8517 shell pairs
 There are     59233 function pairs (     75663 Cartesian)
 Smallest overlap matrix eigenvalue = 9.47E-06

 Scale SEOQF with 1.000000e-01/1.000000e-01/1.000000e-01

 Standard Electronic Orientation quadrupole field applied
 Nucleus-field energy     =    -0.0000000168 hartrees

 -----------------------------------------------------------------------
  General SCF calculation program by
  Eric Jon Sundstrom, Paul Horn, Yuezhi Mao, Dmitri Zuev, Alec White,
  David Stuck, Shaama M.S., Shane Yost, Joonho Lee, David Small,
  Daniel Levine, Susi Lehtola, Hugh Burton, Evgeny Epifanovsky
 -----------------------------------------------------------------------
================================================================
                 ALMO-EDA with the EDA2 driver                  
================================================================
 The second-generation ALMO-EDA (for DFT):                      
 P. R. Horn, Y. Mao and M. Head-Gordon, PCCP, 18, 23067 (2016)  
 Decomposition of the frozen energy:                            
 P. R. Horn, Y. Mao and M. Head-Gordon, JCP, 144, 114107 (2016) 
 FERF model for polarization:                                   
 P. R. Horn and M. Head-Gordon, JCP, 143, 114111 (2015)         
Using eda2 option set 1
Option set summary: Frozen orbital wavefunction, initial wavefunction decomposition, and nDQ polarization.
--------------------------------
Printing EDA Options
--------------------------------
eda_child_super_basis      0
fragmo_guess_mode          0
child_mp                   1
child_mp_orders            232
cls_elec                   1
cls_disp                   0
scfmi_mode                 1
scfmi_occs                 0
scfmi_virts                0
frz_relax                  0
frz_relax_method           0
dc_pen_start               0
dc_pen_conv                0
dc_pen_increment           0
dc_pen_steps               0
dc_pen_thresh_factor       0
dc_pen_pre_newton_thresh   0
frz_ortho_decomp           1
frz_ortho_decomp_conv      6
frgm_method                2
scfmi_freeze_ss            0
separate_rehyb             0
plot_diff_den              0
eda_nocv                   0
eda_vct_relax              1
disp_free_x                0
disp_free_c                0
eda_bsse                   0
eda_pct_a                  0
eda_covp                   0
--------------------------------
Attempting to make child job directory: /tmp/qchem35061//Frg1/
Attempting to make child job directory: /tmp/qchem35061//Frg2/
Creating input file /tmp/qchem35061/Frg1.input
using default PutDataFrgm: nothing
calling putenv with: QCSCRATCH=/tmp/qchem35061/ 
calling putenv with: QCLOCALSCR=/tmp/qchem35061/ 
Spawning Job For Fragment 0
                  Welcome to Q-Chem
     A Quantum Leap Into The Future Of Chemistry


 Q-Chem 5.2, Q-Chem, Inc., Pleasanton, CA (2019)

 License issued to: National Energy Research Scientific Computing Center

 Yihan Shao,  Zhengting Gan,  E. Epifanovsky,  A. T. B. Gilbert,  M. Wormit,  
 J. Kussmann,  A. W. Lange,  A. Behn,  Jia Deng,  Xintian Feng,  D. Ghosh,  
 M. Goldey,  P. R. Horn,  L. D. Jacobson,  I. Kaliman,  T. Kus,  A. Landau,  
 Jie Liu,  E. I. Proynov,  R. M. Richard,  R. P. Steele,  E. J. Sundstrom,  
 H. L. Woodcock III,  P. M. Zimmerman,  D. Zuev,  B. Albrecht,  E. Alguire,  
 S. A. Baeppler,  D. Barton,  Z. Benda,  Y. A. Bernard,  E. J. Berquist,  
 K. B. Bravaya,  H. Burton,  D. Casanova,  Chun-Min Chang,  Yunqing Chen,  
 A. Chien,  K. D. Closser,  M. P. Coons,  S. Coriani,  S. Dasgupta,  
 A. L. Dempwolff,  M. Diedenhofen,  Hainam Do,  R. G. Edgar,  Po-Tung Fang,  
 S. Faraji,  S. Fatehi,  Qingguo Feng,  K. D. Fenk,  J. Fosso-Tande,  
 J. Gayvert,  Qinghui Ge,  A. Ghysels,  G. Gidofalvi,  J. Gomes,  
 J. Gonthier,  A. Gunina,  D. Hait,  M. W. D. Hanson-Heine,  
 P. H. P. Harbach,  A. W. Hauser,  M. F. Herbst,  J. E. Herr,  
 E. G. Hohenstein,  Z. C. Holden,  Kerwin Hui,  B. C. Huynh,  T.-C. Jagau,  
 Hyunjun Ji,  B. Kaduk,  K. Khistyaev,  Jaehoon Kim,  P. Klunzinger,  K. Koh,  
 D. Kosenkov,  L. Koulias,  T. Kowalczyk,  C. M. Krauter,  A. Kunitsa,  
 Ka Un Lao,  A. Laurent,  K. V. Lawler,  Joonho Lee,  D. Lefrancois,  
 S. Lehtola,  D. S. Levine,  Yi-Pei Li,  You-Sheng Lin,  Fenglai Liu,  
 E. Livshits,  A. Luenser,  P. Manohar,  E. Mansoor,  S. F. Manzer,  
 Shan-Ping Mao,  Yuezhi Mao,  N. Mardirossian,  A. V. Marenich,  
 T. Markovich,  L. A. Martinez-Martinez,  S. A. Maurer,  N. J. Mayhall,  
 S. C. McKenzie,  J.-M. Mewes,  P. Morgante,  A. F. Morrison,  
 J. W. Mullinax,  K. Nanda,  T. S. Nguyen-Beck,  R. Olivares-Amaya,  
 J. A. Parkhill,  Zheng Pei,  T. M. Perrine,  F. Plasser,  P. Pokhilko,  
 S. Prager,  A. Prociuk,  E. Ramos,  D. R. Rehn,  F. Rob,  M. Scheurer,  
 M. Schneider,  N. Sergueev,  S. M. Sharada,  S. Sharma,  D. W. Small,  
 T. Stauch,  T. Stein,  Yu-Chuan Su,  A. J. W. Thom,  A. Tkatchenko,  
 T. Tsuchimochi,  N. M. Tubman,  L. Vogt,  M. L. Vidal,  O. Vydrov,  
 M. A. Watson,  J. Wenzel,  M. de Wergifosse,  T. A. Wesolowski,  A. White,  
 J. Witte,  A. Yamada,  Jun Yang,  K. Yao,  S. Yeganeh,  S. R. Yost,  
 Zhi-Qiang You,  A. Zech,  Igor Ying Zhang,  Xing Zhang,  Yan Zhao,  
 Ying Zhu,  B. R. Brooks,  G. K. L. Chan,  C. J. Cramer,  M. S. Gordon,  
 W. J. Hehre,  A. Klamt,  M. W. Schmidt,  C. D. Sherrill,  D. G. Truhlar,  
 A. Aspuru-Guzik,  R. Baer,  A. T. Bell,  N. A. Besley,  Jeng-Da Chai,  
 A. E. DePrince, III,  R. A. DiStasio Jr.,  A. Dreuw,  B. D. Dunietz,  
 T. R. Furlani,  Chao-Ping Hsu,  Yousung Jung,  Jing Kong,  D. S. Lambrecht,  
 WanZhen Liang,  C. Ochsenfeld,  V. A. Rassolov,  L. V. Slipchenko,  
 J. E. Subotnik,  T. Van Voorhis,  J. M. Herbert,  A. I. Krylov,  
 P. M. W. Gill,  M. Head-Gordon

 Contributors to earlier versions of Q-Chem not listed above: 
 R. D. Adamson,  B. Austin,  J. Baker,  G. J. O. Beran,  K. Brandhorst,  
 S. T. Brown,  E. F. C. Byrd,  A. K. Chakraborty,  C.-L. Cheng,  
 Siu Hung Chien,  D. M. Chipman,  D. L. Crittenden,  H. Dachsel,  
 R. J. Doerksen,  A. D. Dutoi,  L. Fusti-Molnar,  W. A. Goddard III,  
 A. Golubeva-Zadorozhnaya,  S. R. Gwaltney,  G. Hawkins,  A. Heyden,  
 S. Hirata,  G. Kedziora,  F. J. Keil,  C. Kelley,  Jihan Kim,  R. A. King,  
 R. Z. Khaliullin,  P. P. Korambath,  W. Kurlancheek,  A. M. Lee,  M. S. Lee,  
 S. V. Levchenko,  Ching Yeh Lin,  D. Liotard,  R. C. Lochan,  I. Lotan,  
 P. E. Maslen,  N. Nair,  D. P. O'Neill,  D. Neuhauser,  E. Neuscamman,  
 C. M. Oana,  R. Olson,  B. Peters,  R. Peverati,  P. A. Pieniazek,  
 Y. M. Rhee,  J. Ritchie,  M. A. Rohrdanz,  E. Rosta,  N. J. Russ,  
 H. F. Schaefer III,  N. E. Schultz,  N. Shenvi,  A. C. Simmonett,  A. Sodt,  
 D. Stuck,  K. S. Thanthiriwatte,  V. Vanovschi,  Tao Wang,  A. Warshel,  
 C. F. Williams,  Q. Wu,  X. Xu,  W. Zhang

 Please cite Q-Chem as follows:
 Y. Shao et al., Mol. Phys. 113, 184-215 (2015)
 DOI: 10.1080/00268976.2014.952696

 Q-Chem 5.2.0 for Intel X86 EM64T Linux

 Parts of Q-Chem use Armadillo 8.300.2 (Tropical Shenanigans).
 http://arma.sourceforge.net/

 Q-Chem begins on Sun Sep 26 07:54:31 2021  

Host: cori01
0

     Scratch files written to /tmp/qchem35061//Frg1//
 May1019 |scratch|qcdevops|jenkins|workspace|build_RNUM -1
Processing $rem in /global/common/cori/software/qchem/5.2/config/preferences:
	 MEM_TOTAL  96000 
NAlpha2: 32
NElect   32
Mult     1
Symmetry turned off for PCM/SM12/SMD calculation

Checking the input file for inconsistencies... 	...done.

--------------------------------------------------------------
User input:
--------------------------------------------------------------
$molecule
-1 1
 6	0.9313539639	1.5848378228	-2.9813448765
 6	0.1513539639	1.1418378228	-1.7533448765
 8	0.5313539639	0.0918378228	-1.2013448765
 8	-0.8196460361	1.8268378228	-1.3513448765
 1	1.8263539639	2.1098378228	-2.6383448765
 1	0.3273539639	2.2858378228	-3.5593448765
 1	1.2304769639	0.7302008228	-3.6059448765
$end
$rem
EDA2		1
METHOD		WB97X-V
BASIS		DEF2-TZVPD
XC_GRID		000099000590
NL_GRID		1
UNRESTRICTED		FALSE
MAX_SCF_CYCLES		200
SYMMETRY		FALSE
SYM_IGNORE		TRUE
BASIS_LIN_DEP_THRESH		6
THRESH		14
SCF_CONVERGENCE		8
SCF_PRINT_FRGM		TRUE
SOLVENT_METHOD		PCM
!required keywords
JOBTYPE		SP
SYM_IGNORE		TRUE
SUBSYSTEM		TRUE
GEN_SCFMAN		TRUE
CHILD_INSTRUCTION		2
SYM_IGNORE		TRUE
SCFMI		0
RI_K 0		
PARI_K 0		
MIN_PARI_K 0		
IARI_K 0		
OCC_RI_K 0		
PURECART		1111
MEM_STATIC		2000
MEM_TOTAL		96000
GUI		0
CHILD_MP		1
CHILD_MP_ORDERS		232
FRZ_RELAX		0
FRZ_RELAX_METHOD		0
EDA_CLS_ELEC		1
EDA_CLS_DISP		0
FRZ_ORTHO_DECOMP		1
EDA2		FALSE
FRGM_METHOD		FALSE
CIS_N_ROOTS  0
LOCAL_CIS    0
CIS_RLX_DNS  1
$end
$pcm
THEORY                  CPCM
METHOD                  SWIG
SOLVER                  INVERSION
RADII                   UFF
HPOINTS                 302
HEAVYPOINTS             302
PRINTLEVEL              0
$end
$solvent
DIELECTRIC              78.390000 ! water
$end
--------------------------------------------------------------
 ----------------------------------------------------------------
             Standard Nuclear Orientation (Angstroms)
    I     Atom           X                Y                Z
 ----------------------------------------------------------------
    1      C       0.9313539639     1.5848378228    -2.9813448765
    2      C       0.1513539639     1.1418378228    -1.7533448765
    3      O       0.5313539639     0.0918378228    -1.2013448765
    4      O      -0.8196460361     1.8268378228    -1.3513448765
    5      H       1.8263539639     2.1098378228    -2.6383448765
    6      H       0.3273539639     2.2858378228    -3.5593448765
    7      H       1.2304769639     0.7302008228    -3.6059448765
 ----------------------------------------------------------------
 Nuclear Repulsion Energy =         112.76648201 hartrees
 There are       16 alpha and       16 beta electrons
 Requested basis set is def2-TZVPD
 There are 69 shells and 181 basis functions

 Total QAlloc Memory Limit  96000 MB
 Mega-Array Size      1956 MB
 MEM_STATIC part      2000 MB
 Discretize the solute cavity surface with Lebedev spheres
	Using 302 Lebedev grid points for each H atom
	Using 302 Lebedev grid points for other atoms
	Atomic van der Waals radii will be scaled by 1.20
 Remove points where switching function is < 1.0e-08
 Keep 1018 surface tesserae and discard 1096 interior tesserae
 Molecular Surface Area = 120.063 Angst**2

                       Distance Matrix (Angstroms)
             C (  1)   C (  2)   O (  3)   O (  4)   H (  5)   H (  6)
   C (  2)  1.520734
   O (  3)  2.357424  1.245634
   O (  4)  2.404468  1.254460  2.204070
   H (  5)  1.092840  2.127410  2.795410  2.955973
   H (  6)  1.091009  2.145075  3.227292  2.530129  1.768111
   H (  7)  1.100002  2.183135  2.584256  3.238648  1.787377  1.799391

 
 A cutoff of  1.0D-14 yielded   2391 shell pairs
 There are     16695 function pairs (     21491 Cartesian)
 Smallest overlap matrix eigenvalue = 1.67E-05

 Scale SEOQF with 1.000000e-01/1.000000e-01/1.000000e-01

 Standard Electronic Orientation quadrupole field applied
 Nucleus-field energy     =    -0.0000000091 hartrees
 Guess from superposition of atomic densities
 Warning:  Energy on first SCF cycle will be non-variational
 SAD guess density has 30.625312 electrons

 -----------------------------------------------------------------------
  General SCF calculation program by
  Eric Jon Sundstrom, Paul Horn, Yuezhi Mao, Dmitri Zuev, Alec White,
  David Stuck, Shaama M.S., Shane Yost, Joonho Lee, David Small,
  Daniel Levine, Susi Lehtola, Hugh Burton, Evgeny Epifanovsky
 -----------------------------------------------------------------------
 Exchange:     0.1670 Hartree-Fock + 1.0000 wB97X-V + LR-HF
 Correlation:  1.0000 wB97X-V
 Using Euler-Maclaurin-Lebedev (99,590) quadrature formula
 Nonlocal Correlation:  VV10 with C = 0.0100 and b = 6.00 and scale = 1.00000
 Grid used for NLC:  SG-1 standard quadrature
Energy prior to optimization (guess energy) = -227.766034212432
Begin Timing: Total SCF Calculation
begin iterations for algorithm: DIIS         
the SCF tolerance is set to 1.00e-08
    1    -227.7660342124      1.66e-02     00000 
    2    -225.6122331296      2.53e-02     00000 
    3    -228.5775674303      4.13e-03     00000 
    4    -228.6364552293      1.36e-03     00000 
    5    -228.6424796989      1.99e-04     00000 
    6    -228.6427168252      1.03e-04     00000 
    7    -228.6427445985      5.81e-05     00000 
    8    -228.6427561008      1.38e-05     00000 
    9    -228.6427573694      2.82e-06     00000 
   10    -228.6427574708      3.98e-07     00000 
   11    -228.6427574736      1.53e-07     00000 
   12    -228.6427574738      5.24e-08     00000 
   13    -228.6427574739      1.94e-08     00000 
   14    -228.6427574739      2.79e-09     00000 Convergence criterion met
Timing for Total SCF: 300.00s (wall), 590.57s (cpu)

************** Final PCM Free Energy Summary **************
 G_electrostatic  =      -0.10154513 hartree =     -63.72053351 kcal/mol
 G_cavitation     =       0.00000000 hartree =       0.00000000 kcal/mol
 G_dispersion     =       0.00000000 hartree =       0.00000000 kcal/mol
 G_repulsion      =       0.00000000 hartree =       0.00000000 kcal/mol
 --------------------------------------------------
 Non-electrostatic Free Energy =       0.00000000 hartree =       0.00000000 kcal/mol
 Total                         =      -0.10154513 hartree =     -63.72053351 kcal/mol
 --------------------------------------------------
 SCF Energy (H0 + V/2)                       =    -228.64275747 
 Solute Internal Energy (H0)                 =    -228.54121234 
 Total Free Energy (H0 + V/2 + non-elec)     =    -228.64275747 hartree
                                             = -143475.49579040 kcal/mol
***********************************************************

E_pcm = -0.1015451343
Multipole orders to be included
        2
        3
computing dipole RHS
computing quadrupole RHS
total number of RHS in solve_reponses: 8
RHS batch sizes
        8
Beginning Block Conjugate Gradient Iterations. Batch Number: 0
computing hessian-vector products by finite difference
              1      6.60e-01     00000 Conjugate Gradient Iteration
computing hessian-vector products by finite difference
              2      2.29e-01     00000 Conjugate Gradient Iteration
computing hessian-vector products by finite difference
              3      6.00e-02     00000 Conjugate Gradient Iteration
computing hessian-vector products by finite difference
              4      1.59e-02     00000 Conjugate Gradient Iteration
computing hessian-vector products by finite difference
              5      2.83e-03     00000 Conjugate Gradient Iteration
computing hessian-vector products by finite difference
              6      6.81e-04     00000 Conjugate Gradient Iteration
computing hessian-vector products by finite difference
              7      1.12e-04     00000 Conjugate Gradient Iteration
computing hessian-vector products by finite difference
              8      1.38e-05     00000 Conjugate Gradient Iteration
computing hessian-vector products by finite difference
              9      2.17e-06     00000 Conjugate Gradient Iteration
computing hessian-vector products by finite difference
             10      2.50e-07     00000 Conjugate Gradient Iteration
computing hessian-vector products by finite difference
             11      3.60e-08     00000 Conjugate Gradient Iteration
computing hessian-vector products by finite difference
             12      4.80e-09     00000 CG Converged
batch 0 complete
Done Calculating Responses
TESTING ORTHOGONALIZATION OF MULTIPOLE BASIS
Multipole virts passed orthogonality test
Virts Per Order
        48
        80
 
 --------------------------------------------------------------
 
                    Orbital Energies (a.u.)
 --------------------------------------------------------------
 
 Alpha MOs
 -- Occupied --
-19.1225 -19.1208 -10.3240 -10.2388  -1.1325  -1.0327  -0.8281  -0.5908
 -0.5294  -0.5176  -0.5160  -0.4637  -0.4427  -0.3296  -0.3246  -0.3094
 -- Virtual --
  0.0632   0.0954   0.0961   0.1053   0.1304   0.1406   0.1423   0.1455
  0.1694   0.1912   0.2003   0.2204   0.2330   0.2358   0.2625   0.2697
  0.2998   0.3113   0.3340   0.3485   0.3578   0.3632   0.3745   0.3781
  0.3887   0.4088   0.4254   0.4278   0.4329   0.4606   0.4738   0.4764
  0.4922   0.4966   0.5027   0.5227   0.5601   0.5826   0.5937   0.6128
  0.6309   0.6464   0.6490   0.6563   0.6691   0.6853   0.6964   0.7092
  0.7247   0.7374   0.7879   0.8008   0.8121   0.8210   0.8504   0.8583
  0.8665   0.9801   0.9924   1.0003   1.0093   1.0455   1.0716   1.1119
  1.1571   1.2352   1.2571   1.2775   1.2874   1.3154   1.3589   1.3753
  1.4414   1.5639   1.6069   1.7390   1.8286   1.8714   1.8838   1.9189
  1.9367   1.9531   1.9626   1.9785   2.0193   2.1160   2.1310   2.1998
  2.2132   2.2268   2.3154   2.3493   2.4253   2.4546   2.4850   2.5043
  2.5627   2.5903   2.6309   2.6459   2.8005   2.8135   2.8706   2.9099
  2.9431   3.0304   3.0803   3.1685   3.2263   3.2482   3.2800   3.3031
  3.3471   3.3659   3.3982   3.4129   3.4364   3.5359   3.5943   3.6037
  3.6142   3.6713   3.7151   3.7352   3.7654   3.8517   3.9692   4.0657
  4.0905   4.1998   4.3535   4.5597   4.6268   4.6762   4.8038   4.8385
  4.9922   5.3329   5.3609   5.3694   5.3786   5.5101   5.7205   5.7669
  5.8236   6.0265   6.2566   6.3378   6.3601   6.6329   6.6354   6.7150
  6.7503   6.7619   6.9603   6.9798   7.0513   7.2458   7.3712   7.3853
  7.4206  22.5891  23.7474  44.2235  44.3704
 --------------------------------------------------------------
 
          Ground-State Mulliken Net Atomic Charges

     Atom                 Charge (a.u.)
  ----------------------------------------
      1 C                    -0.396017
      2 C                     0.286048
      3 O                    -0.669552
      4 O                    -0.679813
      5 H                     0.128695
      6 H                     0.160870
      7 H                     0.169769
  ----------------------------------------
  Sum of atomic charges =    -1.000000

 -----------------------------------------------------------------
                    Cartesian Multipole Moments
 -----------------------------------------------------------------
    Charge (ESU x 10^10)
                -4.8032
    Dipole Moment (Debye)
         X       1.5462      Y      -4.1407      Z       4.8448
       Tot       6.5581
    Quadrupole Moments (Debye-Ang)
        XX     -29.9217     XY       6.4714     YY     -35.7291
        XZ      -2.0179     YZ       4.9239     ZZ     -30.6592
    Octopole Moments (Debye-Ang^2)
       XXX     -17.3068    XXY     -35.2609    XYY       5.7949
       YYY    -114.1462    XXZ      54.7275    XYZ      -7.9872
       YYZ      62.1660    XZZ      -4.3653    YZZ     -37.8255
       ZZZ     152.1295
    Hexadecapole Moments (Debye-Ang^3)
      XXXX    -123.8741   XXXY      -2.7455   XXYY     -82.8815
      XYYY      13.4986   YYYY    -378.9574   XXXZ      62.2156
      XXYZ      72.5142   XYYZ       6.5069   YYYZ     225.0521
      XXZZ    -144.9173   XYZZ       3.5024   YYZZ    -189.2812
      XZZZ      65.9400   YZZZ     210.3867   ZZZZ    -699.1809
 -----------------------------------------------------------------
Archival summary:
1\1\nid00570\SP\ProcedureUnspecified\BasisUnspecified\223(1-,1)\meili\SunSep2609:14:572021SunSep2609:14:572021\0\\#,ProcedureUnspecified,BasisUnspecified,\\-1,1\C\O,1,1.24563\O,1,1.25446,2,123.67\C,1,1.52073,2,116.547,3,-179.901,0\H,4,1.09101,1,109.331,2,160.831,0\H,4,1.09284,1,107.852,2,-81.8316,0\H,4,1.1,1,111.818,2,38.2326,0\\\@

 Total job time:  4827.67s(wall), 9490.80s(cpu) 
 Sun Sep 26 09:14:59 2021

        *************************************************************
        *                                                           *
        *  Thank you very much for using Q-Chem.  Have a nice day.  *
        *                                                           *
        *************************************************************


Done Job For Fragment 0
calling putenv with: QCSCRATCH=/global/cscratch1/sd/meili 
calling putenv with: QCLOCALSCR=/tmp 
calling putenv with: QCTHREADS=32 
Creating input file /tmp/qchem35061/Frg2.input
using default PutDataFrgm: nothing
calling putenv with: QCSCRATCH=/tmp/qchem35061/ 
calling putenv with: QCLOCALSCR=/tmp/qchem35061/ 
Spawning Job For Fragment 1
                  Welcome to Q-Chem
     A Quantum Leap Into The Future Of Chemistry


 Q-Chem 5.2, Q-Chem, Inc., Pleasanton, CA (2019)

 License issued to: National Energy Research Scientific Computing Center

 Yihan Shao,  Zhengting Gan,  E. Epifanovsky,  A. T. B. Gilbert,  M. Wormit,  
 J. Kussmann,  A. W. Lange,  A. Behn,  Jia Deng,  Xintian Feng,  D. Ghosh,  
 M. Goldey,  P. R. Horn,  L. D. Jacobson,  I. Kaliman,  T. Kus,  A. Landau,  
 Jie Liu,  E. I. Proynov,  R. M. Richard,  R. P. Steele,  E. J. Sundstrom,  
 H. L. Woodcock III,  P. M. Zimmerman,  D. Zuev,  B. Albrecht,  E. Alguire,  
 S. A. Baeppler,  D. Barton,  Z. Benda,  Y. A. Bernard,  E. J. Berquist,  
 K. B. Bravaya,  H. Burton,  D. Casanova,  Chun-Min Chang,  Yunqing Chen,  
 A. Chien,  K. D. Closser,  M. P. Coons,  S. Coriani,  S. Dasgupta,  
 A. L. Dempwolff,  M. Diedenhofen,  Hainam Do,  R. G. Edgar,  Po-Tung Fang,  
 S. Faraji,  S. Fatehi,  Qingguo Feng,  K. D. Fenk,  J. Fosso-Tande,  
 J. Gayvert,  Qinghui Ge,  A. Ghysels,  G. Gidofalvi,  J. Gomes,  
 J. Gonthier,  A. Gunina,  D. Hait,  M. W. D. Hanson-Heine,  
 P. H. P. Harbach,  A. W. Hauser,  M. F. Herbst,  J. E. Herr,  
 E. G. Hohenstein,  Z. C. Holden,  Kerwin Hui,  B. C. Huynh,  T.-C. Jagau,  
 Hyunjun Ji,  B. Kaduk,  K. Khistyaev,  Jaehoon Kim,  P. Klunzinger,  K. Koh,  
 D. Kosenkov,  L. Koulias,  T. Kowalczyk,  C. M. Krauter,  A. Kunitsa,  
 Ka Un Lao,  A. Laurent,  K. V. Lawler,  Joonho Lee,  D. Lefrancois,  
 S. Lehtola,  D. S. Levine,  Yi-Pei Li,  You-Sheng Lin,  Fenglai Liu,  
 E. Livshits,  A. Luenser,  P. Manohar,  E. Mansoor,  S. F. Manzer,  
 Shan-Ping Mao,  Yuezhi Mao,  N. Mardirossian,  A. V. Marenich,  
 T. Markovich,  L. A. Martinez-Martinez,  S. A. Maurer,  N. J. Mayhall,  
 S. C. McKenzie,  J.-M. Mewes,  P. Morgante,  A. F. Morrison,  
 J. W. Mullinax,  K. Nanda,  T. S. Nguyen-Beck,  R. Olivares-Amaya,  
 J. A. Parkhill,  Zheng Pei,  T. M. Perrine,  F. Plasser,  P. Pokhilko,  
 S. Prager,  A. Prociuk,  E. Ramos,  D. R. Rehn,  F. Rob,  M. Scheurer,  
 M. Schneider,  N. Sergueev,  S. M. Sharada,  S. Sharma,  D. W. Small,  
 T. Stauch,  T. Stein,  Yu-Chuan Su,  A. J. W. Thom,  A. Tkatchenko,  
 T. Tsuchimochi,  N. M. Tubman,  L. Vogt,  M. L. Vidal,  O. Vydrov,  
 M. A. Watson,  J. Wenzel,  M. de Wergifosse,  T. A. Wesolowski,  A. White,  
 J. Witte,  A. Yamada,  Jun Yang,  K. Yao,  S. Yeganeh,  S. R. Yost,  
 Zhi-Qiang You,  A. Zech,  Igor Ying Zhang,  Xing Zhang,  Yan Zhao,  
 Ying Zhu,  B. R. Brooks,  G. K. L. Chan,  C. J. Cramer,  M. S. Gordon,  
 W. J. Hehre,  A. Klamt,  M. W. Schmidt,  C. D. Sherrill,  D. G. Truhlar,  
 A. Aspuru-Guzik,  R. Baer,  A. T. Bell,  N. A. Besley,  Jeng-Da Chai,  
 A. E. DePrince, III,  R. A. DiStasio Jr.,  A. Dreuw,  B. D. Dunietz,  
 T. R. Furlani,  Chao-Ping Hsu,  Yousung Jung,  Jing Kong,  D. S. Lambrecht,  
 WanZhen Liang,  C. Ochsenfeld,  V. A. Rassolov,  L. V. Slipchenko,  
 J. E. Subotnik,  T. Van Voorhis,  J. M. Herbert,  A. I. Krylov,  
 P. M. W. Gill,  M. Head-Gordon

 Contributors to earlier versions of Q-Chem not listed above: 
 R. D. Adamson,  B. Austin,  J. Baker,  G. J. O. Beran,  K. Brandhorst,  
 S. T. Brown,  E. F. C. Byrd,  A. K. Chakraborty,  C.-L. Cheng,  
 Siu Hung Chien,  D. M. Chipman,  D. L. Crittenden,  H. Dachsel,  
 R. J. Doerksen,  A. D. Dutoi,  L. Fusti-Molnar,  W. A. Goddard III,  
 A. Golubeva-Zadorozhnaya,  S. R. Gwaltney,  G. Hawkins,  A. Heyden,  
 S. Hirata,  G. Kedziora,  F. J. Keil,  C. Kelley,  Jihan Kim,  R. A. King,  
 R. Z. Khaliullin,  P. P. Korambath,  W. Kurlancheek,  A. M. Lee,  M. S. Lee,  
 S. V. Levchenko,  Ching Yeh Lin,  D. Liotard,  R. C. Lochan,  I. Lotan,  
 P. E. Maslen,  N. Nair,  D. P. O'Neill,  D. Neuhauser,  E. Neuscamman,  
 C. M. Oana,  R. Olson,  B. Peters,  R. Peverati,  P. A. Pieniazek,  
 Y. M. Rhee,  J. Ritchie,  M. A. Rohrdanz,  E. Rosta,  N. J. Russ,  
 H. F. Schaefer III,  N. E. Schultz,  N. Shenvi,  A. C. Simmonett,  A. Sodt,  
 D. Stuck,  K. S. Thanthiriwatte,  V. Vanovschi,  Tao Wang,  A. Warshel,  
 C. F. Williams,  Q. Wu,  X. Xu,  W. Zhang

 Please cite Q-Chem as follows:
 Y. Shao et al., Mol. Phys. 113, 184-215 (2015)
 DOI: 10.1080/00268976.2014.952696

 Q-Chem 5.2.0 for Intel X86 EM64T Linux

 Parts of Q-Chem use Armadillo 8.300.2 (Tropical Shenanigans).
 http://arma.sourceforge.net/

 Q-Chem begins on Sun Sep 26 09:15:02 2021  

Host: cori01
0

     Scratch files written to /tmp/qchem35061//Frg2//
 May1019 |scratch|qcdevops|jenkins|workspace|build_RNUM -1
Processing $rem in /global/common/cori/software/qchem/5.2/config/preferences:
	 MEM_TOTAL  96000 
NAlpha2: 32
NElect   32
Mult     1
Symmetry turned off for PCM/SM12/SMD calculation

Checking the input file for inconsistencies... 	...done.

--------------------------------------------------------------
User input:
--------------------------------------------------------------
$molecule
-1 1
 6	0.8273539639	-2.1131621772	1.4216551235
 6	-0.2456460361	-1.1051621772	1.8486551235
 8	-0.6696460361	-0.2821621772	1.0146551235
 8	-0.7106460361	-1.1431621772	3.0096551235
 1	1.4253539639	-1.6831621772	0.6176551235
 1	0.3433539639	-3.0111621772	1.0346551235
 1	1.5108339639	-2.4074181772	2.2317551235
$end
$rem
EDA2		1
METHOD		WB97X-V
BASIS		DEF2-TZVPD
XC_GRID		000099000590
NL_GRID		1
UNRESTRICTED		FALSE
MAX_SCF_CYCLES		200
SYMMETRY		FALSE
SYM_IGNORE		TRUE
BASIS_LIN_DEP_THRESH		6
THRESH		14
SCF_CONVERGENCE		8
SCF_PRINT_FRGM		TRUE
SOLVENT_METHOD		PCM
!required keywords
JOBTYPE		SP
SYM_IGNORE		TRUE
SUBSYSTEM		TRUE
GEN_SCFMAN		TRUE
CHILD_INSTRUCTION		2
SYM_IGNORE		TRUE
SCFMI		0
RI_K 0		
PARI_K 0		
MIN_PARI_K 0		
IARI_K 0		
OCC_RI_K 0		
PURECART		1111
MEM_STATIC		2000
MEM_TOTAL		96000
GUI		0
CHILD_MP		1
CHILD_MP_ORDERS		232
FRZ_RELAX		0
FRZ_RELAX_METHOD		0
EDA_CLS_ELEC		1
EDA_CLS_DISP		0
FRZ_ORTHO_DECOMP		1
EDA2		FALSE
FRGM_METHOD		FALSE
CIS_N_ROOTS  0
LOCAL_CIS    0
CIS_RLX_DNS  1
$end
$pcm
THEORY                  CPCM
METHOD                  SWIG
SOLVER                  INVERSION
RADII                   UFF
HPOINTS                 302
HEAVYPOINTS             302
PRINTLEVEL              0
$end
$solvent
DIELECTRIC              78.390000 ! water
$end
--------------------------------------------------------------
 ----------------------------------------------------------------
             Standard Nuclear Orientation (Angstroms)
    I     Atom           X                Y                Z
 ----------------------------------------------------------------
    1      C       0.8273539639    -2.1131621772     1.4216551235
    2      C      -0.2456460361    -1.1051621772     1.8486551235
    3      O      -0.6696460361    -0.2821621772     1.0146551235
    4      O      -0.7106460361    -1.1431621772     3.0096551235
    5      H       1.4253539639    -1.6831621772     0.6176551235
    6      H       0.3433539639    -3.0111621772     1.0346551235
    7      H       1.5108339639    -2.4074181772     2.2317551235
 ----------------------------------------------------------------
 Nuclear Repulsion Energy =         112.52776439 hartrees
 There are       16 alpha and       16 beta electrons
 Requested basis set is def2-TZVPD
 There are 69 shells and 181 basis functions

 Total QAlloc Memory Limit  96000 MB
 Mega-Array Size      1956 MB
 MEM_STATIC part      2000 MB
 Discretize the solute cavity surface with Lebedev spheres
	Using 302 Lebedev grid points for each H atom
	Using 302 Lebedev grid points for other atoms
	Atomic van der Waals radii will be scaled by 1.20
 Remove points where switching function is < 1.0e-08
 Keep 1029 surface tesserae and discard 1085 interior tesserae
 Molecular Surface Area = 119.979 Angst**2

                       Distance Matrix (Angstroms)
             C (  1)   C (  2)   O (  3)   O (  4)   H (  5)   H (  6)
   C (  2)  1.532880
   O (  3)  2.399837  1.246058
   O (  4)  2.414143  1.251235  2.173253
   H (  5)  1.090376  2.154457  2.551359  3.252039
   H (  6)  1.091068  2.154612  2.911015  2.915641  1.763008
   H (  7)  1.099997  2.219878  3.279106  2.671787  1.771206  1.777798

 
 A cutoff of  1.0D-14 yielded   2390 shell pairs
 There are     16694 function pairs (     21490 Cartesian)
 Smallest overlap matrix eigenvalue = 1.74E-05

 Scale SEOQF with 1.000000e-01/1.000000e-01/1.000000e-01

 Standard Electronic Orientation quadrupole field applied
 Nucleus-field energy     =    -0.0000000077 hartrees
 Guess from superposition of atomic densities
 Warning:  Energy on first SCF cycle will be non-variational
 SAD guess density has 30.625312 electrons

 -----------------------------------------------------------------------
  General SCF calculation program by
  Eric Jon Sundstrom, Paul Horn, Yuezhi Mao, Dmitri Zuev, Alec White,
  David Stuck, Shaama M.S., Shane Yost, Joonho Lee, David Small,
  Daniel Levine, Susi Lehtola, Hugh Burton, Evgeny Epifanovsky
 -----------------------------------------------------------------------
 Exchange:     0.1670 Hartree-Fock + 1.0000 wB97X-V + LR-HF
 Correlation:  1.0000 wB97X-V
 Using Euler-Maclaurin-Lebedev (99,590) quadrature formula
 Nonlocal Correlation:  VV10 with C = 0.0100 and b = 6.00 and scale = 1.00000
 Grid used for NLC:  SG-1 standard quadrature
Energy prior to optimization (guess energy) = -227.757940999593
Begin Timing: Total SCF Calculation
begin iterations for algorithm: DIIS         
the SCF tolerance is set to 1.00e-08
    1    -227.7579409996      1.66e-02     00000 
    2    -225.5633561565      2.56e-02     00000 
    3    -228.5753104653      4.14e-03     00000 
    4    -228.6345939356      1.39e-03     00000 
    5    -228.6408239510      2.59e-04     00000 
    6    -228.6410495350      2.08e-04     00000 
    7    -228.6411662383      4.98e-05     00000 
    8    -228.6411772874      1.44e-05     00000 
    9    -228.6411786535      3.02e-06     00000 
   10    -228.6411787600      4.60e-07     00000 
   11    -228.6411787630      2.09e-07     00000 
   12    -228.6411787635      6.61e-08     00000 
   13    -228.6411787635      1.61e-08     00000 
   14    -228.6411787635      2.91e-09     00000 Convergence criterion met
Timing for Total SCF: 307.00s (wall), 601.89s (cpu)

************** Final PCM Free Energy Summary **************
 G_electrostatic  =      -0.10235460 hartree =     -64.22848358 kcal/mol
 G_cavitation     =       0.00000000 hartree =       0.00000000 kcal/mol
 G_dispersion     =       0.00000000 hartree =       0.00000000 kcal/mol
 G_repulsion      =       0.00000000 hartree =       0.00000000 kcal/mol
 --------------------------------------------------
 Non-electrostatic Free Energy =       0.00000000 hartree =       0.00000000 kcal/mol
 Total                         =      -0.10235460 hartree =     -64.22848358 kcal/mol
 --------------------------------------------------
 SCF Energy (H0 + V/2)                       =    -228.64117876 
 Solute Internal Energy (H0)                 =    -228.53882416 
 Total Free Energy (H0 + V/2 + non-elec)     =    -228.64117876 hartree
                                             = -143474.50513470 kcal/mol
***********************************************************

E_pcm = -0.1023546043
Multipole orders to be included
        2
        3
computing dipole RHS
computing quadrupole RHS
total number of RHS in solve_reponses: 8
RHS batch sizes
        8
Beginning Block Conjugate Gradient Iterations. Batch Number: 0
computing hessian-vector products by finite difference
              1      7.05e-01     00000 Conjugate Gradient Iteration
computing hessian-vector products by finite difference
              2      2.53e-01     00000 Conjugate Gradient Iteration
computing hessian-vector products by finite difference
              3      6.82e-02     00000 Conjugate Gradient Iteration
computing hessian-vector products by finite difference
              4      1.84e-02     00000 Conjugate Gradient Iteration
computing hessian-vector products by finite difference
              5      3.20e-03     00000 Conjugate Gradient Iteration
computing hessian-vector products by finite difference
              6      7.55e-04     00000 Conjugate Gradient Iteration
computing hessian-vector products by finite difference
              7      1.23e-04     00000 Conjugate Gradient Iteration
computing hessian-vector products by finite difference
              8      1.51e-05     00000 Conjugate Gradient Iteration
computing hessian-vector products by finite difference
              9      2.37e-06     00000 Conjugate Gradient Iteration
computing hessian-vector products by finite difference
             10      2.78e-07     00000 Conjugate Gradient Iteration
computing hessian-vector products by finite difference
             11      5.29e-08     00000 Conjugate Gradient Iteration
computing hessian-vector products by finite difference
             12      1.81e-08     00000 Conjugate Gradient Iteration
computing hessian-vector products by finite difference
             13      2.32e-09     00000 CG Converged
batch 0 complete
Done Calculating Responses
TESTING ORTHOGONALIZATION OF MULTIPOLE BASIS
Multipole virts passed orthogonality test
Virts Per Order
        48
        80
 
 --------------------------------------------------------------
 
                    Orbital Energies (a.u.)
 --------------------------------------------------------------
 
 Alpha MOs
 -- Occupied --
-19.1206 -19.1196 -10.3249 -10.2419  -1.1339  -1.0290  -0.8287  -0.5929
 -0.5286  -0.5180  -0.5141  -0.4620  -0.4452  -0.3281  -0.3275  -0.3054
 -- Virtual --
  0.0633   0.0953   0.0956   0.1053   0.1301   0.1407   0.1424   0.1462
  0.1688   0.1892   0.1999   0.2200   0.2327   0.2356   0.2629   0.2694
  0.2982   0.3099   0.3342   0.3472   0.3561   0.3673   0.3708   0.3746
  0.3875   0.4073   0.4239   0.4299   0.4329   0.4576   0.4727   0.4778
  0.4927   0.4954   0.5048   0.5222   0.5612   0.5800   0.6006   0.6113
  0.6378   0.6432   0.6483   0.6594   0.6690   0.6767   0.6922   0.7109
  0.7223   0.7343   0.7903   0.7978   0.8108   0.8212   0.8495   0.8543
  0.8668   0.9868   1.0011   1.0042   1.0087   1.0396   1.0717   1.1033
  1.1505   1.2350   1.2533   1.2606   1.2938   1.3144   1.3554   1.3924
  1.4355   1.5517   1.6055   1.7429   1.8264   1.8672   1.8901   1.9221
  1.9330   1.9530   1.9595   1.9731   2.0205   2.1078   2.1329   2.1896
  2.2011   2.2256   2.3144   2.3419   2.4195   2.4572   2.4819   2.4999
  2.5795   2.5935   2.6362   2.6589   2.7887   2.8187   2.8508   2.9247
  2.9469   3.0410   3.0930   3.1291   3.2266   3.2397   3.2766   3.2890
  3.3505   3.3597   3.3830   3.4054   3.4201   3.5288   3.5955   3.6003
  3.6193   3.6878   3.7191   3.7435   3.7497   3.8368   3.9698   4.0417
  4.0827   4.2164   4.3200   4.5652   4.6169   4.6557   4.8028   4.8159
  4.9903   5.3346   5.3599   5.3689   5.3780   5.4921   5.7091   5.8037
  5.8284   6.0522   6.2271   6.3505   6.3732   6.6168   6.6335   6.7415
  6.7504   6.7644   6.9527   6.9906   7.0451   7.2577   7.3258   7.3996
  7.4185  22.5786  23.7359  44.2228  44.3741
 --------------------------------------------------------------
 
          Ground-State Mulliken Net Atomic Charges

     Atom                 Charge (a.u.)
  ----------------------------------------
      1 C                    -0.422301
      2 C                     0.300521
      3 O                    -0.670737
      4 O                    -0.679144
      5 H                     0.161816
      6 H                     0.132675
      7 H                     0.177170
  ----------------------------------------
  Sum of atomic charges =    -1.000000

 -----------------------------------------------------------------
                    Cartesian Multipole Moments
 -----------------------------------------------------------------
    Charge (ESU x 10^10)
                -4.8032
    Dipole Moment (Debye)
         X       4.5144      Y       2.3341      Z     -10.1895
       Tot      11.3865
    Quadrupole Moments (Debye-Ang)
        XX     -29.6049     XY      -2.4256     YY     -28.1084
        XZ       9.6915     YZ       8.9333     ZZ     -56.0602
    Octopole Moments (Debye-Ang^2)
       XXX      14.0131    XXY      33.9201    XYY       5.0589
       YYY      97.2574    XXZ     -54.2899    XYZ      -8.3383
       YYZ     -57.6834    XZZ      30.0004    YZZ      64.5954
       ZZZ    -236.4754
    Hexadecapole Moments (Debye-Ang^3)
      XXXX    -117.6850   XXXY      20.0807   XXYY     -80.1125
      XYYY      22.6356   YYYY    -348.5417   XXXZ      42.6746
      XXYZ      63.4220   XYYZ      21.6500   YYYZ     190.8548
      XXZZ    -143.6533   XYZZ     -20.7424   YYZZ    -206.1386
      XZZZ     112.5315   YZZZ     287.8766   ZZZZ    -945.0061
 -----------------------------------------------------------------
Archival summary:
1\1\nid00570\SP\ProcedureUnspecified\BasisUnspecified\223(1-,1)\meili\SunSep2610:39:022021SunSep2610:39:022021\0\\#,ProcedureUnspecified,BasisUnspecified,\\-1,1\C\O,1,1.24606\O,1,1.25124,2,120.974\C,1,1.53288,2,119.082,3,177.883,0\H,4,1.09038,1,109.267,2,28.0954,0\H,4,1.09107,1,109.239,2,-89.6593,0\H,4,1.1,1,113.935,2,148.882,0\\\@

 Total job time:  5042.24s(wall), 9926.45s(cpu) 
 Sun Sep 26 10:39:04 2021

        *************************************************************
        *                                                           *
        *  Thank you very much for using Q-Chem.  Have a nice day.  *
        *                                                           *
        *************************************************************


Done Job For Fragment 1
calling putenv with: QCSCRATCH=/global/cscratch1/sd/meili 
calling putenv with: QCLOCALSCR=/tmp 
calling putenv with: QCTHREADS=32 
Doing General SCFMI
 Exchange:     0.1670 Hartree-Fock + 1.0000 wB97X-V + LR-HF
 Correlation:  1.0000 wB97X-V
 Using Euler-Maclaurin-Lebedev (99,590) quadrature formula
 Nonlocal Correlation:  VV10 with C = 0.0100 and b = 6.00 and scale = 1.00000
 Grid used for NLC:  SG-1 standard quadrature
performing fock build before subrot guess so that all methods have access
Printing subrot_rss_gen Method Specification:
Occupied Subspace Method is 0
Virtual Subspace Method is 0
Energy of the unrelaxed supersystem initial determinant -456.912235303555
performing fock build before subrot guess so that all methods have access
Printing subrot_rss_gen Method Specification:
Occupied Subspace Method is 0
Virtual Subspace Method is 0
Energy of the unrelaxed supersystem initial determinant w/ solvent -457.239980409822
write pseudocanon occs and virts to disk
write pseudocanon orbital energies to disk
Tolerance of ortho_decomp_scf: 1.00e-06
GDM subspace size: 20
Beginning the Orthogonal Decomposition of the Initial Supersystem Wavefunction
    1    -456.9835073981      1.39e-01     ortho_decomp Preconditoned Steepest Descent
    2    -457.0020720618      2.68e-03     ortho_decomp BFGS Step
    3    -457.0021131398      2.04e-04     ortho_decomp BFGS Step
    4    -457.0021132131      6.98e-06     ortho_decomp BFGS Step
    5    -457.0021132133      1.88e-07     ortho_decomp 00000 Convergence criterion met
 Hartree-Fock
 Hartree-Fock
 Hartree-Fock
Doing General SCFMI
 Exchange:     0.1670 Hartree-Fock + 1.0000 wB97X-V + LR-HF
 Correlation:  1.0000 wB97X-V
 Using Euler-Maclaurin-Lebedev (99,590) quadrature formula
 Nonlocal Correlation:  VV10 with C = 0.0100 and b = 6.00 and scale = 1.00000
 Grid used for NLC:  SG-1 standard quadrature
performing fock build at end of subrot_r(subrot) constructor so that all methods have access
<S^2> of initial wavefunction before polarization iterations 0.0000000000
Beginning iterations for the determination of the polarized wavefunction
Energy prior to optimization (guess energy) = -457.239980409822
Begin Timing: Total SCF Calculation
begin iterations for algorithm: DIIS         
the SCF tolerance is set to 1.00e-08
    1    -457.2399804098      4.40e-04     00000 
    2    -457.2443178915      4.50e-04     00000 
    3    -457.2473018966      1.04e-04     00000 
    4    -457.2476630976      4.31e-05     00000 
    5    -457.2477688497      2.57e-05     00000 
    6    -457.2477979937      9.21e-06     00000 
    7    -457.2478025224      2.93e-06     00000 
    8    -457.2478030987      9.68e-07     00000 
    9    -457.2478031660      5.27e-07     00000 
   10    -457.2478031721      1.73e-07     00000 
   11    -457.2478031734      4.12e-08     00000 
   12    -457.2478031735      2.47e-08     00000 
   13    -457.2478031736      7.96e-09     00000 Convergence criterion met
write pseudocanon occs and virts to disk
write pseudocanon orbital energies to disk
Timing for Total SCF: 1510.00s (wall), 3000.70s (cpu)
<S^2> of polarized wavefunction after polarization iterations 0.0000000000
relaxing scfmi constraint to allow all rotations in the entire AO span
Doing General SCFMI
 Exchange:     0.1670 Hartree-Fock + 1.0000 wB97X-V + LR-HF
 Correlation:  1.0000 wB97X-V
 Using Euler-Maclaurin-Lebedev (99,590) quadrature formula
 Nonlocal Correlation:  VV10 with C = 0.0100 and b = 6.00 and scale = 1.00000
 Grid used for NLC:  SG-1 standard quadrature
performing fock build at end of subrot_r(subrot) constructor so that all methods have access
<S^2> of polarized wavefunction before ct-allowed iterations 0.0000000000
Beginning iterations for the determination of the CT-Allowed wavefunction
Energy prior to optimization (guess energy) = -457.247803173568
Begin Timing: Total SCF Calculation
begin iterations for algorithm: DIIS         
the SCF tolerance is set to 1.00e-08
    1    -457.2478031736      1.19e-04     00000 
    2    -457.2486421078      1.27e-05     00000 
    3    -457.2486666414      4.55e-06     00000 
    4    -457.2486674775      4.04e-06     00000 
    5    -457.2486682586      4.73e-07     00000 
    6    -457.2486682762      2.47e-07     00000 
    7    -457.2486682820      7.15e-08     00000 
    8    -457.2486682826      2.28e-08     00000 
    9    -457.2486682828      8.44e-09     00000 Convergence criterion met
write pseudocanon occs and virts to disk
write pseudocanon orbital energies to disk
Timing for Total SCF: 997.00s (wall), 1980.94s (cpu)
<S^2> of ct_allowed wavefunction after ct-allowed iterations 0.0000000000

================================
        Results of EDA2         
================================
Basic EDA Quantities
--------------------
Fragment Energies (Ha):
1 -228.6427574739
2 -228.6411787635
--------------------
  E_prp (kJ/mol) = -0.0000
  E_sol (kJ/mol) = -325.1599
  E_frz (kJ/mol) = 440.5673
  E_pol (kJ/mol) = -20.5389
  E_vct (kJ/mol) = -2.2714
  E_int (kJ/mol) = 92.5971
--------------------


Initial Wavefunction Decomposition
--------------------
  --------------------
  Orthogonal Fragment Subspace Decomposition:
  --------------------
     E_elec   (ELEC)   (kJ/mol) = 291.7598
     E_pauli  (PAULI)  (kJ/mol) = 170.8054
     E_disp   (DISP)   (kJ/mol) = -21.9980
     --------------------
     Terms summing to E_pauli:
     --------------------
        E_kep_pauli       (kJ/mol) = 204.5900
        E_disp_free_pauli (kJ/mol) = -33.7846
  --------------------
  Classical Frozen Decomposition:
  --------------------
     E_cls_elec  (CLS ELEC)  (kJ/mol) = 392.3598
     E_cls_pauli (CLS PAULI) (kJ/mol) = 48.2075
    [E_mod_pauli (MOD PAULI) (kJ/mol) = 70.2055 (CLS PAULI - DISP from orthogonal decomposition) ]
  --------------------
--------------------

Simplified EDA Summary (kJ/mol)
--------------------
 PREPARATION     -0.0000
 SOLVATION       -325.1599
 FROZEN          462.5653      (does not include dispersion)
[PAULI           170.8054]     (if this is negligible, then frozen describes electrostatics)
 DISPERSION      -21.9980
 POLARIZATION    -20.5389
 CHARGE TRANSFER -2.2714
 TOTAL           92.5971     (PRP + SOL + FRZ + DISP + POL + CT)
--------------------
 
 --------------------------------------------------------------
 
                    Orbital Energies (a.u.)
 --------------------------------------------------------------
 
 Alpha MOs
 -- Occupied --
-19.1052 -19.1052 -19.0924 -19.0904 -10.3051 -10.3048 -10.2294 -10.2288
 -1.1145  -1.1106  -1.0123  -1.0071  -0.8176  -0.8148  -0.5792  -0.5723
 -0.5180  -0.5144  -0.5078  -0.5021  -0.4967  -0.4899  -0.4507  -0.4387
 -0.4301  -0.4267  -0.3123  -0.3102  -0.3073  -0.3037  -0.2936  -0.2608
 -- Virtual --
  0.0624   0.0776   0.0889   0.0983   0.1028   0.1138   0.1211   0.1270
  0.1315   0.1414   0.1486   0.1516   0.1657   0.1720   0.1818   0.1854
  0.1944   0.2018   0.2110   0.2208   0.2238   0.2375   0.2419   0.2443
  0.2560   0.2644   0.2703   0.2842   0.2898   0.2966   0.3030   0.3184
  0.3203   0.3311   0.3379   0.3486   0.3510   0.3548   0.3616   0.3679
  0.3729   0.3801   0.3884   0.3922   0.3941   0.4029   0.4099   0.4161
  0.4209   0.4233   0.4344   0.4373   0.4503   0.4508   0.4602   0.4702
  0.4813   0.4846   0.4900   0.4999   0.5015   0.5037   0.5095   0.5149
  0.5204   0.5318   0.5442   0.5478   0.5610   0.5689   0.5763   0.5907
  0.5960   0.6123   0.6202   0.6264   0.6399   0.6489   0.6537   0.6592
  0.6695   0.6759   0.6834   0.6913   0.6940   0.7075   0.7090   0.7188
  0.7302   0.7371   0.7470   0.7510   0.7706   0.7728   0.7858   0.7888
  0.7953   0.8026   0.8159   0.8183   0.8314   0.8445   0.8494   0.8581
  0.8636   0.8714   0.8749   0.8877   0.9053   0.9186   0.9546   0.9720
  0.9917   1.0004   1.0020   1.0228   1.0367   1.0436   1.0590   1.0651
  1.0783   1.0907   1.1093   1.1206   1.1445   1.1661   1.1848   1.1934
  1.2357   1.2707   1.2792   1.2892   1.2965   1.3221   1.3278   1.3384
  1.3620   1.3718   1.3772   1.3979   1.4135   1.4195   1.4302   1.4399
  1.4851   1.5259   1.6194   1.6412   1.6677   1.6968   1.7593   1.8080
  1.8683   1.8947   1.9063   1.9084   1.9290   1.9416   1.9596   1.9669
  1.9781   1.9888   1.9922   1.9979   2.0171   2.0190   2.0373   2.0487
  2.0688   2.0922   2.1497   2.1604   2.1799   2.1973   2.2167   2.2315
  2.2482   2.2690   2.2749   2.2831   2.3471   2.3666   2.4033   2.4256
  2.4689   2.4768   2.4961   2.5022   2.5290   2.5347   2.5700   2.5752
  2.5990   2.6162   2.6368   2.6530   2.6678   2.6794   2.7250   2.7583
  2.8307   2.8372   2.8656   2.8768   2.8878   2.9117   2.9514   2.9632
  2.9836   3.0071   3.0698   3.1026   3.1247   3.1357   3.1611   3.2111
  3.2527   3.2620   3.2748   3.2858   3.3151   3.3312   3.3462   3.3555
  3.3899   3.3927   3.4015   3.4185   3.4275   3.4395   3.4451   3.4477
  3.4653   3.5108   3.5687   3.5784   3.6231   3.6319   3.6489   3.6580
  3.6705   3.6831   3.7017   3.7354   3.7460   3.7548   3.7653   3.7781
  3.7970   3.8181   3.8762   3.8893   3.9924   4.0074   4.0866   4.1027
  4.1066   4.1252   4.2290   4.2505   4.3623   4.3976   4.5803   4.5895
  4.6511   4.6596   4.6991   4.7021   4.8381   4.8759   4.9104   4.9249
  5.0232   5.0432   5.3565   5.3579   5.3850   5.3941   5.3981   5.4005
  5.4137   5.4425   5.5145   5.5358   5.7344   5.7540   5.7930   5.8315
  5.8513   5.8561   6.0693   6.0978   6.2579   6.2954   6.3826   6.3865
  6.4162   6.4264   6.6684   6.6705   6.6811   6.7022   6.7650   6.7816
  6.7837   6.8021   6.8128   6.8307   6.9939   7.0104   7.0183   7.0288
  7.0781   7.0799   7.2843   7.2936   7.3619   7.4018   7.4222   7.4787
  7.4982   7.5163  22.6039  22.6177  23.7879  23.8070  44.2729  44.3308
 44.4155  44.4348
 --------------------------------------------------------------
 
          Ground-State Mulliken Net Atomic Charges

     Atom                 Charge (a.u.)
  ----------------------------------------
      1 C                    -0.500567
      2 C                     0.286009
      3 O                    -0.575103
      4 O                    -0.677988
      5 H                     0.129433
      6 H                     0.165489
      7 H                     0.167052
      8 C                    -0.312716
      9 C                     0.207441
     10 O                    -0.564212
     11 O                    -0.721417
     12 H                     0.095797
     13 H                     0.119118
     14 H                     0.181665
  ----------------------------------------
  Sum of atomic charges =    -2.000000

 -----------------------------------------------------------------
                    Cartesian Multipole Moments
 -----------------------------------------------------------------
    Charge (ESU x 10^10)
                -9.6064
    Dipole Moment (Debye)
         X       5.9752      Y      -1.8176      Z      -5.4980
       Tot       8.3207
    Quadrupole Moments (Debye-Ang)
        XX     -60.9656     XY       4.1526     YY     -66.7061
        XZ       8.7276     YZ      16.5748     ZZ     -92.4784
    Octopole Moments (Debye-Ang^2)
       XXX      -3.6092    XXY      -1.3366    XYY      10.3113
       YYY     -16.4961    XXZ       0.4489    XYZ     -15.9219
       YYZ       4.5779    XZZ      25.1675    YZZ      26.7927
       ZZZ     -85.9777
    Hexadecapole Moments (Debye-Ang^3)
      XXXX    -250.4269   XXXY      17.9483   XXYY    -169.3532
      XYYY      39.2176   YYYY    -756.3247   XXXZ     108.7736
      XXYZ     141.3877   XYYZ      28.4670   YYYZ     434.8603
      XXZZ    -299.8791   XYZZ     -19.1822   YYZZ    -416.5166
      XZZZ     190.2335   YZZZ     526.4956   ZZZZ   -1717.5995
 -----------------------------------------------------------------
Archival summary:
1\1\nid00570\SP\ProcedureUnspecified\BasisUnspecified\446(2-,1)\meili\SunSep2611:51:182021SunSep2611:51:182021\0\\#,ProcedureUnspecified,BasisUnspecified,\\-2,1\O\C,1,1.24606\O,2,1.25124,1,120.974\C,2,1.53288,1,119.082,3,177.883,0\H,4,1.09038,2,109.267,1,28.0954,0\H,4,1.09107,2,109.239,1,-89.6593,0\H,4,1.1,2,113.935,1,148.882,0\O,1,2.54812,2,121.241,3,169.016,0\C,8,1.24563,1,111.428,2,-164.7,0\O,9,1.25446,8,123.67,1,-8.64831,0\C,9,1.52073,8,116.547,1,171.451,0\H,11,1.09101,9,109.331,8,160.831,0\H,11,1.09284,9,107.852,8,-81.8316,0\H,11,1.1,9,111.818,8,38.2326,0\\\@

 Total job time:  14212.97s(wall), 8626.16s(cpu) 
 Sun Sep 26 11:51:20 2021

        *************************************************************
        *                                                           *
        *  Thank you very much for using Q-Chem.  Have a nice day.  *
        *                                                           *
        *************************************************************


