
Running Job 1 of 1 SSI-012PHE-040PHE-1_PCM_TZVPD.in
qchem SSI-012PHE-040PHE-1_PCM_TZVPD.in_6009.0 /tmp/qchem6009/ 0
/global/common/cori/software/qchem/5.2/exe/qcprog.exe_s SSI-012PHE-040PHE-1_PCM_TZVPD.in_6009.0 /tmp/qchem6009/
                  Welcome to Q-Chem
     A Quantum Leap Into The Future Of Chemistry


 Q-Chem 5.2, Q-Chem, Inc., Pleasanton, CA (2019)

 License issued to: National Energy Research Scientific Computing Center

 Yihan Shao,  Zhengting Gan,  E. Epifanovsky,  A. T. B. Gilbert,  M. Wormit,  
 J. Kussmann,  A. W. Lange,  A. Behn,  Jia Deng,  Xintian Feng,  D. Ghosh,  
 M. Goldey,  P. R. Horn,  L. D. Jacobson,  I. Kaliman,  T. Kus,  A. Landau,  
 Jie Liu,  E. I. Proynov,  R. M. Richard,  R. P. Steele,  E. J. Sundstrom,  
 H. L. Woodcock III,  P. M. Zimmerman,  D. Zuev,  B. Albrecht,  E. Alguire,  
 S. A. Baeppler,  D. Barton,  Z. Benda,  Y. A. Bernard,  E. J. Berquist,  
 K. B. Bravaya,  H. Burton,  D. Casanova,  Chun-Min Chang,  Yunqing Chen,  
 A. Chien,  K. D. Closser,  M. P. Coons,  S. Coriani,  S. Dasgupta,  
 A. L. Dempwolff,  M. Diedenhofen,  Hainam Do,  R. G. Edgar,  Po-Tung Fang,  
 S. Faraji,  S. Fatehi,  Qingguo Feng,  K. D. Fenk,  J. Fosso-Tande,  
 J. Gayvert,  Qinghui Ge,  A. Ghysels,  G. Gidofalvi,  J. Gomes,  
 J. Gonthier,  A. Gunina,  D. Hait,  M. W. D. Hanson-Heine,  
 P. H. P. Harbach,  A. W. Hauser,  M. F. Herbst,  J. E. Herr,  
 E. G. Hohenstein,  Z. C. Holden,  Kerwin Hui,  B. C. Huynh,  T.-C. Jagau,  
 Hyunjun Ji,  B. Kaduk,  K. Khistyaev,  Jaehoon Kim,  P. Klunzinger,  K. Koh,  
 D. Kosenkov,  L. Koulias,  T. Kowalczyk,  C. M. Krauter,  A. Kunitsa,  
 Ka Un Lao,  A. Laurent,  K. V. Lawler,  Joonho Lee,  D. Lefrancois,  
 S. Lehtola,  D. S. Levine,  Yi-Pei Li,  You-Sheng Lin,  Fenglai Liu,  
 E. Livshits,  A. Luenser,  P. Manohar,  E. Mansoor,  S. F. Manzer,  
 Shan-Ping Mao,  Yuezhi Mao,  N. Mardirossian,  A. V. Marenich,  
 T. Markovich,  L. A. Martinez-Martinez,  S. A. Maurer,  N. J. Mayhall,  
 S. C. McKenzie,  J.-M. Mewes,  P. Morgante,  A. F. Morrison,  
 J. W. Mullinax,  K. Nanda,  T. S. Nguyen-Beck,  R. Olivares-Amaya,  
 J. A. Parkhill,  Zheng Pei,  T. M. Perrine,  F. Plasser,  P. Pokhilko,  
 S. Prager,  A. Prociuk,  E. Ramos,  D. R. Rehn,  F. Rob,  M. Scheurer,  
 M. Schneider,  N. Sergueev,  S. M. Sharada,  S. Sharma,  D. W. Small,  
 T. Stauch,  T. Stein,  Yu-Chuan Su,  A. J. W. Thom,  A. Tkatchenko,  
 T. Tsuchimochi,  N. M. Tubman,  L. Vogt,  M. L. Vidal,  O. Vydrov,  
 M. A. Watson,  J. Wenzel,  M. de Wergifosse,  T. A. Wesolowski,  A. White,  
 J. Witte,  A. Yamada,  Jun Yang,  K. Yao,  S. Yeganeh,  S. R. Yost,  
 Zhi-Qiang You,  A. Zech,  Igor Ying Zhang,  Xing Zhang,  Yan Zhao,  
 Ying Zhu,  B. R. Brooks,  G. K. L. Chan,  C. J. Cramer,  M. S. Gordon,  
 W. J. Hehre,  A. Klamt,  M. W. Schmidt,  C. D. Sherrill,  D. G. Truhlar,  
 A. Aspuru-Guzik,  R. Baer,  A. T. Bell,  N. A. Besley,  Jeng-Da Chai,  
 A. E. DePrince, III,  R. A. DiStasio Jr.,  A. Dreuw,  B. D. Dunietz,  
 T. R. Furlani,  Chao-Ping Hsu,  Yousung Jung,  Jing Kong,  D. S. Lambrecht,  
 WanZhen Liang,  C. Ochsenfeld,  V. A. Rassolov,  L. V. Slipchenko,  
 J. E. Subotnik,  T. Van Voorhis,  J. M. Herbert,  A. I. Krylov,  
 P. M. W. Gill,  M. Head-Gordon

 Contributors to earlier versions of Q-Chem not listed above: 
 R. D. Adamson,  B. Austin,  J. Baker,  G. J. O. Beran,  K. Brandhorst,  
 S. T. Brown,  E. F. C. Byrd,  A. K. Chakraborty,  C.-L. Cheng,  
 Siu Hung Chien,  D. M. Chipman,  D. L. Crittenden,  H. Dachsel,  
 R. J. Doerksen,  A. D. Dutoi,  L. Fusti-Molnar,  W. A. Goddard III,  
 A. Golubeva-Zadorozhnaya,  S. R. Gwaltney,  G. Hawkins,  A. Heyden,  
 S. Hirata,  G. Kedziora,  F. J. Keil,  C. Kelley,  Jihan Kim,  R. A. King,  
 R. Z. Khaliullin,  P. P. Korambath,  W. Kurlancheek,  A. M. Lee,  M. S. Lee,  
 S. V. Levchenko,  Ching Yeh Lin,  D. Liotard,  R. C. Lochan,  I. Lotan,  
 P. E. Maslen,  N. Nair,  D. P. O'Neill,  D. Neuhauser,  E. Neuscamman,  
 C. M. Oana,  R. Olson,  B. Peters,  R. Peverati,  P. A. Pieniazek,  
 Y. M. Rhee,  J. Ritchie,  M. A. Rohrdanz,  E. Rosta,  N. J. Russ,  
 H. F. Schaefer III,  N. E. Schultz,  N. Shenvi,  A. C. Simmonett,  A. Sodt,  
 D. Stuck,  K. S. Thanthiriwatte,  V. Vanovschi,  Tao Wang,  A. Warshel,  
 C. F. Williams,  Q. Wu,  X. Xu,  W. Zhang

 Please cite Q-Chem as follows:
 Y. Shao et al., Mol. Phys. 113, 184-215 (2015)
 DOI: 10.1080/00268976.2014.952696

 Q-Chem 5.2.0 for Intel X86 EM64T Linux

 Parts of Q-Chem use Armadillo 8.300.2 (Tropical Shenanigans).
 http://arma.sourceforge.net/

 Q-Chem begins on Sun Sep 26 02:59:13 2021  

Host: cori01
0

     Scratch files written to /tmp/qchem6009//
 May1019 |scratch|qcdevops|jenkins|workspace|build_RNUM -1
Processing $rem in /global/common/cori/software/qchem/5.2/config/preferences:
	 MEM_TOTAL  96000 
NAlpha2: 100
NElect   100
Mult     1
Symmetry turned off for PCM/SM12/SMD calculation

 Q-Chem warning in module libgen/rem_setup.C, line 2803:

 Neither GIA nor STOLL is specified by user. Use STOLL as the default


Checking the input file for inconsistencies... 	...done.

--------------------------------------------------------------
User input:
--------------------------------------------------------------
$comment
SSI-012PHE-040PHE-1.pdb
$end

$molecule
0 1
--
0 1
C    2.117411291924   -2.992669606659   -4.266425845171
C    1.661411291924   -0.925669606659   -0.504425845171
C    1.531411291924   -0.204669606659   -1.691425845171
C    1.930411291924   -2.287669606659   -0.553425845171
C    1.677411291924   -0.847669606659   -2.928425845171
C    2.071411291924   -2.923669606659   -1.781425845171
C    1.933411291924   -2.222669606659   -2.980425845171
H    1.548411291924   -0.427669606659    0.449574154829
H    1.325411291924    0.856330393341   -1.654425845171
H    2.005411291924   -2.860669606659    0.356574154829
H    1.615411291924   -0.259669606659   -3.816425845171
H    2.277411291924   -3.984669606659   -1.803425845171
H    1.507411291924   -3.895669606659   -4.211425845171
H    3.160411291924   -3.297669606659   -4.303425845171
H    1.892894691924   -2.465449606659   -5.205375845171
--
0 1
C   -2.373588708076    3.838330393341    3.392574154829
C   -1.469588708076    0.243330393341    1.188574154829
C   -0.760588708076    0.542330393341    2.354574154829
C   -2.458588708076    1.114330393341    0.735574154829
C   -1.050588708076    1.710330393341    3.067574154829
C   -2.741588708076    2.279330393341    1.447574154829
C   -2.035588708076    2.590330393341    2.612574154829
H   -1.251588708076   -0.663669606659    0.640574154829
H    0.006411291924   -0.132669606659    2.706574154829
H   -3.017588708076    0.870330393341   -0.154425845171
H   -0.506588708076    1.928330393341    3.974574154829
H   -3.516588708076    2.943330393341    1.091574154829
H   -2.337588708076    3.598330393341    4.456574154829
H   -3.399588708076    4.133330393341    3.164574154829
H   -1.699697708076    4.686270393341    3.200548154829
$end

$rem
JOBTYPE			EDA
EDA2			1
method			wB97X-V
BASIS			def2-TZVPD
XC_GRID			000099000590
NL_GRID			1
UNRESTRICTED		FALSE
MAX_SCF_CYCLES		200
SYMMETRY		FALSE
SYM_IGNORE		TRUE
MEM_STATIC		2000
BASIS_LIN_DEP_THRESH 	6
THRESH 			14
SCF_CONVERGENCE 	8
SCF_PRINT_FRGM 		TRUE
SOLVENT_METHOD          PCM
$end

$PCM
THEORY                  CPCM
METHOD                  SWIG
SOLVER                  INVERSION
RADII                   UFF
HPOINTS                 302
HEAVYPOINTS             302
PRINTLEVEL              0
$END

$SOLVENT
DIELECTRIC              78.390000 ! water
$END
--------------------------------------------------------------
 ----------------------------------------------------------------
             Standard Nuclear Orientation (Angstroms)
    I     Atom           X                Y                Z
 ----------------------------------------------------------------
    1      C       2.1174112919    -2.9926696067    -4.2664258452
    2      C       1.6614112919    -0.9256696067    -0.5044258452
    3      C       1.5314112919    -0.2046696067    -1.6914258452
    4      C       1.9304112919    -2.2876696067    -0.5534258452
    5      C       1.6774112919    -0.8476696067    -2.9284258452
    6      C       2.0714112919    -2.9236696067    -1.7814258452
    7      C       1.9334112919    -2.2226696067    -2.9804258452
    8      H       1.5484112919    -0.4276696067     0.4495741548
    9      H       1.3254112919     0.8563303933    -1.6544258452
   10      H       2.0054112919    -2.8606696067     0.3565741548
   11      H       1.6154112919    -0.2596696067    -3.8164258452
   12      H       2.2774112919    -3.9846696067    -1.8034258452
   13      H       1.5074112919    -3.8956696067    -4.2114258452
   14      H       3.1604112919    -3.2976696067    -4.3034258452
   15      H       1.8928946919    -2.4654496067    -5.2053758452
   16      C      -2.3735887081     3.8383303933     3.3925741548
   17      C      -1.4695887081     0.2433303933     1.1885741548
   18      C      -0.7605887081     0.5423303933     2.3545741548
   19      C      -2.4585887081     1.1143303933     0.7355741548
   20      C      -1.0505887081     1.7103303933     3.0675741548
   21      C      -2.7415887081     2.2793303933     1.4475741548
   22      C      -2.0355887081     2.5903303933     2.6125741548
   23      H      -1.2515887081    -0.6636696067     0.6405741548
   24      H       0.0064112919    -0.1326696067     2.7065741548
   25      H      -3.0175887081     0.8703303933    -0.1544258452
   26      H      -0.5065887081     1.9283303933     3.9745741548
   27      H      -3.5165887081     2.9433303933     1.0915741548
   28      H      -2.3375887081     3.5983303933     4.4565741548
   29      H      -3.3995887081     4.1333303933     3.1645741548
   30      H      -1.6996977081     4.6862703933     3.2005481548
 ----------------------------------------------------------------
 Nuclear Repulsion Energy =         741.73681264 hartrees
 There are       50 alpha and       50 beta electrons
 Requested basis set is def2-TZVPD
 There are 262 shells and 662 basis functions

 Total QAlloc Memory Limit  96000 MB
 Mega-Array Size      1956 MB
 MEM_STATIC part      2000 MB
 Discretize the solute cavity surface with Lebedev spheres
	Using 302 Lebedev grid points for each H atom
	Using 302 Lebedev grid points for other atoms
	Atomic van der Waals radii will be scaled by 1.20
 Remove points where switching function is < 1.0e-08
 Keep 3445 surface tesserae and discard 5615 interior tesserae
 Molecular Surface Area = 335.578 Angst**2
 A cutoff of  1.0D-14 yielded  27463 shell pairs
 There are    175741 function pairs (    221427 Cartesian)
 Smallest overlap matrix eigenvalue = 5.05E-07
 Linear dependence detected in AO basis
 Tighter screening thresholds may be required for diffuse basis sets
 Use S2THRESH > 14 and THRESH = 14 in case of SCF convergence issues
 Number of orthogonalized atomic orbitals = 659
 Maximum deviation from orthogonality = 2.970E-10

 Scale SEOQF with 1.000000e-01/1.000000e-01/1.000000e-02

 Standard Electronic Orientation quadrupole field applied
 Nucleus-field energy     =     0.0000000416 hartrees

 -----------------------------------------------------------------------
  General SCF calculation program by
  Eric Jon Sundstrom, Paul Horn, Yuezhi Mao, Dmitri Zuev, Alec White,
  David Stuck, Shaama M.S., Shane Yost, Joonho Lee, David Small,
  Daniel Levine, Susi Lehtola, Hugh Burton, Evgeny Epifanovsky
 -----------------------------------------------------------------------
================================================================
                 ALMO-EDA with the EDA2 driver                  
================================================================
 The second-generation ALMO-EDA (for DFT):                      
 P. R. Horn, Y. Mao and M. Head-Gordon, PCCP, 18, 23067 (2016)  
 Decomposition of the frozen energy:                            
 P. R. Horn, Y. Mao and M. Head-Gordon, JCP, 144, 114107 (2016) 
 FERF model for polarization:                                   
 P. R. Horn and M. Head-Gordon, JCP, 143, 114111 (2015)         
Using eda2 option set 1
Option set summary: Frozen orbital wavefunction, initial wavefunction decomposition, and nDQ polarization.
--------------------------------
Printing EDA Options
--------------------------------
eda_child_super_basis      0
fragmo_guess_mode          0
child_mp                   1
child_mp_orders            232
cls_elec                   1
cls_disp                   0
scfmi_mode                 1
scfmi_occs                 0
scfmi_virts                0
frz_relax                  0
frz_relax_method           0
dc_pen_start               0
dc_pen_conv                0
dc_pen_increment           0
dc_pen_steps               0
dc_pen_thresh_factor       0
dc_pen_pre_newton_thresh   0
frz_ortho_decomp           1
frz_ortho_decomp_conv      6
frgm_method                2
scfmi_freeze_ss            0
separate_rehyb             0
plot_diff_den              0
eda_nocv                   0
eda_vct_relax              1
disp_free_x                0
disp_free_c                0
eda_bsse                   0
eda_pct_a                  0
eda_covp                   0
--------------------------------
Attempting to make child job directory: /tmp/qchem6009//Frg1/
Attempting to make child job directory: /tmp/qchem6009//Frg2/
Creating input file /tmp/qchem6009/Frg1.input
using default PutDataFrgm: nothing
calling putenv with: QCSCRATCH=/tmp/qchem6009/ 
calling putenv with: QCLOCALSCR=/tmp/qchem6009/ 
Spawning Job For Fragment 0
                  Welcome to Q-Chem
     A Quantum Leap Into The Future Of Chemistry


 Q-Chem 5.2, Q-Chem, Inc., Pleasanton, CA (2019)

 License issued to: National Energy Research Scientific Computing Center

 Yihan Shao,  Zhengting Gan,  E. Epifanovsky,  A. T. B. Gilbert,  M. Wormit,  
 J. Kussmann,  A. W. Lange,  A. Behn,  Jia Deng,  Xintian Feng,  D. Ghosh,  
 M. Goldey,  P. R. Horn,  L. D. Jacobson,  I. Kaliman,  T. Kus,  A. Landau,  
 Jie Liu,  E. I. Proynov,  R. M. Richard,  R. P. Steele,  E. J. Sundstrom,  
 H. L. Woodcock III,  P. M. Zimmerman,  D. Zuev,  B. Albrecht,  E. Alguire,  
 S. A. Baeppler,  D. Barton,  Z. Benda,  Y. A. Bernard,  E. J. Berquist,  
 K. B. Bravaya,  H. Burton,  D. Casanova,  Chun-Min Chang,  Yunqing Chen,  
 A. Chien,  K. D. Closser,  M. P. Coons,  S. Coriani,  S. Dasgupta,  
 A. L. Dempwolff,  M. Diedenhofen,  Hainam Do,  R. G. Edgar,  Po-Tung Fang,  
 S. Faraji,  S. Fatehi,  Qingguo Feng,  K. D. Fenk,  J. Fosso-Tande,  
 J. Gayvert,  Qinghui Ge,  A. Ghysels,  G. Gidofalvi,  J. Gomes,  
 J. Gonthier,  A. Gunina,  D. Hait,  M. W. D. Hanson-Heine,  
 P. H. P. Harbach,  A. W. Hauser,  M. F. Herbst,  J. E. Herr,  
 E. G. Hohenstein,  Z. C. Holden,  Kerwin Hui,  B. C. Huynh,  T.-C. Jagau,  
 Hyunjun Ji,  B. Kaduk,  K. Khistyaev,  Jaehoon Kim,  P. Klunzinger,  K. Koh,  
 D. Kosenkov,  L. Koulias,  T. Kowalczyk,  C. M. Krauter,  A. Kunitsa,  
 Ka Un Lao,  A. Laurent,  K. V. Lawler,  Joonho Lee,  D. Lefrancois,  
 S. Lehtola,  D. S. Levine,  Yi-Pei Li,  You-Sheng Lin,  Fenglai Liu,  
 E. Livshits,  A. Luenser,  P. Manohar,  E. Mansoor,  S. F. Manzer,  
 Shan-Ping Mao,  Yuezhi Mao,  N. Mardirossian,  A. V. Marenich,  
 T. Markovich,  L. A. Martinez-Martinez,  S. A. Maurer,  N. J. Mayhall,  
 S. C. McKenzie,  J.-M. Mewes,  P. Morgante,  A. F. Morrison,  
 J. W. Mullinax,  K. Nanda,  T. S. Nguyen-Beck,  R. Olivares-Amaya,  
 J. A. Parkhill,  Zheng Pei,  T. M. Perrine,  F. Plasser,  P. Pokhilko,  
 S. Prager,  A. Prociuk,  E. Ramos,  D. R. Rehn,  F. Rob,  M. Scheurer,  
 M. Schneider,  N. Sergueev,  S. M. Sharada,  S. Sharma,  D. W. Small,  
 T. Stauch,  T. Stein,  Yu-Chuan Su,  A. J. W. Thom,  A. Tkatchenko,  
 T. Tsuchimochi,  N. M. Tubman,  L. Vogt,  M. L. Vidal,  O. Vydrov,  
 M. A. Watson,  J. Wenzel,  M. de Wergifosse,  T. A. Wesolowski,  A. White,  
 J. Witte,  A. Yamada,  Jun Yang,  K. Yao,  S. Yeganeh,  S. R. Yost,  
 Zhi-Qiang You,  A. Zech,  Igor Ying Zhang,  Xing Zhang,  Yan Zhao,  
 Ying Zhu,  B. R. Brooks,  G. K. L. Chan,  C. J. Cramer,  M. S. Gordon,  
 W. J. Hehre,  A. Klamt,  M. W. Schmidt,  C. D. Sherrill,  D. G. Truhlar,  
 A. Aspuru-Guzik,  R. Baer,  A. T. Bell,  N. A. Besley,  Jeng-Da Chai,  
 A. E. DePrince, III,  R. A. DiStasio Jr.,  A. Dreuw,  B. D. Dunietz,  
 T. R. Furlani,  Chao-Ping Hsu,  Yousung Jung,  Jing Kong,  D. S. Lambrecht,  
 WanZhen Liang,  C. Ochsenfeld,  V. A. Rassolov,  L. V. Slipchenko,  
 J. E. Subotnik,  T. Van Voorhis,  J. M. Herbert,  A. I. Krylov,  
 P. M. W. Gill,  M. Head-Gordon

 Contributors to earlier versions of Q-Chem not listed above: 
 R. D. Adamson,  B. Austin,  J. Baker,  G. J. O. Beran,  K. Brandhorst,  
 S. T. Brown,  E. F. C. Byrd,  A. K. Chakraborty,  C.-L. Cheng,  
 Siu Hung Chien,  D. M. Chipman,  D. L. Crittenden,  H. Dachsel,  
 R. J. Doerksen,  A. D. Dutoi,  L. Fusti-Molnar,  W. A. Goddard III,  
 A. Golubeva-Zadorozhnaya,  S. R. Gwaltney,  G. Hawkins,  A. Heyden,  
 S. Hirata,  G. Kedziora,  F. J. Keil,  C. Kelley,  Jihan Kim,  R. A. King,  
 R. Z. Khaliullin,  P. P. Korambath,  W. Kurlancheek,  A. M. Lee,  M. S. Lee,  
 S. V. Levchenko,  Ching Yeh Lin,  D. Liotard,  R. C. Lochan,  I. Lotan,  
 P. E. Maslen,  N. Nair,  D. P. O'Neill,  D. Neuhauser,  E. Neuscamman,  
 C. M. Oana,  R. Olson,  B. Peters,  R. Peverati,  P. A. Pieniazek,  
 Y. M. Rhee,  J. Ritchie,  M. A. Rohrdanz,  E. Rosta,  N. J. Russ,  
 H. F. Schaefer III,  N. E. Schultz,  N. Shenvi,  A. C. Simmonett,  A. Sodt,  
 D. Stuck,  K. S. Thanthiriwatte,  V. Vanovschi,  Tao Wang,  A. Warshel,  
 C. F. Williams,  Q. Wu,  X. Xu,  W. Zhang

 Please cite Q-Chem as follows:
 Y. Shao et al., Mol. Phys. 113, 184-215 (2015)
 DOI: 10.1080/00268976.2014.952696

 Q-Chem 5.2.0 for Intel X86 EM64T Linux

 Parts of Q-Chem use Armadillo 8.300.2 (Tropical Shenanigans).
 http://arma.sourceforge.net/

 Q-Chem begins on Sun Sep 26 03:07:30 2021  

Host: cori01
0

     Scratch files written to /tmp/qchem6009//Frg1//
 May1019 |scratch|qcdevops|jenkins|workspace|build_RNUM -1
Processing $rem in /global/common/cori/software/qchem/5.2/config/preferences:
	 MEM_TOTAL  96000 
NAlpha2: 50
NElect   50
Mult     1
Symmetry turned off for PCM/SM12/SMD calculation

Checking the input file for inconsistencies... 	...done.

--------------------------------------------------------------
User input:
--------------------------------------------------------------
$molecule
0 1
 6	2.1174112919	-2.9926696067	-4.2664258452
 6	1.6614112919	-0.9256696067	-0.5044258452
 6	1.5314112919	-0.2046696067	-1.6914258452
 6	1.9304112919	-2.2876696067	-0.5534258452
 6	1.6774112919	-0.8476696067	-2.9284258452
 6	2.0714112919	-2.9236696067	-1.7814258452
 6	1.9334112919	-2.2226696067	-2.9804258452
 1	1.5484112919	-0.4276696067	0.4495741548
 1	1.3254112919	0.8563303933	-1.6544258452
 1	2.0054112919	-2.8606696067	0.3565741548
 1	1.6154112919	-0.2596696067	-3.8164258452
 1	2.2774112919	-3.9846696067	-1.8034258452
 1	1.5074112919	-3.8956696067	-4.2114258452
 1	3.1604112919	-3.2976696067	-4.3034258452
 1	1.8928946919	-2.4654496067	-5.2053758452
$end
$rem
EDA2		1
METHOD		WB97X-V
BASIS		DEF2-TZVPD
XC_GRID		000099000590
NL_GRID		1
UNRESTRICTED		FALSE
MAX_SCF_CYCLES		200
SYMMETRY		FALSE
SYM_IGNORE		TRUE
BASIS_LIN_DEP_THRESH		6
THRESH		14
SCF_CONVERGENCE		8
SCF_PRINT_FRGM		TRUE
SOLVENT_METHOD		PCM
!required keywords
JOBTYPE		SP
SYM_IGNORE		TRUE
SUBSYSTEM		TRUE
GEN_SCFMAN		TRUE
CHILD_INSTRUCTION		2
SYM_IGNORE		TRUE
SCFMI		0
RI_K 0		
PARI_K 0		
MIN_PARI_K 0		
IARI_K 0		
OCC_RI_K 0		
PURECART		1111
MEM_STATIC		2000
MEM_TOTAL		96000
GUI		0
CHILD_MP		1
CHILD_MP_ORDERS		232
FRZ_RELAX		0
FRZ_RELAX_METHOD		0
EDA_CLS_ELEC		1
EDA_CLS_DISP		0
FRZ_ORTHO_DECOMP		1
EDA2		FALSE
FRGM_METHOD		FALSE
CIS_N_ROOTS  0
LOCAL_CIS    0
CIS_RLX_DNS  1
$end
$pcm
THEORY                  CPCM
METHOD                  SWIG
SOLVER                  INVERSION
RADII                   UFF
HPOINTS                 302
HEAVYPOINTS             302
PRINTLEVEL              0
$end
$solvent
DIELECTRIC              78.390000 ! water
$end
--------------------------------------------------------------
 ----------------------------------------------------------------
             Standard Nuclear Orientation (Angstroms)
    I     Atom           X                Y                Z
 ----------------------------------------------------------------
    1      C       2.1174112919    -2.9926696067    -4.2664258452
    2      C       1.6614112919    -0.9256696067    -0.5044258452
    3      C       1.5314112919    -0.2046696067    -1.6914258452
    4      C       1.9304112919    -2.2876696067    -0.5534258452
    5      C       1.6774112919    -0.8476696067    -2.9284258452
    6      C       2.0714112919    -2.9236696067    -1.7814258452
    7      C       1.9334112919    -2.2226696067    -2.9804258452
    8      H       1.5484112919    -0.4276696067     0.4495741548
    9      H       1.3254112919     0.8563303933    -1.6544258452
   10      H       2.0054112919    -2.8606696067     0.3565741548
   11      H       1.6154112919    -0.2596696067    -3.8164258452
   12      H       2.2774112919    -3.9846696067    -1.8034258452
   13      H       1.5074112919    -3.8956696067    -4.2114258452
   14      H       3.1604112919    -3.2976696067    -4.3034258452
   15      H       1.8928946919    -2.4654496067    -5.2053758452
 ----------------------------------------------------------------
 Nuclear Repulsion Energy =         269.40633344 hartrees
 There are       25 alpha and       25 beta electrons
 Requested basis set is def2-TZVPD
 There are 131 shells and 331 basis functions

 Total QAlloc Memory Limit  96000 MB
 Mega-Array Size      1956 MB
 MEM_STATIC part      2000 MB
 Discretize the solute cavity surface with Lebedev spheres
	Using 302 Lebedev grid points for each H atom
	Using 302 Lebedev grid points for other atoms
	Atomic van der Waals radii will be scaled by 1.20
 Remove points where switching function is < 1.0e-08
 Keep 1799 surface tesserae and discard 2731 interior tesserae
 Molecular Surface Area = 178.614 Angst**2

                       Distance Matrix (Angstroms)
             C (  1)   C (  2)   C (  3)   C (  4)   C (  5)   C (  6)
   C (  2)  4.316604
   C (  3)  3.840178  1.394887
   C (  4)  3.783961  1.389175  2.406893
   C (  5)  2.566100  2.425307  1.401761  2.788949
   C (  6)  2.486383  2.406415  2.773565  1.390094  2.404292
   C (  7)  1.510150  2.808339  2.428055  2.427872  1.399595  1.395724
   H (  8)  5.398485  1.082076  2.152649  2.147448  3.406453  3.388349
   H (  9)  4.718539  2.147305  1.081446  3.385700  2.156524  3.855003
   H ( 10)  4.626240  2.145666  3.387228  1.077986  3.866649  2.139946
   H ( 11)  2.814923  3.378612  2.127371  3.854760  1.066833  3.383202
   H ( 12)  2.660081  3.379991  3.854538  2.136052  3.386206  1.081037
   H ( 13)  1.091116  4.752522  4.469279  4.018153  3.311388  2.677271
   H ( 14)  1.087310  4.722900  4.363810  4.073757  3.176856  2.772414
   H ( 15)  1.099998  4.952114  4.194001  4.655497  2.801454  3.459085
             C (  7)   H (  8)   H (  9)   H ( 10)   H ( 11)   H ( 12)
   H (  8)  3.890392
   H (  9)  3.407078  2.474914
   H ( 10)  3.398205  2.477294  4.280492
   H ( 11)  2.157172  4.269832  2.450265  4.932670
   H ( 12)  2.146697  4.273137  4.935969  2.450094  4.285562
   H ( 13)  2.120322  5.809787  5.399340  4.710186  3.658987  2.529681
   H ( 14)  2.100353  5.781561  5.257389  4.820850  3.442911  2.738915
   H ( 15)  2.238523  6.020770  4.895458  5.577109  2.621382  3.745550
             H ( 13)   H ( 14)
   H ( 14)  1.760249
   H ( 15)  1.783834  1.764285
 
 A cutoff of  1.0D-14 yielded   8362 shell pairs
 There are     54494 function pairs (     69447 Cartesian)
 Smallest overlap matrix eigenvalue = 5.82E-07
 Linear dependence detected in AO basis
 Tighter screening thresholds may be required for diffuse basis sets
 Use S2THRESH > 14 and THRESH = 14 in case of SCF convergence issues
 Number of orthogonalized atomic orbitals = 330
 Maximum deviation from orthogonality = 1.300E-10

 Scale SEOQF with 1.000000e-01/1.000000e-01/1.000000e-02

 Standard Electronic Orientation quadrupole field applied
 Nucleus-field energy     =     0.0000000193 hartrees
 Guess from superposition of atomic densities
 Warning:  Energy on first SCF cycle will be non-variational
 SAD guess density has 49.913408 electrons

 -----------------------------------------------------------------------
  General SCF calculation program by
  Eric Jon Sundstrom, Paul Horn, Yuezhi Mao, Dmitri Zuev, Alec White,
  David Stuck, Shaama M.S., Shane Yost, Joonho Lee, David Small,
  Daniel Levine, Susi Lehtola, Hugh Burton, Evgeny Epifanovsky
 -----------------------------------------------------------------------
 Exchange:     0.1670 Hartree-Fock + 1.0000 wB97X-V + LR-HF
 Correlation:  1.0000 wB97X-V
 Using Euler-Maclaurin-Lebedev (99,590) quadrature formula
 Nonlocal Correlation:  VV10 with C = 0.0100 and b = 6.00 and scale = 1.00000
 Grid used for NLC:  SG-1 standard quadrature
Energy prior to optimization (guess energy) = -271.519239464652
Begin Timing: Total SCF Calculation
begin iterations for algorithm: DIIS         
the SCF tolerance is set to 1.00e-08
    1    -271.5192394647      1.95e-03     00000 
    2    -271.5582404838      1.24e-03     00000 
    3    -271.5797505763      1.38e-04     00000 
    4    -271.5801677430      4.65e-05     00000 
    5    -271.5802006725      1.59e-05     00000 
    6    -271.5802051887      3.70e-06     00000 
    7    -271.5802054949      1.57e-06     00000 
    8    -271.5802055390      3.85e-07     00000 
    9    -271.5802055432      8.26e-08     00000 
   10    -271.5802055437      3.98e-08     00000 
   11    -271.5802055438      2.28e-08     00000 
   12    -271.5802055439      6.37e-09     00000 Convergence criterion met
Timing for Total SCF: 1566.00s (wall), 3095.56s (cpu)

************** Final PCM Free Energy Summary **************
 G_electrostatic  =      -0.00254023 hartree =      -1.59401526 kcal/mol
 G_cavitation     =       0.00000000 hartree =       0.00000000 kcal/mol
 G_dispersion     =       0.00000000 hartree =       0.00000000 kcal/mol
 G_repulsion      =       0.00000000 hartree =       0.00000000 kcal/mol
 --------------------------------------------------
 Non-electrostatic Free Energy =       0.00000000 hartree =       0.00000000 kcal/mol
 Total                         =      -0.00254023 hartree =      -1.59401526 kcal/mol
 --------------------------------------------------
 SCF Energy (H0 + V/2)                       =    -271.58020554 
 Solute Internal Energy (H0)                 =    -271.57766532 
 Total Free Energy (H0 + V/2 + non-elec)     =    -271.58020554 hartree
                                             = -170419.15111490 kcal/mol
***********************************************************

E_pcm = -0.0025402250
Multipole orders to be included
        2
        3
computing dipole RHS
computing quadrupole RHS
total number of RHS in solve_reponses: 8
RHS batch sizes
        8
Beginning Block Conjugate Gradient Iterations. Batch Number: 0
computing hessian-vector products by finite difference
              1      5.87e-01     00000 Conjugate Gradient Iteration
computing hessian-vector products by finite difference
              2      1.92e-01     00000 Conjugate Gradient Iteration
computing hessian-vector products by finite difference
              3      4.50e-02     00000 Conjugate Gradient Iteration
computing hessian-vector products by finite difference
              4      1.08e-02     00000 Conjugate Gradient Iteration
computing hessian-vector products by finite difference
              5      2.28e-03     00000 Conjugate Gradient Iteration
computing hessian-vector products by finite difference
              6      6.11e-04     00000 Conjugate Gradient Iteration
computing hessian-vector products by finite difference
              7      1.52e-04     00000 Conjugate Gradient Iteration
computing hessian-vector products by finite difference
              8      2.25e-05     00000 Conjugate Gradient Iteration
computing hessian-vector products by finite difference
              9      3.35e-06     00000 Conjugate Gradient Iteration
computing hessian-vector products by finite difference
             10      4.96e-07     00000 Conjugate Gradient Iteration
computing hessian-vector products by finite difference
             11      7.05e-08     00000 Conjugate Gradient Iteration
computing hessian-vector products by finite difference
             12      1.71e-08     00000 Conjugate Gradient Iteration
computing hessian-vector products by finite difference
             13      3.13e-09     00000 CG Converged
batch 0 complete
Done Calculating Responses
TESTING ORTHOGONALIZATION OF MULTIPOLE BASIS
Multipole virts passed orthogonality test
Virts Per Order
           75
          125
 
 --------------------------------------------------------------
 
                    Orbital Energies (a.u.)
 --------------------------------------------------------------
 
 Alpha MOs
 -- Occupied --
-10.2851 -10.2745 -10.2727 -10.2708 -10.2704 -10.2691 -10.2637  -0.9963
 -0.9071  -0.8787  -0.8143  -0.7301  -0.7069  -0.6305  -0.5728  -0.5689
 -0.5364  -0.5298  -0.5158  -0.4894  -0.4723  -0.4428  -0.4413  -0.3488
 -0.3372
 -- Virtual --
  0.0619   0.0629   0.0690   0.0786   0.0845   0.1041   0.1098   0.1135
  0.1359   0.1530   0.1641   0.1689   0.1813   0.1908   0.1941   0.2017
  0.2233   0.2279   0.2310   0.2419   0.2448   0.2535   0.2585   0.2713
  0.2764   0.2790   0.2852   0.2926   0.2935   0.3003   0.3039   0.3132
  0.3226   0.3279   0.3288   0.3406   0.3431   0.3514   0.3649   0.3700
  0.3724   0.3807   0.3860   0.3889   0.3915   0.3969   0.4015   0.4024
  0.4141   0.4257   0.4285   0.4374   0.4434   0.4469   0.4501   0.4552
  0.4646   0.4655   0.4795   0.4842   0.4937   0.4970   0.5099   0.5112
  0.5156   0.5231   0.5293   0.5403   0.5430   0.5505   0.5589   0.5666
  0.5686   0.5756   0.5884   0.5925   0.5974   0.6208   0.6309   0.6419
  0.6590   0.6703   0.6798   0.6840   0.6877   0.7041   0.7161   0.7216
  0.7250   0.7297   0.7425   0.7609   0.7641   0.7650   0.7776   0.7839
  0.7864   0.7906   0.7986   0.7992   0.8110   0.8218   0.8255   0.8273
  0.8295   0.8379   0.8465   0.8493   0.8575   0.8687   0.8852   0.8936
  0.9180   0.9276   0.9441   0.9505   0.9562   1.0003   1.0315   1.0387
  1.0457   1.0625   1.0674   1.0759   1.0891   1.0957   1.1007   1.1391
  1.1578   1.1629   1.2493   1.2783   1.2934   1.3245   1.3485   1.3560
  1.3730   1.4400   1.4470   1.4567   1.4641   1.4739   1.5236   1.5385
  1.6043   1.6082   1.6160   1.6256   1.6434   1.6751   1.7355   1.7646
  1.7809   1.7981   1.8000   1.8182   1.8338   1.8514   1.8862   1.9080
  1.9118   1.9198   1.9378   1.9698   1.9873   1.9946   2.0124   2.0273
  2.0337   2.0438   2.0643   2.0888   2.1180   2.1244   2.1635   2.1733
  2.2033   2.2386   2.2420   2.2642   2.2933   2.3174   2.3730   2.3905
  2.4100   2.4294   2.4534   2.5154   2.5307   2.5556   2.5677   2.6043
  2.6215   2.6346   2.6653   2.6735   2.7094   2.7169   2.7660   2.7749
  2.7846   2.8093   2.8243   2.8454   2.8524   2.8913   2.9048   2.9163
  2.9255   2.9406   2.9580   2.9856   3.0047   3.0123   3.0227   3.0495
  3.0698   3.0873   3.1009   3.1557   3.1658   3.1810   3.1929   3.2120
  3.2310   3.2507   3.2664   3.2886   3.3251   3.3541   3.3653   3.3855
  3.4113   3.4242   3.4422   3.4498   3.4589   3.4632   3.4804   3.4957
  3.5056   3.5214   3.5342   3.5449   3.5479   3.5693   3.5784   3.5854
  3.6076   3.6396   3.6541   3.6854   3.7023   3.7386   3.7531   3.7899
  3.8533   3.8943   3.9347   3.9396   3.9651   3.9964   4.0303   4.0553
  4.1305   4.2064   4.2622   4.2711   4.2782   4.3114   4.3267   4.3459
  4.3486   4.3617   4.3720   4.3896   4.4187   4.4526   4.5077   4.5409
  4.6086   4.6423   4.7381   4.7818   4.8063   4.8402   4.9087   4.9453
  5.0215   5.0327   5.1627   5.2627   5.3682   5.3803   5.4826   5.5246
  5.6698   5.8451  22.5942  22.6749  22.8851  22.9009  23.0056  23.0646
 23.4093
 --------------------------------------------------------------
 
          Ground-State Mulliken Net Atomic Charges

     Atom                 Charge (a.u.)
  ----------------------------------------
      1 C                    -1.022470
      2 C                    -0.457555
      3 C                    -0.455778
      4 C                    -0.510531
      5 C                    -0.492265
      6 C                    -0.236439
      7 C                     0.803575
      8 H                     0.333398
      9 H                     0.307723
     10 H                     0.315178
     11 H                     0.335796
     12 H                     0.340624
     13 H                     0.244683
     14 H                     0.224357
     15 H                     0.269705
  ----------------------------------------
  Sum of atomic charges =     0.000000

 -----------------------------------------------------------------
                    Cartesian Multipole Moments
 -----------------------------------------------------------------
    Charge (ESU x 10^10)
                -0.0000
    Dipole Moment (Debye)
         X       0.1275      Y      -0.3212      Z      -0.4368
       Tot       0.5569
    Quadrupole Moments (Debye-Ang)
        XX     -45.6540     XY      -2.2978     YY     -37.2535
        XZ      -1.4018     YZ       1.5729     ZZ     -36.0862
    Octopole Moments (Debye-Ang^2)
       XXX    -253.6669    XXY      74.1780    XYY     -64.9486
       YYY     207.5711    XXZ      93.2510    XYZ       6.3132
       YYZ      79.8802    XZZ     -65.4234    YZZ      64.4263
       ZZZ     243.0273
    Hexadecapole Moments (Debye-Ang^3)
      XXXX   -1011.5867   XXXY     465.5542   XXYY    -336.2879
      XYYY     403.9612   YYYY   -1116.5149   XXXZ     542.3979
      XXYZ    -174.8482   XYYZ     147.1352   YYYZ    -518.3501
      XXZZ    -433.3552   XYZZ     121.6199   YYZZ    -446.8209
      XZZZ     464.6608   YZZZ    -512.5658   ZZZZ   -1586.7710
 -----------------------------------------------------------------
Archival summary:
1\1\nid00549\SP\ProcedureUnspecified\BasisUnspecified\78\meili\SunSep2612:32:542021SunSep2612:32:542021\0\\#,ProcedureUnspecified,BasisUnspecified,\\0,1\C\C,1,1.39572\H,2,1.08104,1,119.623\C,2,1.39009,1,121.269,3,-179.081,0\H,4,1.07799,2,119.701,1,177.706,0\C,4,1.38917,2,119.959,1,-0.715337,0\H,6,1.08208,4,120.168,2,179.838,0\C,6,1.39489,4,119.657,2,0.143168,0\H,8,1.08145,6,119.719,4,-179.788,0\C,1,1.39959,2,118.659,3,-179.5,0\H,10,1.06683,1,121.412,2,176.717,0\C,1,1.51015,2,117.607,3,-1.53361,0\H,12,1.08731,1,106.791,2,-66.3465,0\H,12,1.09112,1,108.115,2,49.4289,0\H,12,1.1,1,117.235,2,173.047,0\\\@

 Total job time:  33926.79s(wall), 67197.00s(cpu) 
 Sun Sep 26 12:32:57 2021

        *************************************************************
        *                                                           *
        *  Thank you very much for using Q-Chem.  Have a nice day.  *
        *                                                           *
        *************************************************************


Done Job For Fragment 0
calling putenv with: QCSCRATCH=/global/cscratch1/sd/meili 
calling putenv with: QCLOCALSCR=/tmp 
calling putenv with: QCTHREADS=32 
Creating input file /tmp/qchem6009/Frg2.input
using default PutDataFrgm: nothing
calling putenv with: QCSCRATCH=/tmp/qchem6009/ 
calling putenv with: QCLOCALSCR=/tmp/qchem6009/ 
Spawning Job For Fragment 1
                  Welcome to Q-Chem
     A Quantum Leap Into The Future Of Chemistry


 Q-Chem 5.2, Q-Chem, Inc., Pleasanton, CA (2019)

 License issued to: National Energy Research Scientific Computing Center

 Yihan Shao,  Zhengting Gan,  E. Epifanovsky,  A. T. B. Gilbert,  M. Wormit,  
 J. Kussmann,  A. W. Lange,  A. Behn,  Jia Deng,  Xintian Feng,  D. Ghosh,  
 M. Goldey,  P. R. Horn,  L. D. Jacobson,  I. Kaliman,  T. Kus,  A. Landau,  
 Jie Liu,  E. I. Proynov,  R. M. Richard,  R. P. Steele,  E. J. Sundstrom,  
 H. L. Woodcock III,  P. M. Zimmerman,  D. Zuev,  B. Albrecht,  E. Alguire,  
 S. A. Baeppler,  D. Barton,  Z. Benda,  Y. A. Bernard,  E. J. Berquist,  
 K. B. Bravaya,  H. Burton,  D. Casanova,  Chun-Min Chang,  Yunqing Chen,  
 A. Chien,  K. D. Closser,  M. P. Coons,  S. Coriani,  S. Dasgupta,  
 A. L. Dempwolff,  M. Diedenhofen,  Hainam Do,  R. G. Edgar,  Po-Tung Fang,  
 S. Faraji,  S. Fatehi,  Qingguo Feng,  K. D. Fenk,  J. Fosso-Tande,  
 J. Gayvert,  Qinghui Ge,  A. Ghysels,  G. Gidofalvi,  J. Gomes,  
 J. Gonthier,  A. Gunina,  D. Hait,  M. W. D. Hanson-Heine,  
 P. H. P. Harbach,  A. W. Hauser,  M. F. Herbst,  J. E. Herr,  
 E. G. Hohenstein,  Z. C. Holden,  Kerwin Hui,  B. C. Huynh,  T.-C. Jagau,  
 Hyunjun Ji,  B. Kaduk,  K. Khistyaev,  Jaehoon Kim,  P. Klunzinger,  K. Koh,  
 D. Kosenkov,  L. Koulias,  T. Kowalczyk,  C. M. Krauter,  A. Kunitsa,  
 Ka Un Lao,  A. Laurent,  K. V. Lawler,  Joonho Lee,  D. Lefrancois,  
 S. Lehtola,  D. S. Levine,  Yi-Pei Li,  You-Sheng Lin,  Fenglai Liu,  
 E. Livshits,  A. Luenser,  P. Manohar,  E. Mansoor,  S. F. Manzer,  
 Shan-Ping Mao,  Yuezhi Mao,  N. Mardirossian,  A. V. Marenich,  
 T. Markovich,  L. A. Martinez-Martinez,  S. A. Maurer,  N. J. Mayhall,  
 S. C. McKenzie,  J.-M. Mewes,  P. Morgante,  A. F. Morrison,  
 J. W. Mullinax,  K. Nanda,  T. S. Nguyen-Beck,  R. Olivares-Amaya,  
 J. A. Parkhill,  Zheng Pei,  T. M. Perrine,  F. Plasser,  P. Pokhilko,  
 S. Prager,  A. Prociuk,  E. Ramos,  D. R. Rehn,  F. Rob,  M. Scheurer,  
 M. Schneider,  N. Sergueev,  S. M. Sharada,  S. Sharma,  D. W. Small,  
 T. Stauch,  T. Stein,  Yu-Chuan Su,  A. J. W. Thom,  A. Tkatchenko,  
 T. Tsuchimochi,  N. M. Tubman,  L. Vogt,  M. L. Vidal,  O. Vydrov,  
 M. A. Watson,  J. Wenzel,  M. de Wergifosse,  T. A. Wesolowski,  A. White,  
 J. Witte,  A. Yamada,  Jun Yang,  K. Yao,  S. Yeganeh,  S. R. Yost,  
 Zhi-Qiang You,  A. Zech,  Igor Ying Zhang,  Xing Zhang,  Yan Zhao,  
 Ying Zhu,  B. R. Brooks,  G. K. L. Chan,  C. J. Cramer,  M. S. Gordon,  
 W. J. Hehre,  A. Klamt,  M. W. Schmidt,  C. D. Sherrill,  D. G. Truhlar,  
 A. Aspuru-Guzik,  R. Baer,  A. T. Bell,  N. A. Besley,  Jeng-Da Chai,  
 A. E. DePrince, III,  R. A. DiStasio Jr.,  A. Dreuw,  B. D. Dunietz,  
 T. R. Furlani,  Chao-Ping Hsu,  Yousung Jung,  Jing Kong,  D. S. Lambrecht,  
 WanZhen Liang,  C. Ochsenfeld,  V. A. Rassolov,  L. V. Slipchenko,  
 J. E. Subotnik,  T. Van Voorhis,  J. M. Herbert,  A. I. Krylov,  
 P. M. W. Gill,  M. Head-Gordon

 Contributors to earlier versions of Q-Chem not listed above: 
 R. D. Adamson,  B. Austin,  J. Baker,  G. J. O. Beran,  K. Brandhorst,  
 S. T. Brown,  E. F. C. Byrd,  A. K. Chakraborty,  C.-L. Cheng,  
 Siu Hung Chien,  D. M. Chipman,  D. L. Crittenden,  H. Dachsel,  
 R. J. Doerksen,  A. D. Dutoi,  L. Fusti-Molnar,  W. A. Goddard III,  
 A. Golubeva-Zadorozhnaya,  S. R. Gwaltney,  G. Hawkins,  A. Heyden,  
 S. Hirata,  G. Kedziora,  F. J. Keil,  C. Kelley,  Jihan Kim,  R. A. King,  
 R. Z. Khaliullin,  P. P. Korambath,  W. Kurlancheek,  A. M. Lee,  M. S. Lee,  
 S. V. Levchenko,  Ching Yeh Lin,  D. Liotard,  R. C. Lochan,  I. Lotan,  
 P. E. Maslen,  N. Nair,  D. P. O'Neill,  D. Neuhauser,  E. Neuscamman,  
 C. M. Oana,  R. Olson,  B. Peters,  R. Peverati,  P. A. Pieniazek,  
 Y. M. Rhee,  J. Ritchie,  M. A. Rohrdanz,  E. Rosta,  N. J. Russ,  
 H. F. Schaefer III,  N. E. Schultz,  N. Shenvi,  A. C. Simmonett,  A. Sodt,  
 D. Stuck,  K. S. Thanthiriwatte,  V. Vanovschi,  Tao Wang,  A. Warshel,  
 C. F. Williams,  Q. Wu,  X. Xu,  W. Zhang

 Please cite Q-Chem as follows:
 Y. Shao et al., Mol. Phys. 113, 184-215 (2015)
 DOI: 10.1080/00268976.2014.952696

 Q-Chem 5.2.0 for Intel X86 EM64T Linux

 Parts of Q-Chem use Armadillo 8.300.2 (Tropical Shenanigans).
 http://arma.sourceforge.net/

 Q-Chem begins on Sun Sep 26 12:33:01 2021  

Host: cori01
0

     Scratch files written to /tmp/qchem6009//Frg2//
 May1019 |scratch|qcdevops|jenkins|workspace|build_RNUM -1
Processing $rem in /global/common/cori/software/qchem/5.2/config/preferences:
	 MEM_TOTAL  96000 
NAlpha2: 50
NElect   50
Mult     1
Symmetry turned off for PCM/SM12/SMD calculation

Checking the input file for inconsistencies... 	...done.

--------------------------------------------------------------
User input:
--------------------------------------------------------------
$molecule
0 1
 6	-2.3735887081	3.8383303933	3.3925741548
 6	-1.4695887081	0.2433303933	1.1885741548
 6	-0.7605887081	0.5423303933	2.3545741548
 6	-2.4585887081	1.1143303933	0.7355741548
 6	-1.0505887081	1.7103303933	3.0675741548
 6	-2.7415887081	2.2793303933	1.4475741548
 6	-2.0355887081	2.5903303933	2.6125741548
 1	-1.2515887081	-0.6636696067	0.6405741548
 1	0.0064112919	-0.1326696067	2.7065741548
 1	-3.0175887081	0.8703303933	-0.1544258452
 1	-0.5065887081	1.9283303933	3.9745741548
 1	-3.5165887081	2.9433303933	1.0915741548
 1	-2.3375887081	3.5983303933	4.4565741548
 1	-3.3995887081	4.1333303933	3.1645741548
 1	-1.6996977081	4.6862703933	3.2005481548
$end
$rem
EDA2		1
METHOD		WB97X-V
BASIS		DEF2-TZVPD
XC_GRID		000099000590
NL_GRID		1
UNRESTRICTED		FALSE
MAX_SCF_CYCLES		200
SYMMETRY		FALSE
SYM_IGNORE		TRUE
BASIS_LIN_DEP_THRESH		6
THRESH		14
SCF_CONVERGENCE		8
SCF_PRINT_FRGM		TRUE
SOLVENT_METHOD		PCM
!required keywords
JOBTYPE		SP
SYM_IGNORE		TRUE
SUBSYSTEM		TRUE
GEN_SCFMAN		TRUE
CHILD_INSTRUCTION		2
SYM_IGNORE		TRUE
SCFMI		0
RI_K 0		
PARI_K 0		
MIN_PARI_K 0		
IARI_K 0		
OCC_RI_K 0		
PURECART		1111
MEM_STATIC		2000
MEM_TOTAL		96000
GUI		0
CHILD_MP		1
CHILD_MP_ORDERS		232
FRZ_RELAX		0
FRZ_RELAX_METHOD		0
EDA_CLS_ELEC		1
EDA_CLS_DISP		0
FRZ_ORTHO_DECOMP		1
EDA2		FALSE
FRGM_METHOD		FALSE
CIS_N_ROOTS  0
LOCAL_CIS    0
CIS_RLX_DNS  1
$end
$pcm
THEORY                  CPCM
METHOD                  SWIG
SOLVER                  INVERSION
RADII                   UFF
HPOINTS                 302
HEAVYPOINTS             302
PRINTLEVEL              0
$end
$solvent
DIELECTRIC              78.390000 ! water
$end
--------------------------------------------------------------
 ----------------------------------------------------------------
             Standard Nuclear Orientation (Angstroms)
    I     Atom           X                Y                Z
 ----------------------------------------------------------------
    1      C      -2.3735887081     3.8383303933     3.3925741548
    2      C      -1.4695887081     0.2433303933     1.1885741548
    3      C      -0.7605887081     0.5423303933     2.3545741548
    4      C      -2.4585887081     1.1143303933     0.7355741548
    5      C      -1.0505887081     1.7103303933     3.0675741548
    6      C      -2.7415887081     2.2793303933     1.4475741548
    7      C      -2.0355887081     2.5903303933     2.6125741548
    8      H      -1.2515887081    -0.6636696067     0.6405741548
    9      H       0.0064112919    -0.1326696067     2.7065741548
   10      H      -3.0175887081     0.8703303933    -0.1544258452
   11      H      -0.5065887081     1.9283303933     3.9745741548
   12      H      -3.5165887081     2.9433303933     1.0915741548
   13      H      -2.3375887081     3.5983303933     4.4565741548
   14      H      -3.3995887081     4.1333303933     3.1645741548
   15      H      -1.6996977081     4.6862703933     3.2005481548
 ----------------------------------------------------------------
 Nuclear Repulsion Energy =         269.22389730 hartrees
 There are       25 alpha and       25 beta electrons
 Requested basis set is def2-TZVPD
 There are 131 shells and 331 basis functions

 Total QAlloc Memory Limit  96000 MB
 Mega-Array Size      1956 MB
 MEM_STATIC part      2000 MB
 Discretize the solute cavity surface with Lebedev spheres
	Using 302 Lebedev grid points for each H atom
	Using 302 Lebedev grid points for other atoms
	Atomic van der Waals radii will be scaled by 1.20
 Remove points where switching function is < 1.0e-08
 Keep 1793 surface tesserae and discard 2737 interior tesserae
 Molecular Surface Area = 178.598 Angst**2

                       Distance Matrix (Angstroms)
             C (  1)   C (  2)   C (  3)   C (  4)   C (  5)   C (  6)
   C (  2)  4.312639
   C (  3)  3.813506  1.397010
   C (  4)  3.806186  1.393546  2.414860
   C (  5)  2.526725  2.420391  1.398818  2.788531
   C (  6)  2.519708  2.414614  2.786428  1.394367  2.409905
   C (  7)  1.510016  2.802952  2.426210  2.425002  1.397015  1.397277
   H (  8)  5.394478  1.081886  2.152513  2.151083  3.400971  3.395968
   H (  9)  4.680154  2.150413  1.080656  3.393534  2.155045  3.867083
   H ( 10)  4.669579  2.143148  3.390680  1.078943  3.867295  2.151246
   H ( 11)  2.733590  3.395348  2.147071  3.868336  1.079865  3.391778
   H ( 12)  2.720675  3.389634  3.867235  2.142741  3.392053  1.080859
   H ( 13)  1.091326  4.763326  4.030443  4.475571  2.673992  3.310145
   H ( 14)  1.091643  4.770909  4.529426  3.987466  3.376113  2.611201
   H ( 15)  1.100002  4.882694  4.332417  4.405765  3.048810  3.154650
             C (  7)   H (  8)   H (  9)   H ( 10)   H ( 11)   H ( 12)
   H (  8)  3.884837
   H (  9)  3.404898  2.476465
   H ( 10)  3.402795  2.470615  4.282045
   H ( 11)  2.152006  4.288245  2.473603  4.947032
   H ( 12)  2.152071  4.282998  4.947881  2.469584  4.289757
   H ( 13)  2.123112  5.822877  4.741012  5.400528  2.524636  3.625230
   H ( 14)  2.132147  5.830582  5.478080  4.669995  3.726604  2.393140
   H ( 15)  2.202612  5.947783  5.135854  5.249199  3.103040  3.284312
             H ( 13)   H ( 14)
   H ( 14)  1.755942
   H ( 15)  1.779921  1.787922
 
 A cutoff of  1.0D-14 yielded   8358 shell pairs
 There are     54494 function pairs (     69445 Cartesian)
 Smallest overlap matrix eigenvalue = 5.81E-07
 Linear dependence detected in AO basis
 Tighter screening thresholds may be required for diffuse basis sets
 Use S2THRESH > 14 and THRESH = 14 in case of SCF convergence issues
 Number of orthogonalized atomic orbitals = 330
 Maximum deviation from orthogonality = 1.347E-10

 Scale SEOQF with 1.000000e-01/1.000000e-01/1.000000e-01

 Standard Electronic Orientation quadrupole field applied
 Nucleus-field energy     =    -0.0000000055 hartrees
 Guess from superposition of atomic densities
 Warning:  Energy on first SCF cycle will be non-variational
 SAD guess density has 49.913408 electrons

 -----------------------------------------------------------------------
  General SCF calculation program by
  Eric Jon Sundstrom, Paul Horn, Yuezhi Mao, Dmitri Zuev, Alec White,
  David Stuck, Shaama M.S., Shane Yost, Joonho Lee, David Small,
  Daniel Levine, Susi Lehtola, Hugh Burton, Evgeny Epifanovsky
 -----------------------------------------------------------------------
 Exchange:     0.1670 Hartree-Fock + 1.0000 wB97X-V + LR-HF
 Correlation:  1.0000 wB97X-V
 Using Euler-Maclaurin-Lebedev (99,590) quadrature formula
 Nonlocal Correlation:  VV10 with C = 0.0100 and b = 6.00 and scale = 1.00000
 Grid used for NLC:  SG-1 standard quadrature
Energy prior to optimization (guess energy) = -271.521174148112
Begin Timing: Total SCF Calculation
begin iterations for algorithm: DIIS         
the SCF tolerance is set to 1.00e-08
    1    -271.5211741481      1.94e-03     00000 
    2    -271.5598438052      1.24e-03     00000 
    3    -271.5812023663      1.38e-04     00000 
    4    -271.5816188437      4.71e-05     00000 
    5    -271.5816518851      1.64e-05     00000 
    6    -271.5816564882      4.03e-06     00000 
    7    -271.5816568098      1.85e-06     00000 
    8    -271.5816568679      3.45e-07     00000 
    9    -271.5816568709      6.58e-08     00000 
   10    -271.5816568711      3.61e-08     00000 
   11    -271.5816568711      7.74e-09     00000 Convergence criterion met
Timing for Total SCF: 1573.00s (wall), 3118.78s (cpu)

************** Final PCM Free Energy Summary **************
 G_electrostatic  =      -0.00252526 hartree =      -1.58462698 kcal/mol
 G_cavitation     =       0.00000000 hartree =       0.00000000 kcal/mol
 G_dispersion     =       0.00000000 hartree =       0.00000000 kcal/mol
 G_repulsion      =       0.00000000 hartree =       0.00000000 kcal/mol
 --------------------------------------------------
 Non-electrostatic Free Energy =       0.00000000 hartree =       0.00000000 kcal/mol
 Total                         =      -0.00252526 hartree =      -1.58462698 kcal/mol
 --------------------------------------------------
 SCF Energy (H0 + V/2)                       =    -271.58165687 
 Solute Internal Energy (H0)                 =    -271.57913161 
 Total Free Energy (H0 + V/2 + non-elec)     =    -271.58165687 hartree
                                             = -170420.06183649 kcal/mol
***********************************************************

E_pcm = -0.0025252638
Multipole orders to be included
        2
        3
computing dipole RHS
computing quadrupole RHS
total number of RHS in solve_reponses: 8
RHS batch sizes
        8
Beginning Block Conjugate Gradient Iterations. Batch Number: 0
computing hessian-vector products by finite difference
              1      5.61e-01     00000 Conjugate Gradient Iteration
computing hessian-vector products by finite difference
              2      1.75e-01     00000 Conjugate Gradient Iteration
computing hessian-vector products by finite difference
              3      4.06e-02     00000 Conjugate Gradient Iteration
computing hessian-vector products by finite difference
              4      1.02e-02     00000 Conjugate Gradient Iteration
computing hessian-vector products by finite difference
              5      2.16e-03     00000 Conjugate Gradient Iteration
computing hessian-vector products by finite difference
              6      6.04e-04     00000 Conjugate Gradient Iteration
computing hessian-vector products by finite difference
              7      1.69e-04     00000 Conjugate Gradient Iteration
computing hessian-vector products by finite difference
              8      2.57e-05     00000 Conjugate Gradient Iteration
computing hessian-vector products by finite difference
              9      3.29e-06     00000 Conjugate Gradient Iteration
computing hessian-vector products by finite difference
             10      6.74e-07     00000 Conjugate Gradient Iteration
computing hessian-vector products by finite difference
             11      1.42e-07     00000 Conjugate Gradient Iteration
computing hessian-vector products by finite difference
             12      2.70e-08     00000 Conjugate Gradient Iteration
computing hessian-vector products by finite difference
             13      4.88e-09     00000 CG Converged
batch 0 complete
Done Calculating Responses
TESTING ORTHOGONALIZATION OF MULTIPOLE BASIS
Multipole virts passed orthogonality test
Virts Per Order
           75
          125
 
 --------------------------------------------------------------
 
                    Orbital Energies (a.u.)
 --------------------------------------------------------------
 
 Alpha MOs
 -- Occupied --
-10.2838 -10.2751 -10.2739 -10.2718 -10.2715 -10.2709 -10.2634  -0.9959
 -0.9063  -0.8787  -0.8132  -0.7308  -0.7059  -0.6299  -0.5733  -0.5687
 -0.5352  -0.5305  -0.5140  -0.4879  -0.4728  -0.4426  -0.4413  -0.3490
 -0.3383
 -- Virtual --
  0.0620   0.0634   0.0668   0.0789   0.0845   0.1043   0.1103   0.1136
  0.1353   0.1537   0.1658   0.1683   0.1855   0.1885   0.1945   0.2001
  0.2212   0.2237   0.2329   0.2381   0.2498   0.2582   0.2599   0.2678
  0.2790   0.2812   0.2872   0.2898   0.2929   0.2998   0.3030   0.3094
  0.3185   0.3244   0.3323   0.3369   0.3486   0.3513   0.3647   0.3725
  0.3766   0.3814   0.3831   0.3872   0.3892   0.4004   0.4022   0.4064
  0.4106   0.4276   0.4291   0.4353   0.4397   0.4468   0.4503   0.4518
  0.4631   0.4675   0.4720   0.4806   0.4916   0.4955   0.5098   0.5146
  0.5168   0.5233   0.5321   0.5376   0.5417   0.5468   0.5510   0.5644
  0.5832   0.5864   0.5932   0.5983   0.5988   0.6203   0.6394   0.6434
  0.6585   0.6760   0.6782   0.6859   0.6889   0.6919   0.7203   0.7225
  0.7290   0.7326   0.7434   0.7570   0.7633   0.7647   0.7774   0.7855
  0.7884   0.7924   0.7944   0.8023   0.8063   0.8211   0.8250   0.8290
  0.8321   0.8351   0.8413   0.8536   0.8581   0.8713   0.8858   0.8923
  0.9066   0.9134   0.9335   0.9428   0.9514   1.0086   1.0209   1.0358
  1.0437   1.0600   1.0715   1.0776   1.0899   1.0918   1.1001   1.1382
  1.1609   1.1772   1.2483   1.2768   1.2920   1.3214   1.3473   1.3494
  1.3770   1.4334   1.4477   1.4562   1.4628   1.4791   1.5213   1.5324
  1.5989   1.6032   1.6132   1.6223   1.6620   1.6743   1.7339   1.7772
  1.7879   1.7953   1.7969   1.8136   1.8259   1.8653   1.8857   1.9089
  1.9164   1.9203   1.9419   1.9598   1.9817   1.9919   2.0132   2.0238
  2.0291   2.0450   2.0658   2.0919   2.1110   2.1208   2.1703   2.1741
  2.1955   2.2285   2.2359   2.2675   2.2882   2.3096   2.3880   2.3955
  2.3998   2.4062   2.4785   2.5023   2.5331   2.5525   2.5587   2.6089
  2.6106   2.6202   2.6680   2.6733   2.6924   2.7038   2.7522   2.7666
  2.7822   2.8049   2.8152   2.8423   2.8544   2.8959   2.9033   2.9146
  2.9315   2.9373   2.9562   2.9725   2.9859   3.0168   3.0194   3.0467
  3.0591   3.0856   3.0946   3.1164   3.1760   3.1931   3.2008   3.2134
  3.2318   3.2371   3.2848   3.2944   3.3281   3.3519   3.3593   3.3737
  3.4011   3.4366   3.4455   3.4518   3.4570   3.4714   3.4863   3.4930
  3.5037   3.5300   3.5378   3.5386   3.5511   3.5603   3.5831   3.6006
  3.6158   3.6313   3.6479   3.6870   3.6991   3.7481   3.7741   3.8063
  3.8340   3.8842   3.9086   3.9400   3.9452   3.9882   4.0283   4.0469
  4.1135   4.1943   4.2636   4.2692   4.2837   4.3087   4.3250   4.3262
  4.3424   4.3614   4.3825   4.3894   4.4198   4.4375   4.4682   4.5214
  4.5863   4.6210   4.7339   4.7565   4.8174   4.8728   4.9030   4.9405
  5.0141   5.0412   5.1593   5.2574   5.3533   5.3704   5.4931   5.5234
  5.6625   5.8454  22.5746  22.6570  22.8781  22.8858  22.9941  23.0566
 23.3970
 --------------------------------------------------------------
 
          Ground-State Mulliken Net Atomic Charges

     Atom                 Charge (a.u.)
  ----------------------------------------
      1 C                    -1.037231
      2 C                    -0.476527
      3 C                    -0.481042
      4 C                    -0.518912
      5 C                    -0.350297
      6 C                    -0.377823
      7 C                     0.887508
      8 H                     0.328584
      9 H                     0.315308
     10 H                     0.315235
     11 H                     0.333860
     12 H                     0.308247
     13 H                     0.260827
     14 H                     0.275292
     15 H                     0.216969
  ----------------------------------------
  Sum of atomic charges =     0.000000

 -----------------------------------------------------------------
                    Cartesian Multipole Moments
 -----------------------------------------------------------------
    Charge (ESU x 10^10)
                -0.0000
    Dipole Moment (Debye)
         X      -0.1240      Y       0.3655      Z       0.2831
       Tot       0.4786
    Quadrupole Moments (Debye-Ang)
        XX     -41.5270     XY      -3.6324     YY     -38.7290
        XZ       2.2034     YZ       3.6112     ZZ     -39.3772
    Octopole Moments (Debye-Ang^2)
       XXX     231.7793    XXY     -63.8843    XYY      65.2221
       YYY    -215.5573    XXZ     -98.7356    XYZ      -8.0836
       YYZ     -76.6872    XZZ      83.6573    YZZ     -61.9211
       ZZZ    -257.6330
    Hexadecapole Moments (Debye-Ang^3)
      XXXX   -1070.8620   XXXY     452.4487   XXYY    -352.6175
      XYYY     455.2319   YYYY   -1250.6986   XXXZ     500.9841
      XXYZ    -182.7977   XYYZ     127.3255   YYYZ    -547.5459
      XXZZ    -449.8463   XYZZ     145.0282   YYZZ    -420.9179
      XZZZ     489.1374   YZZZ    -538.8607   ZZZZ   -1426.2697
 -----------------------------------------------------------------
Archival summary:
1\1\nid00549\SP\ProcedureUnspecified\BasisUnspecified\78\meili\SunSep2622:18:522021SunSep2622:18:522021\0\\#,ProcedureUnspecified,BasisUnspecified,\\0,1\C\C,1,1.39701\H,2,1.07987,1,120.105\C,1,1.39728,2,119.183,3,-179.045,0\H,4,1.08086,1,120.011,2,179.091,0\C,4,1.39437,1,120.608,2,-0.784579,0\H,6,1.07894,4,120.331,1,178.985,0\C,6,1.39355,4,120.017,1,0.400697,0\H,8,1.08189,6,120.155,4,179.694,0\C,8,1.39701,6,119.85,4,-0.188299,0\H,10,1.08066,8,119.893,6,179.992,0\C,1,1.51002,2,120.677,3,-1.28952,0\H,12,1.09133,1,108.329,2,-38.406,0\H,12,1.09164,1,109.016,2,-154.627,0\H,12,1.1,1,114.192,2,82.7802,0\\\@

 Total job time:  35153.56s(wall), 69707.57s(cpu) 
 Sun Sep 26 22:18:55 2021

        *************************************************************
        *                                                           *
        *  Thank you very much for using Q-Chem.  Have a nice day.  *
        *                                                           *
        *************************************************************


Done Job For Fragment 1
calling putenv with: QCSCRATCH=/global/cscratch1/sd/meili 
calling putenv with: QCLOCALSCR=/tmp 
calling putenv with: QCTHREADS=32 
Doing General SCFMI
 Exchange:     0.1670 Hartree-Fock + 1.0000 wB97X-V + LR-HF
 Correlation:  1.0000 wB97X-V
 Using Euler-Maclaurin-Lebedev (99,590) quadrature formula
 Nonlocal Correlation:  VV10 with C = 0.0100 and b = 6.00 and scale = 1.00000
 Grid used for NLC:  SG-1 standard quadrature
performing fock build before subrot guess so that all methods have access
Printing subrot_rss_gen Method Specification:
Occupied Subspace Method is 0
Virtual Subspace Method is 0
Energy of the unrelaxed supersystem initial determinant -543.158762295249
performing fock build before subrot guess so that all methods have access
Printing subrot_rss_gen Method Specification:
Occupied Subspace Method is 0
Virtual Subspace Method is 0
Energy of the unrelaxed supersystem initial determinant w/ solvent -543.163427375366
write pseudocanon occs and virts to disk
write pseudocanon orbital energies to disk
Tolerance of ortho_decomp_scf: 1.00e-06
GDM subspace size: 20
Beginning the Orthogonal Decomposition of the Initial Supersystem Wavefunction
    1    -543.1503616436      1.17e-02     ortho_decomp Preconditoned Steepest Descent
    2    -543.1509625877      2.72e-04     ortho_decomp BFGS Step
    3    -543.1509642120      1.95e-05     ortho_decomp BFGS Step
    4    -543.1509642149      7.54e-07     ortho_decomp 00000 Convergence criterion met
 Hartree-Fock
 Hartree-Fock
 Hartree-Fock
Doing General SCFMI
 Exchange:     0.1670 Hartree-Fock + 1.0000 wB97X-V + LR-HF
 Correlation:  1.0000 wB97X-V
 Using Euler-Maclaurin-Lebedev (99,590) quadrature formula
 Nonlocal Correlation:  VV10 with C = 0.0100 and b = 6.00 and scale = 1.00000
 Grid used for NLC:  SG-1 standard quadrature
performing fock build at end of subrot_r(subrot) constructor so that all methods have access
<S^2> of initial wavefunction before polarization iterations 0.0000000000
Beginning iterations for the determination of the polarized wavefunction
Energy prior to optimization (guess energy) = -543.163427375368
Begin Timing: Total SCF Calculation
begin iterations for algorithm: DIIS         
the SCF tolerance is set to 1.00e-08
    1    -543.1634273754      2.38e-05     00000 
    2    -543.1634892304      9.92e-06     00000 
    3    -543.1634959934      5.97e-06     00000 
    4    -543.1634986188      1.39e-06     00000 
    5    -543.1634988358      6.96e-07     00000 
    6    -543.1634988851      1.78e-07     00000 
    7    -543.1634988890      6.00e-08     00000 
    8    -543.1634988894      2.05e-08     00000 
    9    -543.1634988894      5.63e-09     00000 Convergence criterion met
write pseudocanon occs and virts to disk
write pseudocanon orbital energies to disk
Timing for Total SCF: 7557.00s (wall), 15033.05s (cpu)
<S^2> of polarized wavefunction after polarization iterations 0.0000000000
relaxing scfmi constraint to allow all rotations in the entire AO span
Doing General SCFMI
 Exchange:     0.1670 Hartree-Fock + 1.0000 wB97X-V + LR-HF
 Correlation:  1.0000 wB97X-V
 Using Euler-Maclaurin-Lebedev (99,590) quadrature formula
 Nonlocal Correlation:  VV10 with C = 0.0100 and b = 6.00 and scale = 1.00000
 Grid used for NLC:  SG-1 standard quadrature
performing fock build at end of subrot_r(subrot) constructor so that all methods have access
<S^2> of polarized wavefunction before ct-allowed iterations 0.0000000000
Beginning iterations for the determination of the CT-Allowed wavefunction
Energy prior to optimization (guess energy) = -543.163498889404
Begin Timing: Total SCF Calculation
begin iterations for algorithm: DIIS         
the SCF tolerance is set to 1.00e-08
    1    -543.1634988894      3.75e-05     00000 
    2    -543.1638143221      3.67e-06     00000 
    3    -543.1638236866      5.95e-07     00000 
    4    -543.1638240247      1.24e-07     00000 
    5    -543.1638240325      8.46e-08     00000 
    6    -543.1638240346      1.48e-08     00000 
    7    -543.1638240347      5.95e-09     00000 Convergence criterion met
write pseudocanon occs and virts to disk
write pseudocanon orbital energies to disk
Timing for Total SCF: 5355.00s (wall), 10654.58s (cpu)
<S^2> of ct_allowed wavefunction after ct-allowed iterations 0.0000000000

================================
        Results of EDA2         
================================
Basic EDA Quantities
--------------------
Fragment Energies (Ha):
1 -271.5802055439
2 -271.5816568711
--------------------
  E_prp (kJ/mol) = 0.0000
  E_sol (kJ/mol) = 1.0513
  E_frz (kJ/mol) = -5.1601
  E_pol (kJ/mol) = -0.1878
  E_vct (kJ/mol) = -0.8537
  E_int (kJ/mol) = -5.1503
--------------------


Initial Wavefunction Decomposition
--------------------
  --------------------
  Orthogonal Fragment Subspace Decomposition:
  --------------------
     E_elec   (ELEC)   (kJ/mol) = -8.4602
     E_pauli  (PAULI)  (kJ/mol) = 11.6879
     E_disp   (DISP)   (kJ/mol) = -8.3878
     --------------------
     Terms summing to E_pauli:
     --------------------
        E_kep_pauli       (kJ/mol) = 15.3140
        E_disp_free_pauli (kJ/mol) = -3.6261
  --------------------
  Classical Frozen Decomposition:
  --------------------
     E_cls_elec  (CLS ELEC)  (kJ/mol) = -3.1359
     E_cls_pauli (CLS PAULI) (kJ/mol) = -2.0243
    [E_mod_pauli (MOD PAULI) (kJ/mol) = 6.3635 (CLS PAULI - DISP from orthogonal decomposition) ]
  --------------------
--------------------

Simplified EDA Summary (kJ/mol)
--------------------
 PREPARATION     0.0000
 SOLVATION       1.0513
 FROZEN          3.2277      (does not include dispersion)
[PAULI           11.6879]     (if this is negligible, then frozen describes electrostatics)
 DISPERSION      -8.3878
 POLARIZATION    -0.1878
 CHARGE TRANSFER -0.8537
 TOTAL           -5.1503     (PRP + SOL + FRZ + DISP + POL + CT)
--------------------
 
 --------------------------------------------------------------
 
                    Orbital Energies (a.u.)
 --------------------------------------------------------------
 
 Alpha MOs
 -- Occupied --
-10.2850 -10.2838 -10.2754 -10.2744 -10.2739 -10.2727 -10.2717 -10.2716
-10.2710 -10.2709 -10.2702 -10.2691 -10.2637 -10.2634  -0.9964  -0.9959
 -0.9074  -0.9061  -0.8789  -0.8787  -0.8146  -0.8129  -0.7310  -0.7300
 -0.7069  -0.7059  -0.6327  -0.6279  -0.5735  -0.5727  -0.5691  -0.5686
 -0.5364  -0.5353  -0.5308  -0.5297  -0.5169  -0.5130  -0.4894  -0.4880
 -0.4740  -0.4711  -0.4431  -0.4426  -0.4413  -0.4409  -0.3493  -0.3487
 -0.3404  -0.3346
 -- Virtual --
  0.0571   0.0597   0.0616   0.0640   0.0666   0.0720   0.0757   0.0794
  0.0849   0.0953   0.0982   0.1031   0.1094   0.1141   0.1241   0.1309
  0.1378   0.1416   0.1499   0.1542   0.1612   0.1627   0.1682   0.1705
  0.1795   0.1864   0.1921   0.1961   0.1994   0.2048   0.2073   0.2175
  0.2233   0.2277   0.2305   0.2336   0.2376   0.2390   0.2451   0.2462
  0.2503   0.2521   0.2562   0.2600   0.2652   0.2670   0.2702   0.2751
  0.2785   0.2830   0.2879   0.2904   0.2921   0.2956   0.2971   0.3011
  0.3045   0.3061   0.3090   0.3116   0.3190   0.3222   0.3240   0.3260
  0.3348   0.3368   0.3422   0.3446   0.3465   0.3492   0.3540   0.3556
  0.3606   0.3660   0.3700   0.3718   0.3732   0.3758   0.3784   0.3803
  0.3814   0.3847   0.3867   0.3873   0.3913   0.3947   0.3953   0.4018
  0.4019   0.4108   0.4123   0.4149   0.4199   0.4249   0.4269   0.4328
  0.4365   0.4378   0.4434   0.4445   0.4470   0.4511   0.4533   0.4568
  0.4602   0.4621   0.4639   0.4662   0.4680   0.4699   0.4753   0.4804
  0.4857   0.4895   0.4908   0.4953   0.4959   0.4998   0.5032   0.5095
  0.5101   0.5151   0.5186   0.5208   0.5248   0.5282   0.5314   0.5356
  0.5371   0.5403   0.5432   0.5466   0.5487   0.5534   0.5619   0.5662
  0.5689   0.5723   0.5783   0.5791   0.5834   0.5852   0.5918   0.5972
  0.6050   0.6069   0.6142   0.6182   0.6246   0.6281   0.6336   0.6399
  0.6441   0.6523   0.6567   0.6590   0.6636   0.6764   0.6821   0.6833
  0.6884   0.6903   0.6945   0.6994   0.7047   0.7079   0.7167   0.7175
  0.7221   0.7239   0.7283   0.7301   0.7369   0.7405   0.7414   0.7458
  0.7544   0.7604   0.7625   0.7677   0.7707   0.7727   0.7771   0.7810
  0.7822   0.7877   0.7910   0.7948   0.7976   0.8000   0.8010   0.8056
  0.8092   0.8117   0.8141   0.8215   0.8241   0.8287   0.8315   0.8347
  0.8372   0.8391   0.8440   0.8468   0.8489   0.8519   0.8569   0.8633
  0.8660   0.8685   0.8761   0.8804   0.8883   0.8897   0.8987   0.9024
  0.9038   0.9078   0.9155   0.9162   0.9263   0.9266   0.9403   0.9430
  0.9468   0.9533   0.9625   0.9704   0.9727   0.9892   0.9925   0.9990
  1.0091   1.0140   1.0288   1.0358   1.0448   1.0549   1.0584   1.0600
  1.0718   1.0759   1.0826   1.0868   1.0907   1.1001   1.1084   1.1127
  1.1222   1.1370   1.1414   1.1492   1.1532   1.1724   1.1845   1.1886
  1.2088   1.2118   1.2257   1.2700   1.2843   1.3024   1.3144   1.3261
  1.3350   1.3433   1.3559   1.3586   1.3697   1.3729   1.3814   1.4046
  1.4291   1.4434   1.4545   1.4606   1.4693   1.4717   1.4785   1.4815
  1.4904   1.4982   1.5047   1.5363   1.5426   1.5480   1.5538   1.6052
  1.6115   1.6163   1.6184   1.6251   1.6333   1.6419   1.6478   1.6645
  1.6848   1.6949   1.7350   1.7393   1.7623   1.7704   1.7803   1.7921
  1.7967   1.8027   1.8044   1.8104   1.8134   1.8187   1.8400   1.8540
  1.8634   1.8870   1.9014   1.9032   1.9173   1.9195   1.9313   1.9334
  1.9377   1.9497   1.9511   1.9578   1.9709   1.9837   1.9875   1.9994
  2.0113   2.0140   2.0263   2.0359   2.0422   2.0466   2.0509   2.0595
  2.0663   2.0731   2.0859   2.0910   2.0947   2.1014   2.1070   2.1348
  2.1425   2.1491   2.1673   2.1805   2.1829   2.2073   2.2135   2.2216
  2.2347   2.2445   2.2449   2.2568   2.2659   2.2721   2.2816   2.3046
  2.3109   2.3333   2.3473   2.3814   2.4019   2.4056   2.4113   2.4165
  2.4239   2.4320   2.4483   2.4693   2.4881   2.5136   2.5229   2.5422
  2.5445   2.5686   2.5795   2.5813   2.5964   2.6107   2.6116   2.6218
  2.6278   2.6469   2.6485   2.6723   2.6825   2.6877   2.6926   2.7062
  2.7166   2.7216   2.7340   2.7548   2.7705   2.7774   2.7845   2.7904
  2.7990   2.8062   2.8147   2.8230   2.8323   2.8505   2.8544   2.8584
  2.8620   2.9020   2.9068   2.9137   2.9161   2.9252   2.9289   2.9389
  2.9422   2.9460   2.9599   2.9640   2.9723   2.9900   3.0010   3.0060
  3.0138   3.0194   3.0259   3.0400   3.0524   3.0609   3.0704   3.0769
  3.0797   3.0927   3.0960   3.1023   3.1096   3.1268   3.1691   3.1757
  3.1838   3.1963   3.2039   3.2116   3.2143   3.2281   3.2359   3.2493
  3.2524   3.2598   3.2794   3.2955   3.3003   3.3039   3.3166   3.3310
  3.3436   3.3615   3.3710   3.3724   3.3829   3.3906   3.3954   3.4151
  3.4268   3.4381   3.4469   3.4537   3.4567   3.4606   3.4665   3.4700
  3.4744   3.4801   3.4825   3.4966   3.5009   3.5069   3.5102   3.5256
  3.5283   3.5348   3.5419   3.5453   3.5481   3.5518   3.5529   3.5567
  3.5694   3.5775   3.5825   3.5897   3.5916   3.6006   3.6151   3.6155
  3.6251   3.6384   3.6491   3.6560   3.6642   3.6928   3.6957   3.7005
  3.7032   3.7125   3.7458   3.7652   3.7819   3.7976   3.8120   3.8386
  3.8566   3.8860   3.9033   3.9145   3.9390   3.9441   3.9478   3.9541
  3.9689   3.9970   4.0032   4.0371   4.0429   4.0625   4.0763   4.1214
  4.1406   4.2098   4.2221   4.2684   4.2699   4.2758   4.2774   4.2825
  4.2929   4.3119   4.3156   4.3287   4.3329   4.3392   4.3471   4.3511
  4.3569   4.3640   4.3664   4.3774   4.3918   4.3970   4.4005   4.4275
  4.4382   4.4439   4.4648   4.4756   4.5140   4.5347   4.5591   4.5939
  4.6140   4.6253   4.6473   4.7352   4.7432   4.7613   4.7875   4.8089
  4.8175   4.8442   4.8781   4.9080   4.9146   4.9514   4.9619   5.0279
  5.0358   5.0444   5.0533   5.1681   5.1693   5.2676   5.2744   5.3607
  5.3698   5.3767   5.3838   5.4840   5.4944   5.5220   5.5287   5.6682
  5.6818   5.8135   5.8512  22.5985  22.6259  22.6616  22.6787  22.8974
 22.9029  22.9157  22.9343  23.0062  23.0200  23.0661  23.0745  23.4047
 23.4214
 --------------------------------------------------------------
 
          Ground-State Mulliken Net Atomic Charges

     Atom                 Charge (a.u.)
  ----------------------------------------
      1 C                    -1.059213
      2 C                    -0.437204
      3 C                    -0.494239
      4 C                    -0.527270
      5 C                    -0.528418
      6 C                    -0.229975
      7 C                     0.803385
      8 H                     0.374663
      9 H                     0.332644
     10 H                     0.313737
     11 H                     0.345400
     12 H                     0.348623
     13 H                     0.247202
     14 H                     0.232376
     15 H                     0.269578
     16 C                    -1.084923
     17 C                    -0.416928
     18 C                    -0.433886
     19 C                    -0.510670
     20 C                    -0.406457
     21 C                    -0.318021
     22 C                     0.691788
     23 H                     0.372279
     24 H                     0.344079
     25 H                     0.329334
     26 H                     0.351612
     27 H                     0.327072
     28 H                     0.268519
     29 H                     0.278053
     30 H                     0.216858
  ----------------------------------------
  Sum of atomic charges =     0.000000

 -----------------------------------------------------------------
                    Cartesian Multipole Moments
 -----------------------------------------------------------------
    Charge (ESU x 10^10)
                -0.0000
    Dipole Moment (Debye)
         X      -0.0190      Y       0.0553      Z      -0.1644
       Tot       0.1745
    Quadrupole Moments (Debye-Ang)
        XX     -87.2240     XY      -5.9321     YY     -76.0360
        XZ       0.7803     YZ       5.1932     ZZ     -75.5188
    Octopole Moments (Debye-Ang^2)
       XXX     -22.0831    XXY      10.3889    XYY       0.1981
       YYY      -7.8623    XXZ      -5.4824    XYZ      -1.8210
       YYZ       3.2312    XZZ      18.1788    YZZ       2.6081
       ZZZ     -14.5683
    Hexadecapole Moments (Debye-Ang^3)
      XXXX   -2083.4067   XXXY     917.8886   XXYY    -689.0402
      XYYY     859.2674   YYYY   -2367.7815   XXXZ    1043.4363
      XXYZ    -357.5368   XYYZ     274.5219   YYYZ   -1066.0276
      XXZZ    -883.3826   XYZZ     266.6407   YYZZ    -868.0229
      XZZZ     953.8535   YZZZ   -1051.4428   ZZZZ   -3013.5205
 -----------------------------------------------------------------
Archival summary:
1\1\nid00549\SP\ProcedureUnspecified\BasisUnspecified\1416\meili\MonSep2705:15:052021MonSep2705:15:052021\0\\#,ProcedureUnspecified,BasisUnspecified,\\0,1\C\H,1,1.08208\C,1,1.38917,2,120.168\H,3,1.07799,1,120.321,2,1.42645,0\C,3,1.39009,1,119.959,2,179.838,0\H,5,1.08104,3,119.101,1,-179.801,0\C,1,1.39489,2,120.174,3,179.694,0\H,7,1.08145,1,119.719,2,0.516692,0\C,5,1.39572,3,121.269,1,-0.715337,0\C,9,1.39959,5,118.659,3,1.41959,0\H,10,1.06683,9,121.412,5,176.717,0\C,9,1.51015,5,117.607,3,179.385,0\H,12,1.08731,9,106.791,5,-66.3465,0\H,12,1.09112,9,108.115,5,49.4289,0\H,12,1.1,9,117.235,5,173.047,0\H,2,2.74933,1,146.275,3,-68.5915,0\C,16,1.08066,2,101.402,1,-80.4799,0\C,17,1.39701,16,119.893,2,52.1016,0\H,18,1.08189,17,119.995,16,0.109201,0\C,18,1.39355,17,119.85,16,179.992,0\H,20,1.07894,18,119.636,17,-178.783,0\C,20,1.39437,18,120.017,17,-0.188299,0\H,22,1.08086,20,119.381,18,-179.476,0\C,22,1.39728,20,120.608,18,0.400697,0\C,24,1.39701,22,119.183,20,-0.784579,0\H,25,1.07987,24,120.105,22,-179.045,0\C,24,1.51002,22,120.102,20,-178.554,0\H,27,1.09133,24,108.329,22,139.329,0\H,27,1.09164,24,109.016,22,23.1081,0\H,27,1.1,24,114.192,22,-99.4845,0\\\@

 Total job time:  94553.42s(wall), 50715.61s(cpu) 
 Mon Sep 27 05:15:07 2021

        *************************************************************
        *                                                           *
        *  Thank you very much for using Q-Chem.  Have a nice day.  *
        *                                                           *
        *************************************************************


