
Running Job 1 of 1 SSI-042PHE-085PHE-1_SMD_TZVPD.in
qchem SSI-042PHE-085PHE-1_SMD_TZVPD.in_54068.0 /tmp/qchem54068/ 0
/global/common/cori/software/qchem/5.2/exe/qcprog.exe_s SSI-042PHE-085PHE-1_SMD_TZVPD.in_54068.0 /tmp/qchem54068/
                  Welcome to Q-Chem
     A Quantum Leap Into The Future Of Chemistry


 Q-Chem 5.2, Q-Chem, Inc., Pleasanton, CA (2019)

 License issued to: National Energy Research Scientific Computing Center

 Yihan Shao,  Zhengting Gan,  E. Epifanovsky,  A. T. B. Gilbert,  M. Wormit,  
 J. Kussmann,  A. W. Lange,  A. Behn,  Jia Deng,  Xintian Feng,  D. Ghosh,  
 M. Goldey,  P. R. Horn,  L. D. Jacobson,  I. Kaliman,  T. Kus,  A. Landau,  
 Jie Liu,  E. I. Proynov,  R. M. Richard,  R. P. Steele,  E. J. Sundstrom,  
 H. L. Woodcock III,  P. M. Zimmerman,  D. Zuev,  B. Albrecht,  E. Alguire,  
 S. A. Baeppler,  D. Barton,  Z. Benda,  Y. A. Bernard,  E. J. Berquist,  
 K. B. Bravaya,  H. Burton,  D. Casanova,  Chun-Min Chang,  Yunqing Chen,  
 A. Chien,  K. D. Closser,  M. P. Coons,  S. Coriani,  S. Dasgupta,  
 A. L. Dempwolff,  M. Diedenhofen,  Hainam Do,  R. G. Edgar,  Po-Tung Fang,  
 S. Faraji,  S. Fatehi,  Qingguo Feng,  K. D. Fenk,  J. Fosso-Tande,  
 J. Gayvert,  Qinghui Ge,  A. Ghysels,  G. Gidofalvi,  J. Gomes,  
 J. Gonthier,  A. Gunina,  D. Hait,  M. W. D. Hanson-Heine,  
 P. H. P. Harbach,  A. W. Hauser,  M. F. Herbst,  J. E. Herr,  
 E. G. Hohenstein,  Z. C. Holden,  Kerwin Hui,  B. C. Huynh,  T.-C. Jagau,  
 Hyunjun Ji,  B. Kaduk,  K. Khistyaev,  Jaehoon Kim,  P. Klunzinger,  K. Koh,  
 D. Kosenkov,  L. Koulias,  T. Kowalczyk,  C. M. Krauter,  A. Kunitsa,  
 Ka Un Lao,  A. Laurent,  K. V. Lawler,  Joonho Lee,  D. Lefrancois,  
 S. Lehtola,  D. S. Levine,  Yi-Pei Li,  You-Sheng Lin,  Fenglai Liu,  
 E. Livshits,  A. Luenser,  P. Manohar,  E. Mansoor,  S. F. Manzer,  
 Shan-Ping Mao,  Yuezhi Mao,  N. Mardirossian,  A. V. Marenich,  
 T. Markovich,  L. A. Martinez-Martinez,  S. A. Maurer,  N. J. Mayhall,  
 S. C. McKenzie,  J.-M. Mewes,  P. Morgante,  A. F. Morrison,  
 J. W. Mullinax,  K. Nanda,  T. S. Nguyen-Beck,  R. Olivares-Amaya,  
 J. A. Parkhill,  Zheng Pei,  T. M. Perrine,  F. Plasser,  P. Pokhilko,  
 S. Prager,  A. Prociuk,  E. Ramos,  D. R. Rehn,  F. Rob,  M. Scheurer,  
 M. Schneider,  N. Sergueev,  S. M. Sharada,  S. Sharma,  D. W. Small,  
 T. Stauch,  T. Stein,  Yu-Chuan Su,  A. J. W. Thom,  A. Tkatchenko,  
 T. Tsuchimochi,  N. M. Tubman,  L. Vogt,  M. L. Vidal,  O. Vydrov,  
 M. A. Watson,  J. Wenzel,  M. de Wergifosse,  T. A. Wesolowski,  A. White,  
 J. Witte,  A. Yamada,  Jun Yang,  K. Yao,  S. Yeganeh,  S. R. Yost,  
 Zhi-Qiang You,  A. Zech,  Igor Ying Zhang,  Xing Zhang,  Yan Zhao,  
 Ying Zhu,  B. R. Brooks,  G. K. L. Chan,  C. J. Cramer,  M. S. Gordon,  
 W. J. Hehre,  A. Klamt,  M. W. Schmidt,  C. D. Sherrill,  D. G. Truhlar,  
 A. Aspuru-Guzik,  R. Baer,  A. T. Bell,  N. A. Besley,  Jeng-Da Chai,  
 A. E. DePrince, III,  R. A. DiStasio Jr.,  A. Dreuw,  B. D. Dunietz,  
 T. R. Furlani,  Chao-Ping Hsu,  Yousung Jung,  Jing Kong,  D. S. Lambrecht,  
 WanZhen Liang,  C. Ochsenfeld,  V. A. Rassolov,  L. V. Slipchenko,  
 J. E. Subotnik,  T. Van Voorhis,  J. M. Herbert,  A. I. Krylov,  
 P. M. W. Gill,  M. Head-Gordon

 Contributors to earlier versions of Q-Chem not listed above: 
 R. D. Adamson,  B. Austin,  J. Baker,  G. J. O. Beran,  K. Brandhorst,  
 S. T. Brown,  E. F. C. Byrd,  A. K. Chakraborty,  C.-L. Cheng,  
 Siu Hung Chien,  D. M. Chipman,  D. L. Crittenden,  H. Dachsel,  
 R. J. Doerksen,  A. D. Dutoi,  L. Fusti-Molnar,  W. A. Goddard III,  
 A. Golubeva-Zadorozhnaya,  S. R. Gwaltney,  G. Hawkins,  A. Heyden,  
 S. Hirata,  G. Kedziora,  F. J. Keil,  C. Kelley,  Jihan Kim,  R. A. King,  
 R. Z. Khaliullin,  P. P. Korambath,  W. Kurlancheek,  A. M. Lee,  M. S. Lee,  
 S. V. Levchenko,  Ching Yeh Lin,  D. Liotard,  R. C. Lochan,  I. Lotan,  
 P. E. Maslen,  N. Nair,  D. P. O'Neill,  D. Neuhauser,  E. Neuscamman,  
 C. M. Oana,  R. Olson,  B. Peters,  R. Peverati,  P. A. Pieniazek,  
 Y. M. Rhee,  J. Ritchie,  M. A. Rohrdanz,  E. Rosta,  N. J. Russ,  
 H. F. Schaefer III,  N. E. Schultz,  N. Shenvi,  A. C. Simmonett,  A. Sodt,  
 D. Stuck,  K. S. Thanthiriwatte,  V. Vanovschi,  Tao Wang,  A. Warshel,  
 C. F. Williams,  Q. Wu,  X. Xu,  W. Zhang

 Please cite Q-Chem as follows:
 Y. Shao et al., Mol. Phys. 113, 184-215 (2015)
 DOI: 10.1080/00268976.2014.952696

 Q-Chem 5.2.0 for Intel X86 EM64T Linux

 Parts of Q-Chem use Armadillo 8.300.2 (Tropical Shenanigans).
 http://arma.sourceforge.net/

 Q-Chem begins on Sun Sep 26 07:17:18 2021  

Host: cori01
0

     Scratch files written to /tmp/qchem54068//
 May1019 |scratch|qcdevops|jenkins|workspace|build_RNUM -1
Processing $rem in /global/common/cori/software/qchem/5.2/config/preferences:
	 MEM_TOTAL  96000 
NAlpha2: 108
NElect   108
Mult     1
Symmetry turned off for PCM/SM12/SMD calculation

 Q-Chem warning in module libgen/rem_setup.C, line 2803:

 Neither GIA nor STOLL is specified by user. Use STOLL as the default


Checking the input file for inconsistencies... 	...done.

--------------------------------------------------------------
User input:
--------------------------------------------------------------
$comment
SSI-042PHE-085PHE-1.pdb
$end

$molecule
0 1
--
0 1
C    3.485281173703    0.353217258319    3.008946816609
C    0.664281173703   -1.817782741681    1.597946816609
C    1.342281173703   -0.800782741681    2.280946816609
C    1.387281173703   -2.760782741681    0.871946816609
C    2.742281173703   -0.729782741681    2.258946816609
C    2.785281173703   -2.689782741681    0.836946816609
C    3.454281173703   -1.676782741681    1.534946816609
H   -0.414718826297   -1.858782741681    1.628946816609
H    0.771281173703   -0.059782741681    2.820946816609
H    0.872281173703   -3.540782741681    0.327946816609
H    3.348281173703   -3.420782741681    0.273946816609
H    2.846281173703    1.236217258319    3.034946816609
H    4.377281173703    0.634217258319    2.450946816609
H    4.535281173703   -1.634782741681    1.505946816609
H    3.760101173703    0.085517258319    4.039876816609
--
0 1
C   -0.121718826297    0.415217258319   -1.444053183391
C    0.692281173703    1.053217258319   -2.572053183391
C   -1.526718826297    0.918217258319   -1.388053183391
C   -2.576718826297    0.102217258319   -1.790053183391
C   -1.785718826297    2.224217258319   -0.989053183391
C   -3.876718826297    0.580217258319   -1.769053183391
C   -3.084718826297    2.703217258319   -0.967053183391
C   -4.128718826297    1.881217258319   -1.361053183391
H   -0.130718826297   -0.669782741681   -1.567053183391
H    0.366281173703    0.629217258319   -0.491053183391
H    0.842281173703    2.107217258319   -2.334053183391
H   -2.390718826297   -0.917782741681   -2.094053183391
H   -0.973718826297    2.870217258319   -0.687053183391
H   -4.697718826297   -0.059782741681   -2.064053183391
H   -3.290718826297    3.710217258319   -0.633053183391
H   -5.142718826297    2.253217258319   -1.337053183391
H    0.162581173703    0.970967258319   -3.532603183391
H    1.681451173703    0.579347258319   -2.655635183391
$end

$rem
JOBTYPE			EDA
EDA2			1
method			wB97X-V
BASIS			def2-TZVPD
XC_GRID			000099000590
NL_GRID			1
UNRESTRICTED		FALSE
MAX_SCF_CYCLES		200
SYMMETRY		FALSE
SYM_IGNORE		TRUE
MEM_STATIC		2000
BASIS_LIN_DEP_THRESH 	6
THRESH 			14
SCF_CONVERGENCE 	8
SCF_PRINT_FRGM 		TRUE
SOLVENT_METHOD          SMD
$end

$SMX
SOLVENT			WATER
$END
--------------------------------------------------------------
 ----------------------------------------------------------------
             Standard Nuclear Orientation (Angstroms)
    I     Atom           X                Y                Z
 ----------------------------------------------------------------
    1      C       3.4852811737     0.3532172583     3.0089468166
    2      C       0.6642811737    -1.8177827417     1.5979468166
    3      C       1.3422811737    -0.8007827417     2.2809468166
    4      C       1.3872811737    -2.7607827417     0.8719468166
    5      C       2.7422811737    -0.7297827417     2.2589468166
    6      C       2.7852811737    -2.6897827417     0.8369468166
    7      C       3.4542811737    -1.6767827417     1.5349468166
    8      H      -0.4147188263    -1.8587827417     1.6289468166
    9      H       0.7712811737    -0.0597827417     2.8209468166
   10      H       0.8722811737    -3.5407827417     0.3279468166
   11      H       3.3482811737    -3.4207827417     0.2739468166
   12      H       2.8462811737     1.2362172583     3.0349468166
   13      H       4.3772811737     0.6342172583     2.4509468166
   14      H       4.5352811737    -1.6347827417     1.5059468166
   15      H       3.7601011737     0.0855172583     4.0398768166
   16      C      -0.1217188263     0.4152172583    -1.4440531834
   17      C       0.6922811737     1.0532172583    -2.5720531834
   18      C      -1.5267188263     0.9182172583    -1.3880531834
   19      C      -2.5767188263     0.1022172583    -1.7900531834
   20      C      -1.7857188263     2.2242172583    -0.9890531834
   21      C      -3.8767188263     0.5802172583    -1.7690531834
   22      C      -3.0847188263     2.7032172583    -0.9670531834
   23      C      -4.1287188263     1.8812172583    -1.3610531834
   24      H      -0.1307188263    -0.6697827417    -1.5670531834
   25      H       0.3662811737     0.6292172583    -0.4910531834
   26      H       0.8422811737     2.1072172583    -2.3340531834
   27      H      -2.3907188263    -0.9177827417    -2.0940531834
   28      H      -0.9737188263     2.8702172583    -0.6870531834
   29      H      -4.6977188263    -0.0597827417    -2.0640531834
   30      H      -3.2907188263     3.7102172583    -0.6330531834
   31      H      -5.1427188263     2.2532172583    -1.3370531834
   32      H       0.1625811737     0.9709672583    -3.5326031834
   33      H       1.6814511737     0.5793472583    -2.6556351834
 ----------------------------------------------------------------
 Nuclear Repulsion Energy =         860.15988063 hartrees
 There are       54 alpha and       54 beta electrons
 Requested basis set is def2-TZVPD
 There are 285 shells and 717 basis functions

 Total QAlloc Memory Limit  96000 MB
 Mega-Array Size      1956 MB
 MEM_STATIC part      2000 MB
 
 Citation of the SMD model:
 Marenich, A.V.; Cramer, C.J.; Truhlar, D.G.
 J. Phys. Chem. B 2009, 113, 6378-6396.
 iSolventCode=           1
 Solvent: water                                                           
 
 vradii
            1           2           3           4           5           6
    1   1.8500000   1.8500000   1.8500000   1.8500000   1.8500000   1.8500000
            7           8           9          10          11          12
    1   1.8500000   1.2000000   1.2000000   1.2000000   1.2000000   1.2000000
           13          14          15          16          17          18
    1   1.2000000   1.2000000   1.2000000   1.8500000   1.8500000   1.8500000
           19          20          21          22          23          24
    1   1.8500000   1.8500000   1.8500000   1.8500000   1.8500000   1.2000000
           25          26          27          28          29          30
    1   1.2000000   1.2000000   1.2000000   1.2000000   1.2000000   1.2000000
           31          32          33
    1   1.2000000   1.2000000   1.2000000
 Changing PCM_VDW_RADII to SMD_RADIUS
 Discretize the solute cavity surface with Lebedev spheres
	Using 110 Lebedev grid points for each H atom
	Using 194 Lebedev grid points for other atoms
	Atomic van der Waals radii will be scaled by 1.20
 Remove points where switching function is < 1.0e-08
 Keep 2371 surface tesserae and discard 2519 interior tesserae
 Molecular Surface Area = 284.679 Angst**2
 A cutoff of  1.0D-14 yielded  33624 shell pairs
 There are    211812 function pairs (    265551 Cartesian)
 Smallest overlap matrix eigenvalue = 4.72E-07
 Linear dependence detected in AO basis
 Tighter screening thresholds may be required for diffuse basis sets
 Use S2THRESH > 14 and THRESH = 14 in case of SCF convergence issues
 Number of orthogonalized atomic orbitals = 714
 Maximum deviation from orthogonality = 2.120E-10

 Scale SEOQF with 1.000000e-02/1.000000e-01/1.000000e-01

 Standard Electronic Orientation quadrupole field applied
 Nucleus-field energy     =    -0.0000000141 hartrees

 -----------------------------------------------------------------------
  General SCF calculation program by
  Eric Jon Sundstrom, Paul Horn, Yuezhi Mao, Dmitri Zuev, Alec White,
  David Stuck, Shaama M.S., Shane Yost, Joonho Lee, David Small,
  Daniel Levine, Susi Lehtola, Hugh Burton, Evgeny Epifanovsky
 -----------------------------------------------------------------------
================================================================
                 ALMO-EDA with the EDA2 driver                  
================================================================
 The second-generation ALMO-EDA (for DFT):                      
 P. R. Horn, Y. Mao and M. Head-Gordon, PCCP, 18, 23067 (2016)  
 Decomposition of the frozen energy:                            
 P. R. Horn, Y. Mao and M. Head-Gordon, JCP, 144, 114107 (2016) 
 FERF model for polarization:                                   
 P. R. Horn and M. Head-Gordon, JCP, 143, 114111 (2015)         
Using eda2 option set 1
Option set summary: Frozen orbital wavefunction, initial wavefunction decomposition, and nDQ polarization.
--------------------------------
Printing EDA Options
--------------------------------
eda_child_super_basis      0
fragmo_guess_mode          0
child_mp                   1
child_mp_orders            232
cls_elec                   1
cls_disp                   0
scfmi_mode                 1
scfmi_occs                 0
scfmi_virts                0
frz_relax                  0
frz_relax_method           0
dc_pen_start               0
dc_pen_conv                0
dc_pen_increment           0
dc_pen_steps               0
dc_pen_thresh_factor       0
dc_pen_pre_newton_thresh   0
frz_ortho_decomp           1
frz_ortho_decomp_conv      6
frgm_method                2
scfmi_freeze_ss            0
separate_rehyb             0
plot_diff_den              0
eda_nocv                   0
eda_vct_relax              1
disp_free_x                0
disp_free_c                0
eda_bsse                   0
eda_pct_a                  0
eda_covp                   0
--------------------------------
Attempting to make child job directory: /tmp/qchem54068//Frg1/
Attempting to make child job directory: /tmp/qchem54068//Frg2/
Creating input file /tmp/qchem54068/Frg1.input
using default PutDataFrgm: nothing
calling putenv with: QCSCRATCH=/tmp/qchem54068/ 
calling putenv with: QCLOCALSCR=/tmp/qchem54068/ 
Spawning Job For Fragment 0
                  Welcome to Q-Chem
     A Quantum Leap Into The Future Of Chemistry


 Q-Chem 5.2, Q-Chem, Inc., Pleasanton, CA (2019)

 License issued to: National Energy Research Scientific Computing Center

 Yihan Shao,  Zhengting Gan,  E. Epifanovsky,  A. T. B. Gilbert,  M. Wormit,  
 J. Kussmann,  A. W. Lange,  A. Behn,  Jia Deng,  Xintian Feng,  D. Ghosh,  
 M. Goldey,  P. R. Horn,  L. D. Jacobson,  I. Kaliman,  T. Kus,  A. Landau,  
 Jie Liu,  E. I. Proynov,  R. M. Richard,  R. P. Steele,  E. J. Sundstrom,  
 H. L. Woodcock III,  P. M. Zimmerman,  D. Zuev,  B. Albrecht,  E. Alguire,  
 S. A. Baeppler,  D. Barton,  Z. Benda,  Y. A. Bernard,  E. J. Berquist,  
 K. B. Bravaya,  H. Burton,  D. Casanova,  Chun-Min Chang,  Yunqing Chen,  
 A. Chien,  K. D. Closser,  M. P. Coons,  S. Coriani,  S. Dasgupta,  
 A. L. Dempwolff,  M. Diedenhofen,  Hainam Do,  R. G. Edgar,  Po-Tung Fang,  
 S. Faraji,  S. Fatehi,  Qingguo Feng,  K. D. Fenk,  J. Fosso-Tande,  
 J. Gayvert,  Qinghui Ge,  A. Ghysels,  G. Gidofalvi,  J. Gomes,  
 J. Gonthier,  A. Gunina,  D. Hait,  M. W. D. Hanson-Heine,  
 P. H. P. Harbach,  A. W. Hauser,  M. F. Herbst,  J. E. Herr,  
 E. G. Hohenstein,  Z. C. Holden,  Kerwin Hui,  B. C. Huynh,  T.-C. Jagau,  
 Hyunjun Ji,  B. Kaduk,  K. Khistyaev,  Jaehoon Kim,  P. Klunzinger,  K. Koh,  
 D. Kosenkov,  L. Koulias,  T. Kowalczyk,  C. M. Krauter,  A. Kunitsa,  
 Ka Un Lao,  A. Laurent,  K. V. Lawler,  Joonho Lee,  D. Lefrancois,  
 S. Lehtola,  D. S. Levine,  Yi-Pei Li,  You-Sheng Lin,  Fenglai Liu,  
 E. Livshits,  A. Luenser,  P. Manohar,  E. Mansoor,  S. F. Manzer,  
 Shan-Ping Mao,  Yuezhi Mao,  N. Mardirossian,  A. V. Marenich,  
 T. Markovich,  L. A. Martinez-Martinez,  S. A. Maurer,  N. J. Mayhall,  
 S. C. McKenzie,  J.-M. Mewes,  P. Morgante,  A. F. Morrison,  
 J. W. Mullinax,  K. Nanda,  T. S. Nguyen-Beck,  R. Olivares-Amaya,  
 J. A. Parkhill,  Zheng Pei,  T. M. Perrine,  F. Plasser,  P. Pokhilko,  
 S. Prager,  A. Prociuk,  E. Ramos,  D. R. Rehn,  F. Rob,  M. Scheurer,  
 M. Schneider,  N. Sergueev,  S. M. Sharada,  S. Sharma,  D. W. Small,  
 T. Stauch,  T. Stein,  Yu-Chuan Su,  A. J. W. Thom,  A. Tkatchenko,  
 T. Tsuchimochi,  N. M. Tubman,  L. Vogt,  M. L. Vidal,  O. Vydrov,  
 M. A. Watson,  J. Wenzel,  M. de Wergifosse,  T. A. Wesolowski,  A. White,  
 J. Witte,  A. Yamada,  Jun Yang,  K. Yao,  S. Yeganeh,  S. R. Yost,  
 Zhi-Qiang You,  A. Zech,  Igor Ying Zhang,  Xing Zhang,  Yan Zhao,  
 Ying Zhu,  B. R. Brooks,  G. K. L. Chan,  C. J. Cramer,  M. S. Gordon,  
 W. J. Hehre,  A. Klamt,  M. W. Schmidt,  C. D. Sherrill,  D. G. Truhlar,  
 A. Aspuru-Guzik,  R. Baer,  A. T. Bell,  N. A. Besley,  Jeng-Da Chai,  
 A. E. DePrince, III,  R. A. DiStasio Jr.,  A. Dreuw,  B. D. Dunietz,  
 T. R. Furlani,  Chao-Ping Hsu,  Yousung Jung,  Jing Kong,  D. S. Lambrecht,  
 WanZhen Liang,  C. Ochsenfeld,  V. A. Rassolov,  L. V. Slipchenko,  
 J. E. Subotnik,  T. Van Voorhis,  J. M. Herbert,  A. I. Krylov,  
 P. M. W. Gill,  M. Head-Gordon

 Contributors to earlier versions of Q-Chem not listed above: 
 R. D. Adamson,  B. Austin,  J. Baker,  G. J. O. Beran,  K. Brandhorst,  
 S. T. Brown,  E. F. C. Byrd,  A. K. Chakraborty,  C.-L. Cheng,  
 Siu Hung Chien,  D. M. Chipman,  D. L. Crittenden,  H. Dachsel,  
 R. J. Doerksen,  A. D. Dutoi,  L. Fusti-Molnar,  W. A. Goddard III,  
 A. Golubeva-Zadorozhnaya,  S. R. Gwaltney,  G. Hawkins,  A. Heyden,  
 S. Hirata,  G. Kedziora,  F. J. Keil,  C. Kelley,  Jihan Kim,  R. A. King,  
 R. Z. Khaliullin,  P. P. Korambath,  W. Kurlancheek,  A. M. Lee,  M. S. Lee,  
 S. V. Levchenko,  Ching Yeh Lin,  D. Liotard,  R. C. Lochan,  I. Lotan,  
 P. E. Maslen,  N. Nair,  D. P. O'Neill,  D. Neuhauser,  E. Neuscamman,  
 C. M. Oana,  R. Olson,  B. Peters,  R. Peverati,  P. A. Pieniazek,  
 Y. M. Rhee,  J. Ritchie,  M. A. Rohrdanz,  E. Rosta,  N. J. Russ,  
 H. F. Schaefer III,  N. E. Schultz,  N. Shenvi,  A. C. Simmonett,  A. Sodt,  
 D. Stuck,  K. S. Thanthiriwatte,  V. Vanovschi,  Tao Wang,  A. Warshel,  
 C. F. Williams,  Q. Wu,  X. Xu,  W. Zhang

 Please cite Q-Chem as follows:
 Y. Shao et al., Mol. Phys. 113, 184-215 (2015)
 DOI: 10.1080/00268976.2014.952696

 Q-Chem 5.2.0 for Intel X86 EM64T Linux

 Parts of Q-Chem use Armadillo 8.300.2 (Tropical Shenanigans).
 http://arma.sourceforge.net/

 Q-Chem begins on Sun Sep 26 07:17:39 2021  

Host: cori01
0

     Scratch files written to /tmp/qchem54068//Frg1//
 May1019 |scratch|qcdevops|jenkins|workspace|build_RNUM -1
Processing $rem in /global/common/cori/software/qchem/5.2/config/preferences:
	 MEM_TOTAL  96000 
NAlpha2: 50
NElect   50
Mult     1
Symmetry turned off for PCM/SM12/SMD calculation

Checking the input file for inconsistencies... 	...done.

--------------------------------------------------------------
User input:
--------------------------------------------------------------
$molecule
0 1
 6	3.4852811737	0.3532172583	3.0089468166
 6	0.6642811737	-1.8177827417	1.5979468166
 6	1.3422811737	-0.8007827417	2.2809468166
 6	1.3872811737	-2.7607827417	0.8719468166
 6	2.7422811737	-0.7297827417	2.2589468166
 6	2.7852811737	-2.6897827417	0.8369468166
 6	3.4542811737	-1.6767827417	1.5349468166
 1	-0.4147188263	-1.8587827417	1.6289468166
 1	0.7712811737	-0.0597827417	2.8209468166
 1	0.8722811737	-3.5407827417	0.3279468166
 1	3.3482811737	-3.4207827417	0.2739468166
 1	2.8462811737	1.2362172583	3.0349468166
 1	4.3772811737	0.6342172583	2.4509468166
 1	4.5352811737	-1.6347827417	1.5059468166
 1	3.7601011737	0.0855172583	4.0398768166
$end
$rem
EDA2		1
METHOD		WB97X-V
BASIS		DEF2-TZVPD
XC_GRID		000099000590
NL_GRID		1
UNRESTRICTED		FALSE
MAX_SCF_CYCLES		200
SYMMETRY		FALSE
SYM_IGNORE		TRUE
BASIS_LIN_DEP_THRESH		6
THRESH		14
SCF_CONVERGENCE		8
SCF_PRINT_FRGM		TRUE
SOLVENT_METHOD		SMD
!required keywords
JOBTYPE		SP
SYM_IGNORE		TRUE
SUBSYSTEM		TRUE
GEN_SCFMAN		TRUE
CHILD_INSTRUCTION		2
SYM_IGNORE		TRUE
SCFMI		0
RI_K 0		
PARI_K 0		
MIN_PARI_K 0		
IARI_K 0		
OCC_RI_K 0		
PURECART		1111
MEM_STATIC		2000
MEM_TOTAL		96000
GUI		0
CHILD_MP		1
CHILD_MP_ORDERS		232
FRZ_RELAX		0
FRZ_RELAX_METHOD		0
EDA_CLS_ELEC		1
EDA_CLS_DISP		0
FRZ_ORTHO_DECOMP		1
EDA2		FALSE
FRGM_METHOD		FALSE
CIS_N_ROOTS  0
LOCAL_CIS    0
CIS_RLX_DNS  1
$end
$smx
SOLVENT			WATER
$end
--------------------------------------------------------------
 ----------------------------------------------------------------
             Standard Nuclear Orientation (Angstroms)
    I     Atom           X                Y                Z
 ----------------------------------------------------------------
    1      C       3.4852811737     0.3532172583     3.0089468166
    2      C       0.6642811737    -1.8177827417     1.5979468166
    3      C       1.3422811737    -0.8007827417     2.2809468166
    4      C       1.3872811737    -2.7607827417     0.8719468166
    5      C       2.7422811737    -0.7297827417     2.2589468166
    6      C       2.7852811737    -2.6897827417     0.8369468166
    7      C       3.4542811737    -1.6767827417     1.5349468166
    8      H      -0.4147188263    -1.8587827417     1.6289468166
    9      H       0.7712811737    -0.0597827417     2.8209468166
   10      H       0.8722811737    -3.5407827417     0.3279468166
   11      H       3.3482811737    -3.4207827417     0.2739468166
   12      H       2.8462811737     1.2362172583     3.0349468166
   13      H       4.3772811737     0.6342172583     2.4509468166
   14      H       4.5352811737    -1.6347827417     1.5059468166
   15      H       3.7601011737     0.0855172583     4.0398768166
 ----------------------------------------------------------------
 Nuclear Repulsion Energy =         269.03450879 hartrees
 There are       25 alpha and       25 beta electrons
 Requested basis set is def2-TZVPD
 There are 131 shells and 331 basis functions

 Total QAlloc Memory Limit  96000 MB
 Mega-Array Size      1956 MB
 MEM_STATIC part      2000 MB
 
 Citation of the SMD model:
 Marenich, A.V.; Cramer, C.J.; Truhlar, D.G.
 J. Phys. Chem. B 2009, 113, 6378-6396.
 iSolventCode=           1
 Solvent: water                                                           
 
 vradii
            1           2           3           4           5           6
    1   1.8500000   1.8500000   1.8500000   1.8500000   1.8500000   1.8500000
            7           8           9          10          11          12
    1   1.8500000   1.2000000   1.2000000   1.2000000   1.2000000   1.2000000
           13          14          15
    1   1.2000000   1.2000000   1.2000000
 Changing PCM_VDW_RADII to SMD_RADIUS
 Discretize the solute cavity surface with Lebedev spheres
	Using 110 Lebedev grid points for each H atom
	Using 194 Lebedev grid points for other atoms
	Atomic van der Waals radii will be scaled by 1.20
 Remove points where switching function is < 1.0e-08
 Keep 1095 surface tesserae and discard 1143 interior tesserae
 Molecular Surface Area = 132.735 Angst**2

                       Distance Matrix (Angstroms)
             C (  1)   C (  2)   C (  3)   C (  4)   C (  5)   C (  6)
   C (  2)  3.829126
   C (  3)  2.540502  1.400165
   C (  4)  4.320344  1.392499  2.414313
   C (  5)  1.512428  2.436955  1.401972  2.807981
   C (  6)  3.803608  2.416226  2.781314  1.400239  2.421886
   C (  7)  2.508892  2.794271  2.405085  2.426338  1.388499  1.400334
   H (  8)  4.691199  1.080224  2.152096  2.152640  3.411479  3.399680
   H (  9)  2.751674  2.144235  1.080149  3.387249  2.156290  3.861263
   H ( 10)  5.401737  2.150556  3.397456  1.081462  3.889394  2.154728
   H ( 11)  4.662839  3.395061  3.862187  2.153770  3.398373  1.080879
   H ( 12)  1.090269  4.019081  2.641950  4.773181  2.116164  4.499822
   H ( 13)  1.089031  4.530594  3.361451  4.791593  2.137893  4.023486
   H ( 14)  2.704377  3.876415  3.389901  3.402901  2.144967  2.150136
   H ( 15)  1.100003  4.378319  3.118528  4.875190  2.207348  4.348715
             C (  7)   H (  8)   H (  9)   H ( 10)   H ( 11)   H ( 12)
   H (  8)  3.874419
   H (  9)  3.386292  2.462491
   H ( 10)  3.405594  2.485577  4.282827
   H ( 11)  2.154737  4.293721  4.942111  2.479494
   H ( 12)  3.332452  4.710624  2.455817  5.834745  5.437166
   H ( 13)  2.651736  5.463881  3.690768  5.850024  4.716057  1.745686
   H ( 14)  1.082204  4.956592  4.286904  4.293960  2.473174  3.665133
   H ( 15)  3.077970  5.198270  3.231091  5.938685  5.161973  1.780186
             H ( 13)   H ( 14)
   H ( 14)  2.462996
   H ( 15)  1.790721  3.159294
 
 A cutoff of  1.0D-14 yielded   8358 shell pairs
 There are     54496 function pairs (     69449 Cartesian)
 Smallest overlap matrix eigenvalue = 5.83E-07
 Linear dependence detected in AO basis
 Tighter screening thresholds may be required for diffuse basis sets
 Use S2THRESH > 14 and THRESH = 14 in case of SCF convergence issues
 Number of orthogonalized atomic orbitals = 330
 Maximum deviation from orthogonality = 1.524E-10

 Scale SEOQF with 1.000000e-01/1.000000e-01/1.000000e-01

 Standard Electronic Orientation quadrupole field applied
 Nucleus-field energy     =     0.0000000025 hartrees
 Guess from superposition of atomic densities
 Warning:  Energy on first SCF cycle will be non-variational
 SAD guess density has 49.913408 electrons

 -----------------------------------------------------------------------
  General SCF calculation program by
  Eric Jon Sundstrom, Paul Horn, Yuezhi Mao, Dmitri Zuev, Alec White,
  David Stuck, Shaama M.S., Shane Yost, Joonho Lee, David Small,
  Daniel Levine, Susi Lehtola, Hugh Burton, Evgeny Epifanovsky
 -----------------------------------------------------------------------
 Exchange:     0.1670 Hartree-Fock + 1.0000 wB97X-V + LR-HF
 Correlation:  1.0000 wB97X-V
 Using Euler-Maclaurin-Lebedev (99,590) quadrature formula
 Nonlocal Correlation:  VV10 with C = 0.0100 and b = 6.00 and scale = 1.00000
 Grid used for NLC:  SG-1 standard quadrature
Energy prior to optimization (guess energy) = -271.521178744435
Begin Timing: Total SCF Calculation
begin iterations for algorithm: DIIS         
the SCF tolerance is set to 1.00e-08
    1    -271.5211787444      1.93e-03     00000 
    2    -271.5616189497      1.25e-03     00000 
    3    -271.5846963656      1.55e-04     00000 
    4    -271.5853988958      4.54e-05     00000 
    5    -271.5854488026      2.08e-05     00000 
    6    -271.5854560260      5.34e-06     00000 
    7    -271.5854567254      1.22e-06     00000 
    8    -271.5854567563      4.72e-07     00000 
    9    -271.5854567610      7.87e-08     00000 
   10    -271.5854567612      3.52e-08     00000 
   11    -271.5854567613      1.16e-08     00000 
   12    -271.5854567613      4.41e-09     00000 Convergence criterion met
Timing for Total SCF: 1431.00s (wall), 2844.04s (cpu)
(3)  G-ENP(liq) elect-nuc-pol free energy of system     -271.585456761 a.u.
(4)  G-CDS(liq) cavity-dispersion-solvent structure 
     free energy                                                3.2043 kcal/mol
(6)  G-S(liq) free energy of system                     -271.580350408 a.u.
E_pcm = -0.0075893257
E_cds = 0.0051063534
Multipole orders to be included
        2
        3
computing dipole RHS
computing quadrupole RHS
total number of RHS in solve_reponses: 8
RHS batch sizes
        8
Beginning Block Conjugate Gradient Iterations. Batch Number: 0
computing hessian-vector products by finite difference
              1      6.35e-01     00000 Conjugate Gradient Iteration
computing hessian-vector products by finite difference
              2      1.98e-01     00000 Conjugate Gradient Iteration
computing hessian-vector products by finite difference
              3      4.73e-02     00000 Conjugate Gradient Iteration
computing hessian-vector products by finite difference
              4      1.19e-02     00000 Conjugate Gradient Iteration
computing hessian-vector products by finite difference
              5      2.25e-03     00000 Conjugate Gradient Iteration
computing hessian-vector products by finite difference
              6      6.62e-04     00000 Conjugate Gradient Iteration
computing hessian-vector products by finite difference
              7      1.49e-04     00000 Conjugate Gradient Iteration
computing hessian-vector products by finite difference
              8      2.46e-05     00000 Conjugate Gradient Iteration
computing hessian-vector products by finite difference
              9      3.13e-06     00000 Conjugate Gradient Iteration
computing hessian-vector products by finite difference
             10      5.55e-07     00000 Conjugate Gradient Iteration
computing hessian-vector products by finite difference
             11      1.07e-07     00000 Conjugate Gradient Iteration
computing hessian-vector products by finite difference
             12      1.59e-08     00000 Conjugate Gradient Iteration
computing hessian-vector products by finite difference
             13      3.75e-09     00000 CG Converged
batch 0 complete
Done Calculating Responses
TESTING ORTHOGONALIZATION OF MULTIPOLE BASIS
Multipole virts passed orthogonality test
Virts Per Order
           75
          125
 
 --------------------------------------------------------------
 
                    Orbital Energies (a.u.)
 --------------------------------------------------------------
 
 Alpha MOs
 -- Occupied --
-10.2787 -10.2700 -10.2696 -10.2670 -10.2666 -10.2650 -10.2542  -0.9912
 -0.9006  -0.8729  -0.8067  -0.7249  -0.7001  -0.6231  -0.5668  -0.5613
 -0.5287  -0.5233  -0.5080  -0.4788  -0.4689  -0.4360  -0.4342  -0.3454
 -0.3353
 -- Virtual --
  0.0654   0.0685   0.0708   0.0843   0.0900   0.1095   0.1158   0.1184
  0.1411   0.1593   0.1713   0.1733   0.1932   0.1943   0.2002   0.2074
  0.2279   0.2288   0.2393   0.2430   0.2560   0.2644   0.2664   0.2751
  0.2862   0.2871   0.2885   0.2968   0.2979   0.3065   0.3078   0.3145
  0.3223   0.3296   0.3374   0.3394   0.3549   0.3572   0.3706   0.3770
  0.3845   0.3855   0.3883   0.3920   0.3943   0.4048   0.4089   0.4139
  0.4145   0.4325   0.4341   0.4396   0.4446   0.4517   0.4540   0.4560
  0.4663   0.4729   0.4777   0.4861   0.4982   0.4993   0.5162   0.5213
  0.5226   0.5292   0.5372   0.5429   0.5455   0.5494   0.5546   0.5707
  0.5890   0.5929   0.6007   0.6041   0.6047   0.6219   0.6460   0.6485
  0.6635   0.6773   0.6874   0.6894   0.6915   0.6971   0.7251   0.7260
  0.7340   0.7365   0.7489   0.7607   0.7676   0.7700   0.7835   0.7908
  0.7929   0.7948   0.7994   0.8072   0.8108   0.8258   0.8306   0.8364
  0.8389   0.8408   0.8440   0.8580   0.8620   0.8790   0.8904   0.9003
  0.9098   0.9180   0.9358   0.9472   0.9552   1.0169   1.0219   1.0435
  1.0485   1.0615   1.0746   1.0869   1.0912   1.0930   1.1054   1.1419
  1.1662   1.1847   1.2493   1.2772   1.2973   1.3203   1.3496   1.3538
  1.3800   1.4375   1.4519   1.4605   1.4685   1.4877   1.5246   1.5377
  1.6030   1.6043   1.6201   1.6281   1.6688   1.6771   1.7432   1.7845
  1.7963   1.8039   1.8052   1.8216   1.8318   1.8708   1.8924   1.9157
  1.9226   1.9309   1.9571   1.9629   1.9855   1.9969   2.0194   2.0253
  2.0333   2.0528   2.0736   2.0980   2.1212   2.1252   2.1735   2.1783
  2.1994   2.2374   2.2420   2.2723   2.2911   2.3127   2.3947   2.4007
  2.4038   2.4061   2.4897   2.5097   2.5366   2.5534   2.5648   2.6141
  2.6200   2.6236   2.6722   2.6887   2.6974   2.7112   2.7563   2.7697
  2.7860   2.8099   2.8245   2.8472   2.8619   2.9054   2.9115   2.9161
  2.9386   2.9436   2.9553   2.9748   2.9946   3.0218   3.0240   3.0506
  3.0674   3.0886   3.1026   3.1236   3.1810   3.1980   3.2089   3.2297
  3.2343   3.2389   3.2903   3.3086   3.3269   3.3529   3.3670   3.3792
  3.4021   3.4411   3.4518   3.4559   3.4646   3.4767   3.4887   3.4988
  3.5116   3.5295   3.5424   3.5432   3.5628   3.5652   3.5906   3.6080
  3.6115   3.6400   3.6505   3.6874   3.7021   3.7535   3.7836   3.8113
  3.8304   3.8910   3.9138   3.9499   3.9532   3.9903   4.0309   4.0503
  4.1170   4.1994   4.2667   4.2760   4.2894   4.3147   4.3213   4.3286
  4.3434   4.3650   4.3798   4.3959   4.4266   4.4375   4.4690   4.5247
  4.5954   4.6208   4.7472   4.7522   4.8229   4.8825   4.9067   4.9469
  5.0173   5.0457   5.1595   5.2621   5.3538   5.3679   5.4952   5.5311
  5.6676   5.8483  22.5834  22.6638  22.8757  22.8883  22.9940  23.0593
 23.4029
 --------------------------------------------------------------
 
          Ground-State Mulliken Net Atomic Charges

     Atom                 Charge (a.u.)
  ----------------------------------------
      1 C                    -1.079561
      2 C                    -0.565441
      3 C                    -0.410490
      4 C                    -0.558454
      5 C                     0.807682
      6 C                    -0.555979
      7 C                    -0.402830
      8 H                     0.376900
      9 H                     0.390299
     10 H                     0.399237
     11 H                     0.375747
     12 H                     0.290805
     13 H                     0.293000
     14 H                     0.393699
     15 H                     0.245385
  ----------------------------------------
  Sum of atomic charges =     0.000000

 -----------------------------------------------------------------
                    Cartesian Multipole Moments
 -----------------------------------------------------------------
    Charge (ESU x 10^10)
                -0.0000
    Dipole Moment (Debye)
         X       0.2567      Y       0.4022      Z       0.2375
       Tot       0.5330
    Quadrupole Moments (Debye-Ang)
        XX     -36.1871     XY       0.9260     YY     -41.6905
        XZ       0.8066     YZ       4.7176     ZZ     -42.5217
    Octopole Moments (Debye-Ang^2)
       XXX    -256.5899    XXY      53.1170    XYY     -97.0075
       YYY     172.1005    XXZ     -65.9966    XYZ       9.7915
       YYZ     -90.8470    XZZ     -95.9376    YZZ      74.5103
       ZZZ    -228.9369
    Hexadecapole Moments (Debye-Ang^3)
      XXXX   -1551.7231   XXXY     305.0576   XXYY    -419.6552
      XYYY     338.1518   YYYY    -863.7614   XXXZ    -506.9639
      XXYZ      82.6533   XYYZ    -220.1220   YYYZ     249.7676
      XXZZ    -444.2510   XYZZ     144.6289   YYZZ    -365.8935
      XZZZ    -548.1052   YZZZ     242.1426   ZZZZ   -1042.3659
 -----------------------------------------------------------------
Archival summary:
1\1\nid00560\SP\ProcedureUnspecified\BasisUnspecified\78\meili\SunSep2615:47:072021SunSep2615:47:072021\0\\#,ProcedureUnspecified,BasisUnspecified,\\0,1\C\C,1,1.3885\H,2,1.0822,1,119.981\C,2,1.40033,1,120.551,3,-179.918,0\H,4,1.08088,2,120.002,1,179.831,0\C,4,1.40024,2,120.079,1,-0.448149,0\H,6,1.08146,4,119.963,2,179.677,0\C,6,1.3925,4,119.807,2,0.281425,0\H,8,1.08022,6,120.523,4,179.702,0\C,8,1.40016,6,119.656,4,0.380535,0\H,10,1.08015,8,119.089,6,178.489,0\C,1,1.51243,2,119.672,3,-0.266808,0\H,12,1.08903,1,109.455,2,34.3889,0\H,12,1.09027,1,107.688,2,149.73,0\H,12,1.1,1,114.407,2,-89.278,0\\\@

 Total job time:  30582.20s(wall), 60706.08s(cpu) 
 Sun Sep 26 15:47:11 2021

        *************************************************************
        *                                                           *
        *  Thank you very much for using Q-Chem.  Have a nice day.  *
        *                                                           *
        *************************************************************


Done Job For Fragment 0
calling putenv with: QCSCRATCH=/global/cscratch1/sd/meili 
calling putenv with: QCLOCALSCR=/tmp 
calling putenv with: QCTHREADS=32 
Creating input file /tmp/qchem54068/Frg2.input
using default PutDataFrgm: nothing
calling putenv with: QCSCRATCH=/tmp/qchem54068/ 
calling putenv with: QCLOCALSCR=/tmp/qchem54068/ 
Spawning Job For Fragment 1
                  Welcome to Q-Chem
     A Quantum Leap Into The Future Of Chemistry


 Q-Chem 5.2, Q-Chem, Inc., Pleasanton, CA (2019)

 License issued to: National Energy Research Scientific Computing Center

 Yihan Shao,  Zhengting Gan,  E. Epifanovsky,  A. T. B. Gilbert,  M. Wormit,  
 J. Kussmann,  A. W. Lange,  A. Behn,  Jia Deng,  Xintian Feng,  D. Ghosh,  
 M. Goldey,  P. R. Horn,  L. D. Jacobson,  I. Kaliman,  T. Kus,  A. Landau,  
 Jie Liu,  E. I. Proynov,  R. M. Richard,  R. P. Steele,  E. J. Sundstrom,  
 H. L. Woodcock III,  P. M. Zimmerman,  D. Zuev,  B. Albrecht,  E. Alguire,  
 S. A. Baeppler,  D. Barton,  Z. Benda,  Y. A. Bernard,  E. J. Berquist,  
 K. B. Bravaya,  H. Burton,  D. Casanova,  Chun-Min Chang,  Yunqing Chen,  
 A. Chien,  K. D. Closser,  M. P. Coons,  S. Coriani,  S. Dasgupta,  
 A. L. Dempwolff,  M. Diedenhofen,  Hainam Do,  R. G. Edgar,  Po-Tung Fang,  
 S. Faraji,  S. Fatehi,  Qingguo Feng,  K. D. Fenk,  J. Fosso-Tande,  
 J. Gayvert,  Qinghui Ge,  A. Ghysels,  G. Gidofalvi,  J. Gomes,  
 J. Gonthier,  A. Gunina,  D. Hait,  M. W. D. Hanson-Heine,  
 P. H. P. Harbach,  A. W. Hauser,  M. F. Herbst,  J. E. Herr,  
 E. G. Hohenstein,  Z. C. Holden,  Kerwin Hui,  B. C. Huynh,  T.-C. Jagau,  
 Hyunjun Ji,  B. Kaduk,  K. Khistyaev,  Jaehoon Kim,  P. Klunzinger,  K. Koh,  
 D. Kosenkov,  L. Koulias,  T. Kowalczyk,  C. M. Krauter,  A. Kunitsa,  
 Ka Un Lao,  A. Laurent,  K. V. Lawler,  Joonho Lee,  D. Lefrancois,  
 S. Lehtola,  D. S. Levine,  Yi-Pei Li,  You-Sheng Lin,  Fenglai Liu,  
 E. Livshits,  A. Luenser,  P. Manohar,  E. Mansoor,  S. F. Manzer,  
 Shan-Ping Mao,  Yuezhi Mao,  N. Mardirossian,  A. V. Marenich,  
 T. Markovich,  L. A. Martinez-Martinez,  S. A. Maurer,  N. J. Mayhall,  
 S. C. McKenzie,  J.-M. Mewes,  P. Morgante,  A. F. Morrison,  
 J. W. Mullinax,  K. Nanda,  T. S. Nguyen-Beck,  R. Olivares-Amaya,  
 J. A. Parkhill,  Zheng Pei,  T. M. Perrine,  F. Plasser,  P. Pokhilko,  
 S. Prager,  A. Prociuk,  E. Ramos,  D. R. Rehn,  F. Rob,  M. Scheurer,  
 M. Schneider,  N. Sergueev,  S. M. Sharada,  S. Sharma,  D. W. Small,  
 T. Stauch,  T. Stein,  Yu-Chuan Su,  A. J. W. Thom,  A. Tkatchenko,  
 T. Tsuchimochi,  N. M. Tubman,  L. Vogt,  M. L. Vidal,  O. Vydrov,  
 M. A. Watson,  J. Wenzel,  M. de Wergifosse,  T. A. Wesolowski,  A. White,  
 J. Witte,  A. Yamada,  Jun Yang,  K. Yao,  S. Yeganeh,  S. R. Yost,  
 Zhi-Qiang You,  A. Zech,  Igor Ying Zhang,  Xing Zhang,  Yan Zhao,  
 Ying Zhu,  B. R. Brooks,  G. K. L. Chan,  C. J. Cramer,  M. S. Gordon,  
 W. J. Hehre,  A. Klamt,  M. W. Schmidt,  C. D. Sherrill,  D. G. Truhlar,  
 A. Aspuru-Guzik,  R. Baer,  A. T. Bell,  N. A. Besley,  Jeng-Da Chai,  
 A. E. DePrince, III,  R. A. DiStasio Jr.,  A. Dreuw,  B. D. Dunietz,  
 T. R. Furlani,  Chao-Ping Hsu,  Yousung Jung,  Jing Kong,  D. S. Lambrecht,  
 WanZhen Liang,  C. Ochsenfeld,  V. A. Rassolov,  L. V. Slipchenko,  
 J. E. Subotnik,  T. Van Voorhis,  J. M. Herbert,  A. I. Krylov,  
 P. M. W. Gill,  M. Head-Gordon

 Contributors to earlier versions of Q-Chem not listed above: 
 R. D. Adamson,  B. Austin,  J. Baker,  G. J. O. Beran,  K. Brandhorst,  
 S. T. Brown,  E. F. C. Byrd,  A. K. Chakraborty,  C.-L. Cheng,  
 Siu Hung Chien,  D. M. Chipman,  D. L. Crittenden,  H. Dachsel,  
 R. J. Doerksen,  A. D. Dutoi,  L. Fusti-Molnar,  W. A. Goddard III,  
 A. Golubeva-Zadorozhnaya,  S. R. Gwaltney,  G. Hawkins,  A. Heyden,  
 S. Hirata,  G. Kedziora,  F. J. Keil,  C. Kelley,  Jihan Kim,  R. A. King,  
 R. Z. Khaliullin,  P. P. Korambath,  W. Kurlancheek,  A. M. Lee,  M. S. Lee,  
 S. V. Levchenko,  Ching Yeh Lin,  D. Liotard,  R. C. Lochan,  I. Lotan,  
 P. E. Maslen,  N. Nair,  D. P. O'Neill,  D. Neuhauser,  E. Neuscamman,  
 C. M. Oana,  R. Olson,  B. Peters,  R. Peverati,  P. A. Pieniazek,  
 Y. M. Rhee,  J. Ritchie,  M. A. Rohrdanz,  E. Rosta,  N. J. Russ,  
 H. F. Schaefer III,  N. E. Schultz,  N. Shenvi,  A. C. Simmonett,  A. Sodt,  
 D. Stuck,  K. S. Thanthiriwatte,  V. Vanovschi,  Tao Wang,  A. Warshel,  
 C. F. Williams,  Q. Wu,  X. Xu,  W. Zhang

 Please cite Q-Chem as follows:
 Y. Shao et al., Mol. Phys. 113, 184-215 (2015)
 DOI: 10.1080/00268976.2014.952696

 Q-Chem 5.2.0 for Intel X86 EM64T Linux

 Parts of Q-Chem use Armadillo 8.300.2 (Tropical Shenanigans).
 http://arma.sourceforge.net/

 Q-Chem begins on Sun Sep 26 15:47:17 2021  

Host: cori01
0

     Scratch files written to /tmp/qchem54068//Frg2//
 May1019 |scratch|qcdevops|jenkins|workspace|build_RNUM -1
Processing $rem in /global/common/cori/software/qchem/5.2/config/preferences:
	 MEM_TOTAL  96000 
NAlpha2: 58
NElect   58
Mult     1
Symmetry turned off for PCM/SM12/SMD calculation

Checking the input file for inconsistencies... 	...done.

--------------------------------------------------------------
User input:
--------------------------------------------------------------
$molecule
0 1
 6	-0.1217188263	0.4152172583	-1.4440531834
 6	0.6922811737	1.0532172583	-2.5720531834
 6	-1.5267188263	0.9182172583	-1.3880531834
 6	-2.5767188263	0.1022172583	-1.7900531834
 6	-1.7857188263	2.2242172583	-0.9890531834
 6	-3.8767188263	0.5802172583	-1.7690531834
 6	-3.0847188263	2.7032172583	-0.9670531834
 6	-4.1287188263	1.8812172583	-1.3610531834
 1	-0.1307188263	-0.6697827417	-1.5670531834
 1	0.3662811737	0.6292172583	-0.4910531834
 1	0.8422811737	2.1072172583	-2.3340531834
 1	-2.3907188263	-0.9177827417	-2.0940531834
 1	-0.9737188263	2.8702172583	-0.6870531834
 1	-4.6977188263	-0.0597827417	-2.0640531834
 1	-3.2907188263	3.7102172583	-0.6330531834
 1	-5.1427188263	2.2532172583	-1.3370531834
 1	0.1625811737	0.9709672583	-3.5326031834
 1	1.6814511737	0.5793472583	-2.6556351834
$end
$rem
EDA2		1
METHOD		WB97X-V
BASIS		DEF2-TZVPD
XC_GRID		000099000590
NL_GRID		1
UNRESTRICTED		FALSE
MAX_SCF_CYCLES		200
SYMMETRY		FALSE
SYM_IGNORE		TRUE
BASIS_LIN_DEP_THRESH		6
THRESH		14
SCF_CONVERGENCE		8
SCF_PRINT_FRGM		TRUE
SOLVENT_METHOD		SMD
!required keywords
JOBTYPE		SP
SYM_IGNORE		TRUE
SUBSYSTEM		TRUE
GEN_SCFMAN		TRUE
CHILD_INSTRUCTION		2
SYM_IGNORE		TRUE
SCFMI		0
RI_K 0		
PARI_K 0		
MIN_PARI_K 0		
IARI_K 0		
OCC_RI_K 0		
PURECART		1111
MEM_STATIC		2000
MEM_TOTAL		96000
GUI		0
CHILD_MP		1
CHILD_MP_ORDERS		232
FRZ_RELAX		0
FRZ_RELAX_METHOD		0
EDA_CLS_ELEC		1
EDA_CLS_DISP		0
FRZ_ORTHO_DECOMP		1
EDA2		FALSE
FRGM_METHOD		FALSE
CIS_N_ROOTS  0
LOCAL_CIS    0
CIS_RLX_DNS  1
$end
$smx
SOLVENT			WATER
$end
--------------------------------------------------------------
 ----------------------------------------------------------------
             Standard Nuclear Orientation (Angstroms)
    I     Atom           X                Y                Z
 ----------------------------------------------------------------
    1      C      -0.1217188263     0.4152172583    -1.4440531834
    2      C       0.6922811737     1.0532172583    -2.5720531834
    3      C      -1.5267188263     0.9182172583    -1.3880531834
    4      C      -2.5767188263     0.1022172583    -1.7900531834
    5      C      -1.7857188263     2.2242172583    -0.9890531834
    6      C      -3.8767188263     0.5802172583    -1.7690531834
    7      C      -3.0847188263     2.7032172583    -0.9670531834
    8      C      -4.1287188263     1.8812172583    -1.3610531834
    9      H      -0.1307188263    -0.6697827417    -1.5670531834
   10      H       0.3662811737     0.6292172583    -0.4910531834
   11      H       0.8422811737     2.1072172583    -2.3340531834
   12      H      -2.3907188263    -0.9177827417    -2.0940531834
   13      H      -0.9737188263     2.8702172583    -0.6870531834
   14      H      -4.6977188263    -0.0597827417    -2.0640531834
   15      H      -3.2907188263     3.7102172583    -0.6330531834
   16      H      -5.1427188263     2.2532172583    -1.3370531834
   17      H       0.1625811737     0.9709672583    -3.5326031834
   18      H       1.6814511737     0.5793472583    -2.6556351834
 ----------------------------------------------------------------
 Nuclear Repulsion Energy =         342.39783244 hartrees
 There are       29 alpha and       29 beta electrons
 Requested basis set is def2-TZVPD
 There are 154 shells and 386 basis functions

 Total QAlloc Memory Limit  96000 MB
 Mega-Array Size      1956 MB
 MEM_STATIC part      2000 MB
 
 Citation of the SMD model:
 Marenich, A.V.; Cramer, C.J.; Truhlar, D.G.
 J. Phys. Chem. B 2009, 113, 6378-6396.
 iSolventCode=           1
 Solvent: water                                                           
 
 vradii
            1           2           3           4           5           6
    1   1.8500000   1.8500000   1.8500000   1.8500000   1.8500000   1.8500000
            7           8           9          10          11          12
    1   1.8500000   1.8500000   1.2000000   1.2000000   1.2000000   1.2000000
           13          14          15          16          17          18
    1   1.2000000   1.2000000   1.2000000   1.2000000   1.2000000   1.2000000
 Changing PCM_VDW_RADII to SMD_RADIUS
 Discretize the solute cavity surface with Lebedev spheres
	Using 110 Lebedev grid points for each H atom
	Using 194 Lebedev grid points for other atoms
	Atomic van der Waals radii will be scaled by 1.20
 Remove points where switching function is < 1.0e-08
 Keep 1276 surface tesserae and discard 1376 interior tesserae
 Molecular Surface Area = 151.960 Angst**2
 A cutoff of  1.0D-14 yielded  11367 shell pairs
 There are     72863 function pairs (     92344 Cartesian)
 Smallest overlap matrix eigenvalue = 5.00E-07
 Linear dependence detected in AO basis
 Tighter screening thresholds may be required for diffuse basis sets
 Use S2THRESH > 14 and THRESH = 14 in case of SCF convergence issues
 Number of orthogonalized atomic orbitals = 384
 Maximum deviation from orthogonality = 8.468E-11

 Scale SEOQF with 1.000000e-02/1.000000e-01/1.000000e-01

 Standard Electronic Orientation quadrupole field applied
 Nucleus-field energy     =    -0.0000000058 hartrees
 Guess from superposition of atomic densities
 Warning:  Energy on first SCF cycle will be non-variational
 SAD guess density has 57.901037 electrons

 -----------------------------------------------------------------------
  General SCF calculation program by
  Eric Jon Sundstrom, Paul Horn, Yuezhi Mao, Dmitri Zuev, Alec White,
  David Stuck, Shaama M.S., Shane Yost, Joonho Lee, David Small,
  Daniel Levine, Susi Lehtola, Hugh Burton, Evgeny Epifanovsky
 -----------------------------------------------------------------------
 Exchange:     0.1670 Hartree-Fock + 1.0000 wB97X-V + LR-HF
 Correlation:  1.0000 wB97X-V
 Using Euler-Maclaurin-Lebedev (99,590) quadrature formula
 Nonlocal Correlation:  VV10 with C = 0.0100 and b = 6.00 and scale = 1.00000
 Grid used for NLC:  SG-1 standard quadrature
Energy prior to optimization (guess energy) = -310.827137511355
Begin Timing: Total SCF Calculation
begin iterations for algorithm: DIIS         
the SCF tolerance is set to 1.00e-08
    1    -310.8271375114      1.83e-03     00000 
    2    -310.8736656284      1.20e-03     00000 
    3    -310.9019380540      1.38e-04     00000 
    4    -310.9026771744      4.23e-05     00000 
    5    -310.9027283983      2.25e-05     00000 
    6    -310.9027388867      5.54e-06     00000 
    7    -310.9027398262      1.87e-06     00000 
    8    -310.9027399147      4.37e-07     00000 
    9    -310.9027399227      1.07e-07     00000 
   10    -310.9027399234      4.93e-08     00000 
   11    -310.9027399235      2.06e-08     00000 
   12    -310.9027399236      5.67e-09     00000 Convergence criterion met
Timing for Total SCF: 2362.00s (wall), 4686.80s (cpu)
(3)  G-ENP(liq) elect-nuc-pol free energy of system     -310.902739924 a.u.
(4)  G-CDS(liq) cavity-dispersion-solvent structure 
     free energy                                                3.4513 kcal/mol
(6)  G-S(liq) free energy of system                     -310.897239894 a.u.
E_pcm = -0.0076876540
E_cds = 0.0055000298
Multipole orders to be included
        2
        3
computing dipole RHS
computing quadrupole RHS
total number of RHS in solve_reponses: 8
RHS batch sizes
        8
Beginning Block Conjugate Gradient Iterations. Batch Number: 0
computing hessian-vector products by finite difference
              1      5.97e-01     00000 Conjugate Gradient Iteration
computing hessian-vector products by finite difference
              2      1.87e-01     00000 Conjugate Gradient Iteration
computing hessian-vector products by finite difference
              3      4.66e-02     00000 Conjugate Gradient Iteration
computing hessian-vector products by finite difference
              4      1.19e-02     00000 Conjugate Gradient Iteration
computing hessian-vector products by finite difference
              5      2.68e-03     00000 Conjugate Gradient Iteration
computing hessian-vector products by finite difference
              6      6.61e-04     00000 Conjugate Gradient Iteration
computing hessian-vector products by finite difference
              7      1.63e-04     00000 Conjugate Gradient Iteration
computing hessian-vector products by finite difference
              8      2.86e-05     00000 Conjugate Gradient Iteration
computing hessian-vector products by finite difference
              9      5.02e-06     00000 Conjugate Gradient Iteration
computing hessian-vector products by finite difference
             10      8.15e-07     00000 Conjugate Gradient Iteration
computing hessian-vector products by finite difference
             11      1.47e-07     00000 Conjugate Gradient Iteration
computing hessian-vector products by finite difference
             12      2.36e-08     00000 Conjugate Gradient Iteration
computing hessian-vector products by finite difference
             13      3.34e-09     00000 CG Converged
batch 0 complete
Done Calculating Responses
TESTING ORTHOGONALIZATION OF MULTIPOLE BASIS
Multipole virts passed orthogonality test
Virts Per Order
           87
          145
 
 --------------------------------------------------------------
 
                    Orbital Energies (a.u.)
 --------------------------------------------------------------
 
 Alpha MOs
 -- Occupied --
-10.2719 -10.2660 -10.2658 -10.2628 -10.2625 -10.2624 -10.2569 -10.2504
 -0.9970  -0.9185  -0.8764  -0.8474  -0.7526  -0.7255  -0.6918  -0.6246
 -0.5775  -0.5642  -0.5365  -0.5296  -0.5189  -0.4999  -0.4743  -0.4576
 -0.4487  -0.4272  -0.4226  -0.3475  -0.3340
 -- Virtual --
  0.0657   0.0698   0.0728   0.0866   0.0884   0.0966   0.1098   0.1150
  0.1187   0.1377   0.1635   0.1677   0.1731   0.1819   0.1883   0.1950
  0.1991   0.2062   0.2178   0.2216   0.2338   0.2401   0.2477   0.2577
  0.2646   0.2709   0.2764   0.2788   0.2814   0.2903   0.2944   0.3002
  0.3031   0.3051   0.3087   0.3150   0.3236   0.3330   0.3405   0.3407
  0.3517   0.3542   0.3571   0.3596   0.3689   0.3745   0.3793   0.3836
  0.3866   0.3927   0.3963   0.3989   0.4123   0.4142   0.4185   0.4258
  0.4307   0.4380   0.4415   0.4421   0.4481   0.4583   0.4629   0.4692
  0.4732   0.4768   0.4819   0.4903   0.4964   0.5024   0.5044   0.5164
  0.5178   0.5237   0.5301   0.5319   0.5402   0.5433   0.5476   0.5544
  0.5609   0.5661   0.5680   0.5810   0.5896   0.5934   0.6049   0.6099
  0.6176   0.6271   0.6355   0.6459   0.6579   0.6712   0.6803   0.6871
  0.6969   0.7022   0.7029   0.7071   0.7251   0.7302   0.7346   0.7409
  0.7539   0.7626   0.7684   0.7697   0.7792   0.7822   0.7834   0.7956
  0.8003   0.8026   0.8067   0.8113   0.8134   0.8215   0.8287   0.8387
  0.8398   0.8452   0.8515   0.8563   0.8620   0.8732   0.8828   0.8913
  0.8942   0.9060   0.9230   0.9279   0.9330   0.9605   0.9625   0.9751
  1.0136   1.0295   1.0533   1.0560   1.0708   1.0750   1.0874   1.1029
  1.1057   1.1134   1.1193   1.1637   1.1757   1.2104   1.2148   1.2302
  1.2920   1.3118   1.3296   1.3503   1.3757   1.3953   1.4058   1.4230
  1.4335   1.4523   1.4599   1.4892   1.5016   1.5243   1.5458   1.5576
  1.5749   1.6122   1.6317   1.6377   1.6437   1.6896   1.7158   1.7524
  1.7787   1.7981   1.8105   1.8181   1.8465   1.8543   1.8941   1.9052
  1.9137   1.9306   1.9359   1.9497   1.9607   1.9735   1.9921   2.0020
  2.0089   2.0172   2.0392   2.0446   2.0521   2.0677   2.0773   2.0859
  2.1122   2.1455   2.1536   2.1835   2.2128   2.2168   2.2456   2.2549
  2.2850   2.3034   2.3260   2.3576   2.3889   2.4134   2.4203   2.4523
  2.4692   2.5162   2.5327   2.5544   2.5683   2.5912   2.6013   2.6315
  2.6346   2.6566   2.6626   2.6847   2.6960   2.7247   2.7388   2.7660
  2.7943   2.8017   2.8200   2.8277   2.8447   2.8549   2.8620   2.9057
  2.9111   2.9270   2.9374   2.9450   2.9511   2.9782   2.9912   3.0015
  3.0177   3.0345   3.0490   3.0619   3.0767   3.0822   3.1049   3.1102
  3.1579   3.1934   3.1985   3.2265   3.2341   3.2504   3.2737   3.3094
  3.3172   3.3355   3.3649   3.3852   3.3959   3.4041   3.4167   3.4259
  3.4367   3.4624   3.4807   3.4882   3.4926   3.5023   3.5110   3.5178
  3.5306   3.5438   3.5495   3.5655   3.5785   3.5823   3.6001   3.6221
  3.6329   3.6582   3.6757   3.6937   3.7026   3.7143   3.7241   3.7564
  3.7796   3.8080   3.8492   3.8829   3.8994   3.9346   3.9819   3.9893
  4.0054   4.0536   4.0816   4.1305   4.1448   4.1966   4.2118   4.2436
  4.2835   4.3064   4.3413   4.3430   4.3655   4.3677   4.3962   4.4065
  4.4230   4.4470   4.4702   4.4981   4.5244   4.5639   4.5987   4.6300
  4.6916   4.7812   4.7958   4.8432   4.8893   4.9084   4.9258   4.9752
  5.0436   5.0500   5.1374   5.1950   5.3144   5.4035   5.4144   5.5290
  5.5502   5.7079   5.8349  22.6477  22.6655  22.8173  22.9160  22.9616
 23.0563  23.1181  23.4766
 --------------------------------------------------------------
 
          Ground-State Mulliken Net Atomic Charges

     Atom                 Charge (a.u.)
  ----------------------------------------
      1 C                    -0.446428
      2 C                    -0.926267
      3 C                     0.463042
      4 C                    -0.453673
      5 C                    -0.375165
      6 C                    -0.499268
      7 C                    -0.560335
      8 C                    -0.456001
      9 H                     0.268104
     10 H                     0.247699
     11 H                     0.252621
     12 H                     0.379909
     13 H                     0.410749
     14 H                     0.377762
     15 H                     0.382508
     16 H                     0.402500
     17 H                     0.289983
     18 H                     0.242260
  ----------------------------------------
  Sum of atomic charges =     0.000000

 -----------------------------------------------------------------
                    Cartesian Multipole Moments
 -----------------------------------------------------------------
    Charge (ESU x 10^10)
                 0.0000
    Dipole Moment (Debye)
         X       0.5705      Y      -0.1550      Z       0.0485
       Tot       0.5931
    Quadrupole Moments (Debye-Ang)
        XX     -46.6049     XY       0.6520     YY     -45.4778
        XZ       0.1945     YZ       3.2913     ZZ     -52.5574
    Octopole Moments (Debye-Ang^2)
       XXX     256.2214    XXY     -56.1048    XYY      85.7686
       YYY    -164.9800    XXZ      69.2607    XYZ      -7.2903
       YYZ      80.6248    XZZ     103.4333    YZZ     -73.9272
       ZZZ     245.5770
    Hexadecapole Moments (Debye-Ang^3)
      XXXX   -1840.2035   XXXY     361.4440   XXYY    -427.4134
      XYYY     367.2558   YYYY    -709.4121   XXXZ    -321.4294
      XXYZ      97.4431   XYYZ    -135.2534   YYYZ     252.4232
      XXZZ    -509.2505   XYZZ     170.4500   YYZZ    -303.0078
      XZZZ    -420.5469   YZZZ     277.8964   ZZZZ    -931.6769
 -----------------------------------------------------------------
Archival summary:
1\1\nid00560\SP\ProcedureUnspecified\BasisUnspecified\810\meili\MonSep2703:42:322021MonSep2703:42:322021\0\\#,ProcedureUnspecified,BasisUnspecified,\\0,1\C\C,1,1.38923\H,2,1.08047,1,120.385\C,2,1.38525,1,120.148,3,178.229,0\H,4,1.08197,2,120.256,1,-178.848,0\C,4,1.38657,2,119.92,1,0.770778,0\H,6,1.08035,4,120.013,2,-179.543,0\C,6,1.38595,4,120.215,2,-0.350356,0\H,8,1.08076,6,119.795,4,-178.881,0\C,8,1.38468,6,119.8,4,0.374861,0\H,10,1.08068,8,119.582,6,179.614,0\C,1,1.49338,2,120.159,3,3.35629,0\H,12,1.09186,1,108.769,2,-131.63,0\H,12,1.09199,1,109.338,2,-14.7969,0\C,12,1.53037,1,112.808,2,107.438,0\H,15,1.0909,12,108.368,1,68.0934,0\H,15,1.1,12,110.776,1,-173.588,0\H,15,1.1,12,110.875,1,-51.7483,0\\\@

 Total job time:  42918.98s(wall), 85021.62s(cpu) 
 Mon Sep 27 03:42:36 2021

        *************************************************************
        *                                                           *
        *  Thank you very much for using Q-Chem.  Have a nice day.  *
        *                                                           *
        *************************************************************


Done Job For Fragment 1
calling putenv with: QCSCRATCH=/global/cscratch1/sd/meili 
calling putenv with: QCLOCALSCR=/tmp 
calling putenv with: QCTHREADS=32 
Doing General SCFMI
 Exchange:     0.1670 Hartree-Fock + 1.0000 wB97X-V + LR-HF
 Correlation:  1.0000 wB97X-V
 Using Euler-Maclaurin-Lebedev (99,590) quadrature formula
 Nonlocal Correlation:  VV10 with C = 0.0100 and b = 6.00 and scale = 1.00000
 Grid used for NLC:  SG-1 standard quadrature
performing fock build before subrot guess so that all methods have access
Printing subrot_rss_gen Method Specification:
Occupied Subspace Method is 0
Virtual Subspace Method is 0
Energy of the unrelaxed supersystem initial determinant -582.475719705771
performing fock build before subrot guess so that all methods have access
Printing subrot_rss_gen Method Specification:
Occupied Subspace Method is 0
Virtual Subspace Method is 0
Energy of the unrelaxed supersystem initial determinant w/ solvent -582.490288893179
write pseudocanon occs and virts to disk
write pseudocanon orbital energies to disk
Tolerance of ortho_decomp_scf: 1.00e-06
GDM subspace size: 20
Beginning the Orthogonal Decomposition of the Initial Supersystem Wavefunction
    1    -582.4679799081      9.14e-03     ortho_decomp Preconditoned Steepest Descent
    2    -582.4683830273      2.00e-04     ortho_decomp BFGS Step
    3    -582.4683840492      1.50e-05     ortho_decomp BFGS Step
    4    -582.4683840512      5.76e-07     ortho_decomp 00000 Convergence criterion met
 Hartree-Fock
 Hartree-Fock
 Hartree-Fock
Doing General SCFMI
 Exchange:     0.1670 Hartree-Fock + 1.0000 wB97X-V + LR-HF
 Correlation:  1.0000 wB97X-V
 Using Euler-Maclaurin-Lebedev (99,590) quadrature formula
 Nonlocal Correlation:  VV10 with C = 0.0100 and b = 6.00 and scale = 1.00000
 Grid used for NLC:  SG-1 standard quadrature
performing fock build at end of subrot_r(subrot) constructor so that all methods have access
<S^2> of initial wavefunction before polarization iterations 0.0000000000
Beginning iterations for the determination of the polarized wavefunction
Energy prior to optimization (guess energy) = -582.490288893179
Begin Timing: Total SCF Calculation
begin iterations for algorithm: DIIS         
the SCF tolerance is set to 1.00e-08
    1    -582.4902888932      1.92e-05     00000 
    2    -582.4903313613      7.98e-06     00000 
    3    -582.4903366042      4.33e-06     00000 
    4    -582.4903383123      1.09e-06     00000 
    5    -582.4903384636      5.83e-07     00000 
    6    -582.4903384955      1.45e-07     00000 
    7    -582.4903384974      5.67e-08     00000 
    8    -582.4903384976      2.03e-08     00000 
    9    -582.4903384976      6.36e-09     00000 Convergence criterion met
write pseudocanon occs and virts to disk
write pseudocanon orbital energies to disk
Timing for Total SCF: 8458.00s (wall), 16851.50s (cpu)
<S^2> of polarized wavefunction after polarization iterations 0.0000000000
relaxing scfmi constraint to allow all rotations in the entire AO span
Doing General SCFMI
 Exchange:     0.1670 Hartree-Fock + 1.0000 wB97X-V + LR-HF
 Correlation:  1.0000 wB97X-V
 Using Euler-Maclaurin-Lebedev (99,590) quadrature formula
 Nonlocal Correlation:  VV10 with C = 0.0100 and b = 6.00 and scale = 1.00000
 Grid used for NLC:  SG-1 standard quadrature
performing fock build at end of subrot_r(subrot) constructor so that all methods have access
<S^2> of polarized wavefunction before ct-allowed iterations 0.0000000000
Beginning iterations for the determination of the CT-Allowed wavefunction
Energy prior to optimization (guess energy) = -582.490338497591
Begin Timing: Total SCF Calculation
begin iterations for algorithm: DIIS         
the SCF tolerance is set to 1.00e-08
    1    -582.4903384976      3.67e-05     00000 
    2    -582.4905956376      2.86e-06     00000 
    3    -582.4906018785      5.23e-07     00000 
    4    -582.4906021141      2.42e-07     00000 
    5    -582.4906021320      5.75e-08     00000 
    6    -582.4906021342      1.98e-08     00000 
    7    -582.4906021344      6.30e-09     00000 Convergence criterion met
write pseudocanon occs and virts to disk
write pseudocanon orbital energies to disk
Timing for Total SCF: 6649.00s (wall), 13245.13s (cpu)
<S^2> of ct_allowed wavefunction after ct-allowed iterations 0.0000000000

================================
        Results of EDA2         
================================
Basic EDA Quantities
--------------------
Fragment Energies (Ha):
1 -271.5803504079
2 -310.8972398938
--------------------
  E_prp (kJ/mol) = -0.0000
  E_sol (kJ/mol) = 0.8851
  E_frz (kJ/mol) = -7.3515
  E_pol (kJ/mol) = -0.1302
  E_vct (kJ/mol) = -0.6922
  E_int (kJ/mol) = -7.2888
--------------------


Initial Wavefunction Decomposition
--------------------
  --------------------
  Orthogonal Fragment Subspace Decomposition:
  --------------------
     E_elec   (ELEC)   (kJ/mol) = -7.2014
     E_pauli  (PAULI)  (kJ/mol) = 8.9411
     E_disp   (DISP)   (kJ/mol) = -9.0912
     --------------------
     Terms summing to E_pauli:
     --------------------
        E_kep_pauli       (kJ/mol) = 11.9085
        E_disp_free_pauli (kJ/mol) = -2.9674
  --------------------
  Classical Frozen Decomposition:
  --------------------
     E_cls_elec  (CLS ELEC)  (kJ/mol) = -2.7060
     E_cls_pauli (CLS PAULI) (kJ/mol) = -4.6455
    [E_mod_pauli (MOD PAULI) (kJ/mol) = 4.4457 (CLS PAULI - DISP from orthogonal decomposition) ]
  --------------------
--------------------

Simplified EDA Summary (kJ/mol)
--------------------
 PREPARATION     -0.0000
 SOLVATION       0.8851
 FROZEN          1.7397      (does not include dispersion)
[PAULI           8.9411]     (if this is negligible, then frozen describes electrostatics)
 DISPERSION      -9.0912
 POLARIZATION    -0.1302
 CHARGE TRANSFER -0.6922
 TOTAL           -7.2888     (PRP + SOL + FRZ + DISP + POL + CT)
--------------------
 
 --------------------------------------------------------------
 
                    Orbital Energies (a.u.)
 --------------------------------------------------------------
 
 Alpha MOs
 -- Occupied --
-10.2788 -10.2720 -10.2702 -10.2697 -10.2671 -10.2667 -10.2660 -10.2658
-10.2651 -10.2629 -10.2626 -10.2625 -10.2568 -10.2543 -10.2504  -0.9970
 -0.9913  -0.9185  -0.9007  -0.8764  -0.8730  -0.8474  -0.8068  -0.7526
 -0.7256  -0.7250  -0.7002  -0.6919  -0.6247  -0.6232  -0.5775  -0.5669
 -0.5643  -0.5614  -0.5368  -0.5296  -0.5286  -0.5235  -0.5189  -0.5081
 -0.4999  -0.4789  -0.4744  -0.4700  -0.4566  -0.4487  -0.4361  -0.4343
 -0.4273  -0.4226  -0.3475  -0.3454  -0.3354  -0.3338
 -- Virtual --
  0.0582   0.0634   0.0688   0.0691   0.0717   0.0759   0.0795   0.0853
  0.0914   0.0928   0.1035   0.1098   0.1122   0.1170   0.1188   0.1253
  0.1310   0.1352   0.1449   0.1550   0.1613   0.1696   0.1714   0.1782
  0.1812   0.1869   0.1875   0.1941   0.1965   0.2045   0.2091   0.2124
  0.2189   0.2192   0.2213   0.2292   0.2336   0.2356   0.2387   0.2458
  0.2499   0.2511   0.2596   0.2608   0.2647   0.2691   0.2716   0.2742
  0.2762   0.2813   0.2838   0.2850   0.2893   0.2911   0.2918   0.2934
  0.2965   0.2991   0.3048   0.3080   0.3117   0.3130   0.3171   0.3206
  0.3242   0.3299   0.3313   0.3345   0.3406   0.3440   0.3449   0.3464
  0.3523   0.3540   0.3584   0.3607   0.3621   0.3639   0.3690   0.3702
  0.3762   0.3790   0.3799   0.3847   0.3863   0.3896   0.3920   0.3954
  0.3978   0.4000   0.4022   0.4031   0.4051   0.4112   0.4148   0.4169
  0.4194   0.4237   0.4243   0.4297   0.4314   0.4341   0.4378   0.4426
  0.4438   0.4449   0.4474   0.4490   0.4558   0.4579   0.4594   0.4630
  0.4653   0.4684   0.4702   0.4727   0.4765   0.4794   0.4839   0.4853
  0.4874   0.4897   0.4977   0.5009   0.5034   0.5074   0.5109   0.5135
  0.5152   0.5223   0.5240   0.5254   0.5297   0.5329   0.5342   0.5406
  0.5419   0.5466   0.5505   0.5531   0.5577   0.5599   0.5616   0.5620
  0.5679   0.5750   0.5806   0.5828   0.5927   0.5938   0.5984   0.6021
  0.6046   0.6071   0.6108   0.6153   0.6202   0.6268   0.6282   0.6332
  0.6365   0.6419   0.6445   0.6530   0.6577   0.6642   0.6700   0.6739
  0.6752   0.6832   0.6848   0.6873   0.6904   0.6973   0.6994   0.7008
  0.7046   0.7066   0.7111   0.7150   0.7166   0.7223   0.7310   0.7340
  0.7394   0.7405   0.7447   0.7492   0.7512   0.7552   0.7590   0.7617
  0.7637   0.7698   0.7757   0.7807   0.7836   0.7852   0.7865   0.7927
  0.7959   0.7975   0.7997   0.8017   0.8033   0.8050   0.8073   0.8146
  0.8152   0.8224   0.8247   0.8261   0.8324   0.8338   0.8378   0.8406
  0.8433   0.8477   0.8497   0.8540   0.8551   0.8562   0.8608   0.8655
  0.8686   0.8717   0.8802   0.8835   0.8889   0.8908   0.8981   0.9032
  0.9064   0.9089   0.9188   0.9270   0.9292   0.9321   0.9336   0.9383
  0.9428   0.9553   0.9558   0.9615   0.9677   0.9749   0.9773   0.9907
  1.0046   1.0055   1.0210   1.0230   1.0358   1.0436   1.0483   1.0572
  1.0653   1.0677   1.0824   1.0859   1.0912   1.0971   1.1036   1.1069
  1.1097   1.1183   1.1200   1.1258   1.1400   1.1458   1.1539   1.1614
  1.1660   1.1788   1.1928   1.2003   1.2278   1.2293   1.2443   1.2517
  1.2644   1.2814   1.3023   1.3171   1.3250   1.3320   1.3473   1.3543
  1.3696   1.3718   1.3790   1.3936   1.4032   1.4196   1.4266   1.4416
  1.4468   1.4557   1.4659   1.4741   1.4765   1.4882   1.5000   1.5067
  1.5167   1.5210   1.5331   1.5424   1.5477   1.5534   1.5700   1.5849
  1.6090   1.6137   1.6232   1.6328   1.6390   1.6455   1.6506   1.6591
  1.6788   1.7028   1.7079   1.7336   1.7554   1.7690   1.7946   1.8004
  1.8024   1.8061   1.8147   1.8157   1.8250   1.8294   1.8412   1.8415
  1.8606   1.8768   1.8992   1.9043   1.9110   1.9218   1.9264   1.9329
  1.9364   1.9431   1.9493   1.9627   1.9667   1.9708   1.9782   1.9843
  1.9903   2.0002   2.0162   2.0262   2.0302   2.0361   2.0384   2.0441
  2.0500   2.0540   2.0586   2.0680   2.0782   2.0823   2.0876   2.0947
  2.1080   2.1148   2.1329   2.1410   2.1556   2.1605   2.1655   2.1733
  2.1843   2.1895   2.2017   2.2202   2.2228   2.2402   2.2457   2.2580
  2.2614   2.2842   2.2996   2.3035   2.3115   2.3193   2.3246   2.3420
  2.3654   2.3831   2.4033   2.4092   2.4112   2.4174   2.4200   2.4391
  2.4432   2.4796   2.4971   2.5045   2.5232   2.5431   2.5519   2.5608
  2.5728   2.5783   2.5800   2.5958   2.6091   2.6185   2.6248   2.6345
  2.6378   2.6520   2.6644   2.6784   2.6873   2.6924   2.6988   2.7049
  2.7087   2.7133   2.7237   2.7413   2.7583   2.7639   2.7783   2.7887
  2.8078   2.8105   2.8148   2.8172   2.8269   2.8373   2.8442   2.8564
  2.8619   2.8734   2.8946   2.8993   2.9156   2.9240   2.9276   2.9306
  2.9340   2.9383   2.9518   2.9537   2.9602   2.9718   2.9782   2.9850
  2.9921   3.0010   3.0104   3.0205   3.0218   3.0310   3.0343   3.0391
  3.0403   3.0635   3.0663   3.0781   3.0856   3.0924   3.0976   3.1037
  3.1127   3.1180   3.1317   3.1340   3.1755   3.1971   3.2062   3.2093
  3.2233   3.2322   3.2409   3.2454   3.2554   3.2640   3.2658   3.2737
  3.2849   3.3097   3.3208   3.3335   3.3360   3.3518   3.3655   3.3806
  3.3856   3.3934   3.3987   3.4094   3.4168   3.4209   3.4268   3.4332
  3.4434   3.4492   3.4615   3.4680   3.4718   3.4754   3.4819   3.4906
  3.4961   3.5011   3.5058   3.5107   3.5165   3.5209   3.5226   3.5307
  3.5393   3.5409   3.5484   3.5499   3.5583   3.5607   3.5684   3.5749
  3.5797   3.5869   3.5892   3.6027   3.6049   3.6113   3.6245   3.6279
  3.6401   3.6461   3.6603   3.6628   3.6732   3.6948   3.7000   3.7055
  3.7087   3.7154   3.7331   3.7485   3.7613   3.7705   3.7930   3.8035
  3.8143   3.8208   3.8354   3.8617   3.8919   3.8980   3.9124   3.9249
  3.9466   3.9595   3.9602   3.9912   3.9953   4.0048   4.0150   4.0426
  4.0634   4.0717   4.0930   4.1251   4.1428   4.1748   4.2068   4.2139
  4.2318   4.2501   4.2742   4.2836   4.2872   4.2983   4.3157   4.3218
  4.3320   4.3420   4.3473   4.3522   4.3588   4.3701   4.3705   4.3725
  4.3877   4.3993   4.4070   4.4169   4.4341   4.4356   4.4453   4.4577
  4.4781   4.4816   4.5070   4.5346   4.5369   4.5753   4.6076   4.6132
  4.6277   4.6483   4.7031   4.7510   4.7606   4.7868   4.8074   4.8290
  4.8551   4.8883   4.9033   4.9230   4.9245   4.9443   4.9561   4.9880
  5.0278   5.0500   5.0531   5.0570   5.1680   5.1748   5.2015   5.2673
  5.3306   5.3562   5.3706   5.4061   5.4192   5.4987   5.5326   5.5419
  5.5562   5.6742   5.7220   5.8428   5.8530  22.6158  22.6740  22.6806
 22.6975  22.9028  22.9084  22.9121  22.9212  23.0037  23.0201  23.0768
 23.0841  23.1308  23.4089  23.4927
 --------------------------------------------------------------
 
          Ground-State Mulliken Net Atomic Charges

     Atom                 Charge (a.u.)
  ----------------------------------------
      1 C                    -1.193130
      2 C                    -0.560340
      3 C                    -0.416750
      4 C                    -0.559169
      5 C                     0.913087
      6 C                    -0.580170
      7 C                    -0.492119
      8 H                     0.395200
      9 H                     0.398061
     10 H                     0.416955
     11 H                     0.397386
     12 H                     0.296763
     13 H                     0.304510
     14 H                     0.413645
     15 H                     0.264491
     16 C                     0.079260
     17 C                    -1.128962
     18 C                     0.343371
     19 C                    -0.457300
     20 C                    -0.335993
     21 C                    -0.487355
     22 C                    -0.588089
     23 C                    -0.447721
     24 H                     0.200068
     25 H                    -0.020690
     26 H                     0.284506
     27 H                     0.401808
     28 H                     0.413777
     29 H                     0.380824
     30 H                     0.385816
     31 H                     0.411467
     32 H                     0.306296
     33 H                     0.260500
  ----------------------------------------
  Sum of atomic charges =     0.000000

 -----------------------------------------------------------------
                    Cartesian Multipole Moments
 -----------------------------------------------------------------
    Charge (ESU x 10^10)
                 0.0000
    Dipole Moment (Debye)
         X       0.8272      Y       0.2522      Z       0.2887
       Tot       0.9117
    Quadrupole Moments (Debye-Ang)
        XX     -82.7488     XY       1.5335     YY     -87.1724
        XZ       1.0636     YZ       7.9991     ZZ     -95.0894
    Octopole Moments (Debye-Ang^2)
       XXX      -0.3830    XXY      -2.9899    XYY     -11.2180
       YYY       7.2181    XXZ       3.3377    XYZ       2.4955
       YYZ     -10.2782    XZZ       7.5217    YZZ       0.6744
       ZZZ      16.6223
    Hexadecapole Moments (Debye-Ang^3)
      XXXX   -3390.6463   XXXY     665.9184   XXYY    -846.6782
      XYYY     705.0811   YYYY   -1573.4320   XXXZ    -827.5577
      XXYZ     179.9258   XYYZ    -355.2816   YYYZ     502.4873
      XXZZ    -953.1253   XYZZ     315.0851   YYZZ    -669.2513
      XZZZ    -968.3253   YZZZ     520.3855   ZZZZ   -1974.5390
 -----------------------------------------------------------------
Archival summary:
1\1\nid00560\SP\ProcedureUnspecified\BasisUnspecified\1518\meili\MonSep2711:55:332021MonSep2711:55:332021\0\\#,ProcedureUnspecified,BasisUnspecified,\\0,1\C\C,1,1.38923\H,2,1.08047,1,120.385\C,2,1.38525,1,120.148,3,178.229,0\H,4,1.08197,2,120.256,1,-178.848,0\C,4,1.38657,2,119.92,1,0.770778,0\H,6,1.08035,4,120.013,2,-179.543,0\C,6,1.38595,4,120.215,2,-0.350356,0\H,8,1.08076,6,119.795,4,-178.881,0\C,8,1.38468,6,119.8,4,0.374861,0\H,10,1.08068,8,119.582,6,179.614,0\C,1,1.49338,2,120.159,3,3.35629,0\H,12,1.09186,1,108.769,2,-131.63,0\H,12,1.09199,1,109.338,2,-14.7969,0\C,12,1.53037,1,112.808,2,107.438,0\H,15,1.0909,12,108.368,1,68.0934,0\H,15,1.1,12,110.776,1,-173.588,0\H,15,1.1,12,110.875,1,-51.7483,0\C,13,3.23118,12,117.199,1,101.684,0\H,19,1.08022,13,87.4309,12,-62.6406,0\C,19,1.3925,13,102.924,12,58.1105,0\H,21,1.08146,19,120.227,13,-94.3909,0\C,19,1.40016,13,79.045,12,176.317,0\H,23,1.08015,19,119.089,13,79.7492,0\C,21,1.40024,19,119.807,13,85.0035,0\H,25,1.08088,21,119.918,19,-179.997,0\C,25,1.40033,21,120.079,19,0.281425,0\H,27,1.0822,25,119.467,21,179.633,0\C,27,1.3885,25,120.551,21,-0.448149,0\C,29,1.51243,27,119.672,25,179.815,0\H,30,1.08903,29,109.455,27,34.3889,0\H,30,1.09027,29,107.688,27,149.73,0\H,30,1.1,29,114.407,27,-89.278,0\\\@

 Total job time:  103097.23s(wall), 58968.76s(cpu) 
 Mon Sep 27 11:55:36 2021

        *************************************************************
        *                                                           *
        *  Thank you very much for using Q-Chem.  Have a nice day.  *
        *                                                           *
        *************************************************************


