
Running Job 1 of 1 SSI-108PHE-127PHE-1_PCM_TZVPD.in
qchem SSI-108PHE-127PHE-1_PCM_TZVPD.in_54356.0 /tmp/qchem54356/ 0
/global/common/cori/software/qchem/5.2/exe/qcprog.exe_s SSI-108PHE-127PHE-1_PCM_TZVPD.in_54356.0 /tmp/qchem54356/
                  Welcome to Q-Chem
     A Quantum Leap Into The Future Of Chemistry


 Q-Chem 5.2, Q-Chem, Inc., Pleasanton, CA (2019)

 License issued to: National Energy Research Scientific Computing Center

 Yihan Shao,  Zhengting Gan,  E. Epifanovsky,  A. T. B. Gilbert,  M. Wormit,  
 J. Kussmann,  A. W. Lange,  A. Behn,  Jia Deng,  Xintian Feng,  D. Ghosh,  
 M. Goldey,  P. R. Horn,  L. D. Jacobson,  I. Kaliman,  T. Kus,  A. Landau,  
 Jie Liu,  E. I. Proynov,  R. M. Richard,  R. P. Steele,  E. J. Sundstrom,  
 H. L. Woodcock III,  P. M. Zimmerman,  D. Zuev,  B. Albrecht,  E. Alguire,  
 S. A. Baeppler,  D. Barton,  Z. Benda,  Y. A. Bernard,  E. J. Berquist,  
 K. B. Bravaya,  H. Burton,  D. Casanova,  Chun-Min Chang,  Yunqing Chen,  
 A. Chien,  K. D. Closser,  M. P. Coons,  S. Coriani,  S. Dasgupta,  
 A. L. Dempwolff,  M. Diedenhofen,  Hainam Do,  R. G. Edgar,  Po-Tung Fang,  
 S. Faraji,  S. Fatehi,  Qingguo Feng,  K. D. Fenk,  J. Fosso-Tande,  
 J. Gayvert,  Qinghui Ge,  A. Ghysels,  G. Gidofalvi,  J. Gomes,  
 J. Gonthier,  A. Gunina,  D. Hait,  M. W. D. Hanson-Heine,  
 P. H. P. Harbach,  A. W. Hauser,  M. F. Herbst,  J. E. Herr,  
 E. G. Hohenstein,  Z. C. Holden,  Kerwin Hui,  B. C. Huynh,  T.-C. Jagau,  
 Hyunjun Ji,  B. Kaduk,  K. Khistyaev,  Jaehoon Kim,  P. Klunzinger,  K. Koh,  
 D. Kosenkov,  L. Koulias,  T. Kowalczyk,  C. M. Krauter,  A. Kunitsa,  
 Ka Un Lao,  A. Laurent,  K. V. Lawler,  Joonho Lee,  D. Lefrancois,  
 S. Lehtola,  D. S. Levine,  Yi-Pei Li,  You-Sheng Lin,  Fenglai Liu,  
 E. Livshits,  A. Luenser,  P. Manohar,  E. Mansoor,  S. F. Manzer,  
 Shan-Ping Mao,  Yuezhi Mao,  N. Mardirossian,  A. V. Marenich,  
 T. Markovich,  L. A. Martinez-Martinez,  S. A. Maurer,  N. J. Mayhall,  
 S. C. McKenzie,  J.-M. Mewes,  P. Morgante,  A. F. Morrison,  
 J. W. Mullinax,  K. Nanda,  T. S. Nguyen-Beck,  R. Olivares-Amaya,  
 J. A. Parkhill,  Zheng Pei,  T. M. Perrine,  F. Plasser,  P. Pokhilko,  
 S. Prager,  A. Prociuk,  E. Ramos,  D. R. Rehn,  F. Rob,  M. Scheurer,  
 M. Schneider,  N. Sergueev,  S. M. Sharada,  S. Sharma,  D. W. Small,  
 T. Stauch,  T. Stein,  Yu-Chuan Su,  A. J. W. Thom,  A. Tkatchenko,  
 T. Tsuchimochi,  N. M. Tubman,  L. Vogt,  M. L. Vidal,  O. Vydrov,  
 M. A. Watson,  J. Wenzel,  M. de Wergifosse,  T. A. Wesolowski,  A. White,  
 J. Witte,  A. Yamada,  Jun Yang,  K. Yao,  S. Yeganeh,  S. R. Yost,  
 Zhi-Qiang You,  A. Zech,  Igor Ying Zhang,  Xing Zhang,  Yan Zhao,  
 Ying Zhu,  B. R. Brooks,  G. K. L. Chan,  C. J. Cramer,  M. S. Gordon,  
 W. J. Hehre,  A. Klamt,  M. W. Schmidt,  C. D. Sherrill,  D. G. Truhlar,  
 A. Aspuru-Guzik,  R. Baer,  A. T. Bell,  N. A. Besley,  Jeng-Da Chai,  
 A. E. DePrince, III,  R. A. DiStasio Jr.,  A. Dreuw,  B. D. Dunietz,  
 T. R. Furlani,  Chao-Ping Hsu,  Yousung Jung,  Jing Kong,  D. S. Lambrecht,  
 WanZhen Liang,  C. Ochsenfeld,  V. A. Rassolov,  L. V. Slipchenko,  
 J. E. Subotnik,  T. Van Voorhis,  J. M. Herbert,  A. I. Krylov,  
 P. M. W. Gill,  M. Head-Gordon

 Contributors to earlier versions of Q-Chem not listed above: 
 R. D. Adamson,  B. Austin,  J. Baker,  G. J. O. Beran,  K. Brandhorst,  
 S. T. Brown,  E. F. C. Byrd,  A. K. Chakraborty,  C.-L. Cheng,  
 Siu Hung Chien,  D. M. Chipman,  D. L. Crittenden,  H. Dachsel,  
 R. J. Doerksen,  A. D. Dutoi,  L. Fusti-Molnar,  W. A. Goddard III,  
 A. Golubeva-Zadorozhnaya,  S. R. Gwaltney,  G. Hawkins,  A. Heyden,  
 S. Hirata,  G. Kedziora,  F. J. Keil,  C. Kelley,  Jihan Kim,  R. A. King,  
 R. Z. Khaliullin,  P. P. Korambath,  W. Kurlancheek,  A. M. Lee,  M. S. Lee,  
 S. V. Levchenko,  Ching Yeh Lin,  D. Liotard,  R. C. Lochan,  I. Lotan,  
 P. E. Maslen,  N. Nair,  D. P. O'Neill,  D. Neuhauser,  E. Neuscamman,  
 C. M. Oana,  R. Olson,  B. Peters,  R. Peverati,  P. A. Pieniazek,  
 Y. M. Rhee,  J. Ritchie,  M. A. Rohrdanz,  E. Rosta,  N. J. Russ,  
 H. F. Schaefer III,  N. E. Schultz,  N. Shenvi,  A. C. Simmonett,  A. Sodt,  
 D. Stuck,  K. S. Thanthiriwatte,  V. Vanovschi,  Tao Wang,  A. Warshel,  
 C. F. Williams,  Q. Wu,  X. Xu,  W. Zhang

 Please cite Q-Chem as follows:
 Y. Shao et al., Mol. Phys. 113, 184-215 (2015)
 DOI: 10.1080/00268976.2014.952696

 Q-Chem 5.2.0 for Intel X86 EM64T Linux

 Parts of Q-Chem use Armadillo 8.300.2 (Tropical Shenanigans).
 http://arma.sourceforge.net/

 Q-Chem begins on Sun Sep 26 13:27:31 2021  

Host: cori01
0

     Scratch files written to /tmp/qchem54356//
 May1019 |scratch|qcdevops|jenkins|workspace|build_RNUM -1
Processing $rem in /global/common/cori/software/qchem/5.2/config/preferences:
	 MEM_TOTAL  96000 
NAlpha2: 100
NElect   100
Mult     1
Symmetry turned off for PCM/SM12/SMD calculation

 Q-Chem warning in module libgen/rem_setup.C, line 2803:

 Neither GIA nor STOLL is specified by user. Use STOLL as the default


Checking the input file for inconsistencies... 	...done.

--------------------------------------------------------------
User input:
--------------------------------------------------------------
$comment
SSI-108PHE-127PHE-1.pdb
$end

$molecule
0 1
--
0 1
C    2.617860873311   -1.099495210243   -2.821353334381
C    1.071860873311   -1.737495210243   -0.941353334381
C    1.369860873311   -1.750495210243   -2.306353334381
C   -0.090139126689   -2.355495210243   -0.463353334381
C   -0.954139126689   -2.987495210243   -1.352353334381
C    0.505860873311   -2.403495210243   -3.183353334381
C   -0.657139126689   -3.014495210243   -2.709353334381
H    1.744860873311   -1.254495210243   -0.247353334381
H   -0.316139126689   -2.338495210243    0.593646665619
H    2.925860873311   -0.311495210243   -2.136353334381
H    2.379860873311   -0.629495210243   -3.775353334381
H   -1.854139126689   -3.461495210243   -0.985353334381
H    0.730860873311   -2.431495210243   -4.240353334381
H   -1.324139126689   -3.513495210243   -3.398353334381
H    3.454133873311   -1.797826210243   -2.972943334381
--
0 1
C   -2.989139126689    1.840504789757    2.245646665619
C    0.543860873311    1.591504789757    0.909646665619
C   -0.825139126689    1.390504789757    1.078646665619
C    1.233860873311    2.435504789757    1.764646665619
C   -1.512139126689    2.033504789757    2.102646665619
C    0.551860873311    3.077504789757    2.793646665619
C   -0.819139126689    2.886504789757    2.955646665619
H    1.067860873311    1.086504789757    0.109646665619
H   -1.349139126689    0.724504789757    0.408646665619
H    2.293860873311    2.581504789757    1.646646665619
H    1.084860873311    3.721504789757    3.477646665619
H   -3.336139126689    2.313504789757    3.163646665619
H   -3.184139126689    0.775504789757    2.334646665619
H   -1.336139126689    3.390504789757    3.755646665619
H   -3.554335726689    2.251295789757    1.396056665619
$end

$rem
JOBTYPE			EDA
EDA2			1
method			wB97X-V
BASIS			def2-TZVPD
XC_GRID			000099000590
NL_GRID			1
UNRESTRICTED		FALSE
MAX_SCF_CYCLES		200
SYMMETRY		FALSE
SYM_IGNORE		TRUE
MEM_STATIC		2000
BASIS_LIN_DEP_THRESH 	6
THRESH 			14
SCF_CONVERGENCE 	8
SCF_PRINT_FRGM 		TRUE
SOLVENT_METHOD          PCM
$end

$PCM
THEORY                  CPCM
METHOD                  SWIG
SOLVER                  INVERSION
RADII                   UFF
HPOINTS                 302
HEAVYPOINTS             302
PRINTLEVEL              0
$END

$SOLVENT
DIELECTRIC              78.390000 ! water
$END
--------------------------------------------------------------
 ----------------------------------------------------------------
             Standard Nuclear Orientation (Angstroms)
    I     Atom           X                Y                Z
 ----------------------------------------------------------------
    1      C       2.6178608733    -1.0994952102    -2.8213533344
    2      C       1.0718608733    -1.7374952102    -0.9413533344
    3      C       1.3698608733    -1.7504952102    -2.3063533344
    4      C      -0.0901391267    -2.3554952102    -0.4633533344
    5      C      -0.9541391267    -2.9874952102    -1.3523533344
    6      C       0.5058608733    -2.4034952102    -3.1833533344
    7      C      -0.6571391267    -3.0144952102    -2.7093533344
    8      H       1.7448608733    -1.2544952102    -0.2473533344
    9      H      -0.3161391267    -2.3384952102     0.5936466656
   10      H       2.9258608733    -0.3114952102    -2.1363533344
   11      H       2.3798608733    -0.6294952102    -3.7753533344
   12      H      -1.8541391267    -3.4614952102    -0.9853533344
   13      H       0.7308608733    -2.4314952102    -4.2403533344
   14      H      -1.3241391267    -3.5134952102    -3.3983533344
   15      H       3.4541338733    -1.7978262102    -2.9729433344
   16      C      -2.9891391267     1.8405047898     2.2456466656
   17      C       0.5438608733     1.5915047898     0.9096466656
   18      C      -0.8251391267     1.3905047898     1.0786466656
   19      C       1.2338608733     2.4355047898     1.7646466656
   20      C      -1.5121391267     2.0335047898     2.1026466656
   21      C       0.5518608733     3.0775047898     2.7936466656
   22      C      -0.8191391267     2.8865047898     2.9556466656
   23      H       1.0678608733     1.0865047898     0.1096466656
   24      H      -1.3491391267     0.7245047898     0.4086466656
   25      H       2.2938608733     2.5815047898     1.6466466656
   26      H       1.0848608733     3.7215047898     3.4776466656
   27      H      -3.3361391267     2.3135047898     3.1636466656
   28      H      -3.1841391267     0.7755047898     2.3346466656
   29      H      -1.3361391267     3.3905047898     3.7556466656
   30      H      -3.5543357267     2.2512957898     1.3960566656
 ----------------------------------------------------------------
 Nuclear Repulsion Energy =         756.16633193 hartrees
 There are       50 alpha and       50 beta electrons
 Requested basis set is def2-TZVPD
 There are 262 shells and 662 basis functions

 Total QAlloc Memory Limit  96000 MB
 Mega-Array Size      1956 MB
 MEM_STATIC part      2000 MB
 Discretize the solute cavity surface with Lebedev spheres
	Using 302 Lebedev grid points for each H atom
	Using 302 Lebedev grid points for other atoms
	Atomic van der Waals radii will be scaled by 1.20
 Remove points where switching function is < 1.0e-08
 Keep 3444 surface tesserae and discard 5616 interior tesserae
 Molecular Surface Area = 332.214 Angst**2
 A cutoff of  1.0D-14 yielded  28576 shell pairs
 There are    182048 function pairs (    228966 Cartesian)
 Smallest overlap matrix eigenvalue = 4.53E-07
 Linear dependence detected in AO basis
 Tighter screening thresholds may be required for diffuse basis sets
 Use S2THRESH > 14 and THRESH = 14 in case of SCF convergence issues
 Number of orthogonalized atomic orbitals = 658
 Maximum deviation from orthogonality = 1.138E-10

 Scale SEOQF with 1.000000e-01/1.000000e-01/1.000000e-01

 Standard Electronic Orientation quadrupole field applied
 Nucleus-field energy     =    -0.0000000073 hartrees

 -----------------------------------------------------------------------
  General SCF calculation program by
  Eric Jon Sundstrom, Paul Horn, Yuezhi Mao, Dmitri Zuev, Alec White,
  David Stuck, Shaama M.S., Shane Yost, Joonho Lee, David Small,
  Daniel Levine, Susi Lehtola, Hugh Burton, Evgeny Epifanovsky
 -----------------------------------------------------------------------
================================================================
                 ALMO-EDA with the EDA2 driver                  
================================================================
 The second-generation ALMO-EDA (for DFT):                      
 P. R. Horn, Y. Mao and M. Head-Gordon, PCCP, 18, 23067 (2016)  
 Decomposition of the frozen energy:                            
 P. R. Horn, Y. Mao and M. Head-Gordon, JCP, 144, 114107 (2016) 
 FERF model for polarization:                                   
 P. R. Horn and M. Head-Gordon, JCP, 143, 114111 (2015)         
Using eda2 option set 1
Option set summary: Frozen orbital wavefunction, initial wavefunction decomposition, and nDQ polarization.
--------------------------------
Printing EDA Options
--------------------------------
eda_child_super_basis      0
fragmo_guess_mode          0
child_mp                   1
child_mp_orders            232
cls_elec                   1
cls_disp                   0
scfmi_mode                 1
scfmi_occs                 0
scfmi_virts                0
frz_relax                  0
frz_relax_method           0
dc_pen_start               0
dc_pen_conv                0
dc_pen_increment           0
dc_pen_steps               0
dc_pen_thresh_factor       0
dc_pen_pre_newton_thresh   0
frz_ortho_decomp           1
frz_ortho_decomp_conv      6
frgm_method                2
scfmi_freeze_ss            0
separate_rehyb             0
plot_diff_den              0
eda_nocv                   0
eda_vct_relax              1
disp_free_x                0
disp_free_c                0
eda_bsse                   0
eda_pct_a                  0
eda_covp                   0
--------------------------------
Attempting to make child job directory: /tmp/qchem54356//Frg1/
Attempting to make child job directory: /tmp/qchem54356//Frg2/
Creating input file /tmp/qchem54356/Frg1.input
using default PutDataFrgm: nothing
calling putenv with: QCSCRATCH=/tmp/qchem54356/ 
calling putenv with: QCLOCALSCR=/tmp/qchem54356/ 
Spawning Job For Fragment 0
                  Welcome to Q-Chem
     A Quantum Leap Into The Future Of Chemistry


 Q-Chem 5.2, Q-Chem, Inc., Pleasanton, CA (2019)

 License issued to: National Energy Research Scientific Computing Center

 Yihan Shao,  Zhengting Gan,  E. Epifanovsky,  A. T. B. Gilbert,  M. Wormit,  
 J. Kussmann,  A. W. Lange,  A. Behn,  Jia Deng,  Xintian Feng,  D. Ghosh,  
 M. Goldey,  P. R. Horn,  L. D. Jacobson,  I. Kaliman,  T. Kus,  A. Landau,  
 Jie Liu,  E. I. Proynov,  R. M. Richard,  R. P. Steele,  E. J. Sundstrom,  
 H. L. Woodcock III,  P. M. Zimmerman,  D. Zuev,  B. Albrecht,  E. Alguire,  
 S. A. Baeppler,  D. Barton,  Z. Benda,  Y. A. Bernard,  E. J. Berquist,  
 K. B. Bravaya,  H. Burton,  D. Casanova,  Chun-Min Chang,  Yunqing Chen,  
 A. Chien,  K. D. Closser,  M. P. Coons,  S. Coriani,  S. Dasgupta,  
 A. L. Dempwolff,  M. Diedenhofen,  Hainam Do,  R. G. Edgar,  Po-Tung Fang,  
 S. Faraji,  S. Fatehi,  Qingguo Feng,  K. D. Fenk,  J. Fosso-Tande,  
 J. Gayvert,  Qinghui Ge,  A. Ghysels,  G. Gidofalvi,  J. Gomes,  
 J. Gonthier,  A. Gunina,  D. Hait,  M. W. D. Hanson-Heine,  
 P. H. P. Harbach,  A. W. Hauser,  M. F. Herbst,  J. E. Herr,  
 E. G. Hohenstein,  Z. C. Holden,  Kerwin Hui,  B. C. Huynh,  T.-C. Jagau,  
 Hyunjun Ji,  B. Kaduk,  K. Khistyaev,  Jaehoon Kim,  P. Klunzinger,  K. Koh,  
 D. Kosenkov,  L. Koulias,  T. Kowalczyk,  C. M. Krauter,  A. Kunitsa,  
 Ka Un Lao,  A. Laurent,  K. V. Lawler,  Joonho Lee,  D. Lefrancois,  
 S. Lehtola,  D. S. Levine,  Yi-Pei Li,  You-Sheng Lin,  Fenglai Liu,  
 E. Livshits,  A. Luenser,  P. Manohar,  E. Mansoor,  S. F. Manzer,  
 Shan-Ping Mao,  Yuezhi Mao,  N. Mardirossian,  A. V. Marenich,  
 T. Markovich,  L. A. Martinez-Martinez,  S. A. Maurer,  N. J. Mayhall,  
 S. C. McKenzie,  J.-M. Mewes,  P. Morgante,  A. F. Morrison,  
 J. W. Mullinax,  K. Nanda,  T. S. Nguyen-Beck,  R. Olivares-Amaya,  
 J. A. Parkhill,  Zheng Pei,  T. M. Perrine,  F. Plasser,  P. Pokhilko,  
 S. Prager,  A. Prociuk,  E. Ramos,  D. R. Rehn,  F. Rob,  M. Scheurer,  
 M. Schneider,  N. Sergueev,  S. M. Sharada,  S. Sharma,  D. W. Small,  
 T. Stauch,  T. Stein,  Yu-Chuan Su,  A. J. W. Thom,  A. Tkatchenko,  
 T. Tsuchimochi,  N. M. Tubman,  L. Vogt,  M. L. Vidal,  O. Vydrov,  
 M. A. Watson,  J. Wenzel,  M. de Wergifosse,  T. A. Wesolowski,  A. White,  
 J. Witte,  A. Yamada,  Jun Yang,  K. Yao,  S. Yeganeh,  S. R. Yost,  
 Zhi-Qiang You,  A. Zech,  Igor Ying Zhang,  Xing Zhang,  Yan Zhao,  
 Ying Zhu,  B. R. Brooks,  G. K. L. Chan,  C. J. Cramer,  M. S. Gordon,  
 W. J. Hehre,  A. Klamt,  M. W. Schmidt,  C. D. Sherrill,  D. G. Truhlar,  
 A. Aspuru-Guzik,  R. Baer,  A. T. Bell,  N. A. Besley,  Jeng-Da Chai,  
 A. E. DePrince, III,  R. A. DiStasio Jr.,  A. Dreuw,  B. D. Dunietz,  
 T. R. Furlani,  Chao-Ping Hsu,  Yousung Jung,  Jing Kong,  D. S. Lambrecht,  
 WanZhen Liang,  C. Ochsenfeld,  V. A. Rassolov,  L. V. Slipchenko,  
 J. E. Subotnik,  T. Van Voorhis,  J. M. Herbert,  A. I. Krylov,  
 P. M. W. Gill,  M. Head-Gordon

 Contributors to earlier versions of Q-Chem not listed above: 
 R. D. Adamson,  B. Austin,  J. Baker,  G. J. O. Beran,  K. Brandhorst,  
 S. T. Brown,  E. F. C. Byrd,  A. K. Chakraborty,  C.-L. Cheng,  
 Siu Hung Chien,  D. M. Chipman,  D. L. Crittenden,  H. Dachsel,  
 R. J. Doerksen,  A. D. Dutoi,  L. Fusti-Molnar,  W. A. Goddard III,  
 A. Golubeva-Zadorozhnaya,  S. R. Gwaltney,  G. Hawkins,  A. Heyden,  
 S. Hirata,  G. Kedziora,  F. J. Keil,  C. Kelley,  Jihan Kim,  R. A. King,  
 R. Z. Khaliullin,  P. P. Korambath,  W. Kurlancheek,  A. M. Lee,  M. S. Lee,  
 S. V. Levchenko,  Ching Yeh Lin,  D. Liotard,  R. C. Lochan,  I. Lotan,  
 P. E. Maslen,  N. Nair,  D. P. O'Neill,  D. Neuhauser,  E. Neuscamman,  
 C. M. Oana,  R. Olson,  B. Peters,  R. Peverati,  P. A. Pieniazek,  
 Y. M. Rhee,  J. Ritchie,  M. A. Rohrdanz,  E. Rosta,  N. J. Russ,  
 H. F. Schaefer III,  N. E. Schultz,  N. Shenvi,  A. C. Simmonett,  A. Sodt,  
 D. Stuck,  K. S. Thanthiriwatte,  V. Vanovschi,  Tao Wang,  A. Warshel,  
 C. F. Williams,  Q. Wu,  X. Xu,  W. Zhang

 Please cite Q-Chem as follows:
 Y. Shao et al., Mol. Phys. 113, 184-215 (2015)
 DOI: 10.1080/00268976.2014.952696

 Q-Chem 5.2.0 for Intel X86 EM64T Linux

 Parts of Q-Chem use Armadillo 8.300.2 (Tropical Shenanigans).
 http://arma.sourceforge.net/

 Q-Chem begins on Sun Sep 26 13:27:37 2021  

Host: cori01
0

     Scratch files written to /tmp/qchem54356//Frg1//
 May1019 |scratch|qcdevops|jenkins|workspace|build_RNUM -1
Processing $rem in /global/common/cori/software/qchem/5.2/config/preferences:
	 MEM_TOTAL  96000 
NAlpha2: 50
NElect   50
Mult     1
Symmetry turned off for PCM/SM12/SMD calculation

Checking the input file for inconsistencies... 	...done.

--------------------------------------------------------------
User input:
--------------------------------------------------------------
$molecule
0 1
 6	2.6178608733	-1.0994952102	-2.8213533344
 6	1.0718608733	-1.7374952102	-0.9413533344
 6	1.3698608733	-1.7504952102	-2.3063533344
 6	-0.0901391267	-2.3554952102	-0.4633533344
 6	-0.9541391267	-2.9874952102	-1.3523533344
 6	0.5058608733	-2.4034952102	-3.1833533344
 6	-0.6571391267	-3.0144952102	-2.7093533344
 1	1.7448608733	-1.2544952102	-0.2473533344
 1	-0.3161391267	-2.3384952102	0.5936466656
 1	2.9258608733	-0.3114952102	-2.1363533344
 1	2.3798608733	-0.6294952102	-3.7753533344
 1	-1.8541391267	-3.4614952102	-0.9853533344
 1	0.7308608733	-2.4314952102	-4.2403533344
 1	-1.3241391267	-3.5134952102	-3.3983533344
 1	3.4541338733	-1.7978262102	-2.9729433344
$end
$rem
EDA2		1
METHOD		WB97X-V
BASIS		DEF2-TZVPD
XC_GRID		000099000590
NL_GRID		1
UNRESTRICTED		FALSE
MAX_SCF_CYCLES		200
SYMMETRY		FALSE
SYM_IGNORE		TRUE
BASIS_LIN_DEP_THRESH		6
THRESH		14
SCF_CONVERGENCE		8
SCF_PRINT_FRGM		TRUE
SOLVENT_METHOD		PCM
!required keywords
JOBTYPE		SP
SYM_IGNORE		TRUE
SUBSYSTEM		TRUE
GEN_SCFMAN		TRUE
CHILD_INSTRUCTION		2
SYM_IGNORE		TRUE
SCFMI		0
RI_K 0		
PARI_K 0		
MIN_PARI_K 0		
IARI_K 0		
OCC_RI_K 0		
PURECART		1111
MEM_STATIC		2000
MEM_TOTAL		96000
GUI		0
CHILD_MP		1
CHILD_MP_ORDERS		232
FRZ_RELAX		0
FRZ_RELAX_METHOD		0
EDA_CLS_ELEC		1
EDA_CLS_DISP		0
FRZ_ORTHO_DECOMP		1
EDA2		FALSE
FRGM_METHOD		FALSE
CIS_N_ROOTS  0
LOCAL_CIS    0
CIS_RLX_DNS  1
$end
$pcm
THEORY                  CPCM
METHOD                  SWIG
SOLVER                  INVERSION
RADII                   UFF
HPOINTS                 302
HEAVYPOINTS             302
PRINTLEVEL              0
$end
$solvent
DIELECTRIC              78.390000 ! water
$end
--------------------------------------------------------------
 ----------------------------------------------------------------
             Standard Nuclear Orientation (Angstroms)
    I     Atom           X                Y                Z
 ----------------------------------------------------------------
    1      C       2.6178608733    -1.0994952102    -2.8213533344
    2      C       1.0718608733    -1.7374952102    -0.9413533344
    3      C       1.3698608733    -1.7504952102    -2.3063533344
    4      C      -0.0901391267    -2.3554952102    -0.4633533344
    5      C      -0.9541391267    -2.9874952102    -1.3523533344
    6      C       0.5058608733    -2.4034952102    -3.1833533344
    7      C      -0.6571391267    -3.0144952102    -2.7093533344
    8      H       1.7448608733    -1.2544952102    -0.2473533344
    9      H      -0.3161391267    -2.3384952102     0.5936466656
   10      H       2.9258608733    -0.3114952102    -2.1363533344
   11      H       2.3798608733    -0.6294952102    -3.7753533344
   12      H      -1.8541391267    -3.4614952102    -0.9853533344
   13      H       0.7308608733    -2.4314952102    -4.2403533344
   14      H      -1.3241391267    -3.5134952102    -3.3983533344
   15      H       3.4541338733    -1.7978262102    -2.9729433344
 ----------------------------------------------------------------
 Nuclear Repulsion Energy =         269.70548265 hartrees
 There are       25 alpha and       25 beta electrons
 Requested basis set is def2-TZVPD
 There are 131 shells and 331 basis functions

 Total QAlloc Memory Limit  96000 MB
 Mega-Array Size      1956 MB
 MEM_STATIC part      2000 MB
 Discretize the solute cavity surface with Lebedev spheres
	Using 302 Lebedev grid points for each H atom
	Using 302 Lebedev grid points for other atoms
	Atomic van der Waals radii will be scaled by 1.20
 Remove points where switching function is < 1.0e-08
 Keep 1805 surface tesserae and discard 2725 interior tesserae
 Molecular Surface Area = 178.217 Angst**2

                       Distance Matrix (Angstroms)
             C (  1)   C (  2)   C (  3)   C (  4)   C (  5)   C (  6)
   C (  2)  2.516259
   C (  3)  1.498843  1.397211
   C (  4)  3.804072  1.400233  2.427813
   C (  5)  4.299033  2.415802  2.800225  1.391489
   C (  6)  2.508387  2.406341  1.393569  2.784945  2.413549
   C (  7)  3.795444  2.783163  2.422568  2.408378  1.389384  1.396627
   H (  8)  2.722431  1.080673  2.150842  2.150833  3.392479  3.387539
   H (  9)  4.669658  2.154987  3.405634  1.081025  2.148293  3.865959
   H ( 10)  1.088592  2.626560  2.126207  4.009130  4.778078  3.365869
   H ( 11)  1.089798  3.312112  2.105873  4.477647  4.748331  2.647530
   H ( 12)  5.380402  3.396408  3.881590  2.146489  1.081372  3.394137
   H ( 13)  2.710822  3.388409  2.147659  3.865947  3.389529  1.081045
   H ( 14)  4.658292  3.864174  3.399745  3.387912  2.144689  2.151099
   H ( 15)  1.099999  3.131489  2.188784  4.378460  4.845049  3.017188
             C (  7)   H (  8)   H (  9)   H ( 10)   H ( 11)   H ( 12)
   H (  8)  3.863761
   H (  9)  3.388667  2.475895
   H ( 10)  4.524647  2.419159  4.698105
   H ( 11)  4.005989  3.638768  5.410846  1.756576
   H ( 12)  2.145878  4.285825  2.473826  5.839152  5.807846
   H ( 13)  2.147183  4.284574  4.946960  3.706648  2.486489  4.282307
   H ( 14)  1.081023  4.944759  4.281676  5.468816  4.709480  2.471067
   H ( 15)  4.295617  3.262769  5.218031  1.785535  1.778460  5.907290
             H ( 13)   H ( 14)
   H ( 14)  2.470367
   H ( 15)  3.069867  5.094741
 
 A cutoff of  1.0D-14 yielded   8362 shell pairs
 There are     54510 function pairs (     69465 Cartesian)
 Smallest overlap matrix eigenvalue = 5.70E-07
 Linear dependence detected in AO basis
 Tighter screening thresholds may be required for diffuse basis sets
 Use S2THRESH > 14 and THRESH = 14 in case of SCF convergence issues
 Number of orthogonalized atomic orbitals = 330
 Maximum deviation from orthogonality = 2.284E-10

 Scale SEOQF with 1.000000e-01/1.000000e-01/1.000000e-01

 Standard Electronic Orientation quadrupole field applied
 Nucleus-field energy     =    -0.0000000056 hartrees
 Guess from superposition of atomic densities
 Warning:  Energy on first SCF cycle will be non-variational
 SAD guess density has 49.913408 electrons

 -----------------------------------------------------------------------
  General SCF calculation program by
  Eric Jon Sundstrom, Paul Horn, Yuezhi Mao, Dmitri Zuev, Alec White,
  David Stuck, Shaama M.S., Shane Yost, Joonho Lee, David Small,
  Daniel Levine, Susi Lehtola, Hugh Burton, Evgeny Epifanovsky
 -----------------------------------------------------------------------
 Exchange:     0.1670 Hartree-Fock + 1.0000 wB97X-V + LR-HF
 Correlation:  1.0000 wB97X-V
 Using Euler-Maclaurin-Lebedev (99,590) quadrature formula
 Nonlocal Correlation:  VV10 with C = 0.0100 and b = 6.00 and scale = 1.00000
 Grid used for NLC:  SG-1 standard quadrature
Energy prior to optimization (guess energy) = -271.520368552227
Begin Timing: Total SCF Calculation
begin iterations for algorithm: DIIS         
the SCF tolerance is set to 1.00e-08
    1    -271.5203685522      1.96e-03     00000 
    2    -271.5593770450      1.25e-03     00000 
    3    -271.5812274242      1.38e-04     00000 
    4    -271.5816438872      4.84e-05     00000 
    5    -271.5816781682      1.65e-05     00000 
    6    -271.5816828414      4.20e-06     00000 
    7    -271.5816831801      1.92e-06     00000 
    8    -271.5816832430      3.42e-07     00000 
    9    -271.5816832461      7.29e-08     00000 
   10    -271.5816832463      4.04e-08     00000 
   11    -271.5816832463      8.17e-09     00000 Convergence criterion met
Timing for Total SCF: 1235.00s (wall), 2457.61s (cpu)

************** Final PCM Free Energy Summary **************
 G_electrostatic  =      -0.00250857 hartree =      -1.57415213 kcal/mol
 G_cavitation     =       0.00000000 hartree =       0.00000000 kcal/mol
 G_dispersion     =       0.00000000 hartree =       0.00000000 kcal/mol
 G_repulsion      =       0.00000000 hartree =       0.00000000 kcal/mol
 --------------------------------------------------
 Non-electrostatic Free Energy =       0.00000000 hartree =       0.00000000 kcal/mol
 Total                         =      -0.00250857 hartree =      -1.57415213 kcal/mol
 --------------------------------------------------
 SCF Energy (H0 + V/2)                       =    -271.58168325 
 Solute Internal Energy (H0)                 =    -271.57917468 
 Total Free Energy (H0 + V/2 + non-elec)     =    -271.58168325 hartree
                                             = -170420.07838718 kcal/mol
***********************************************************

E_pcm = -0.0025085711
Multipole orders to be included
        2
        3
computing dipole RHS
computing quadrupole RHS
total number of RHS in solve_reponses: 8
RHS batch sizes
        8
Beginning Block Conjugate Gradient Iterations. Batch Number: 0
computing hessian-vector products by finite difference
              1      5.83e-01     00000 Conjugate Gradient Iteration
computing hessian-vector products by finite difference
              2      1.94e-01     00000 Conjugate Gradient Iteration
computing hessian-vector products by finite difference
              3      4.49e-02     00000 Conjugate Gradient Iteration
computing hessian-vector products by finite difference
              4      9.93e-03     00000 Conjugate Gradient Iteration
computing hessian-vector products by finite difference
              5      1.89e-03     00000 Conjugate Gradient Iteration
computing hessian-vector products by finite difference
              6      5.98e-04     00000 Conjugate Gradient Iteration
computing hessian-vector products by finite difference
              7      1.82e-04     00000 Conjugate Gradient Iteration
computing hessian-vector products by finite difference
              8      2.82e-05     00000 Conjugate Gradient Iteration
computing hessian-vector products by finite difference
              9      3.58e-06     00000 Conjugate Gradient Iteration
computing hessian-vector products by finite difference
             10      8.14e-07     00000 Conjugate Gradient Iteration
computing hessian-vector products by finite difference
             11      2.17e-07     00000 Conjugate Gradient Iteration
computing hessian-vector products by finite difference
             12      3.95e-08     00000 Conjugate Gradient Iteration
computing hessian-vector products by finite difference
             13      7.64e-09     00000 CG Converged
batch 0 complete
Done Calculating Responses
TESTING ORTHOGONALIZATION OF MULTIPOLE BASIS
Multipole virts passed orthogonality test
Virts Per Order
           75
          125
 
 --------------------------------------------------------------
 
                    Orbital Energies (a.u.)
 --------------------------------------------------------------
 
 Alpha MOs
 -- Occupied --
-10.2822 -10.2744 -10.2739 -10.2712 -10.2706 -10.2704 -10.2619  -0.9968
 -0.9085  -0.8782  -0.8138  -0.7315  -0.7053  -0.6301  -0.5742  -0.5684
 -0.5363  -0.5299  -0.5150  -0.4887  -0.4729  -0.4425  -0.4413  -0.3485
 -0.3386
 -- Virtual --
  0.0618   0.0632   0.0677   0.0790   0.0845   0.1043   0.1103   0.1137
  0.1355   0.1525   0.1654   0.1676   0.1858   0.1898   0.1948   0.2006
  0.2217   0.2245   0.2333   0.2385   0.2494   0.2576   0.2597   0.2697
  0.2792   0.2803   0.2833   0.2921   0.2930   0.3005   0.3046   0.3105
  0.3203   0.3239   0.3310   0.3352   0.3493   0.3526   0.3645   0.3724
  0.3769   0.3820   0.3832   0.3881   0.3898   0.4011   0.4040   0.4070
  0.4104   0.4276   0.4286   0.4352   0.4398   0.4474   0.4504   0.4521
  0.4618   0.4689   0.4739   0.4803   0.4920   0.4947   0.5117   0.5150
  0.5176   0.5238   0.5324   0.5381   0.5418   0.5468   0.5489   0.5656
  0.5823   0.5866   0.5970   0.5980   0.5999   0.6210   0.6393   0.6412
  0.6592   0.6733   0.6815   0.6848   0.6891   0.6965   0.7203   0.7231
  0.7288   0.7303   0.7436   0.7591   0.7632   0.7649   0.7782   0.7856
  0.7903   0.7909   0.7966   0.8025   0.8067   0.8222   0.8256   0.8308
  0.8335   0.8349   0.8433   0.8521   0.8561   0.8724   0.8888   0.8923
  0.9085   0.9156   0.9317   0.9454   0.9510   1.0083   1.0217   1.0387
  1.0446   1.0592   1.0725   1.0774   1.0879   1.0902   1.1015   1.1397
  1.1622   1.1773   1.2502   1.2737   1.2941   1.3189   1.3477   1.3495
  1.3772   1.4345   1.4493   1.4567   1.4629   1.4828   1.5230   1.5353
  1.5981   1.6013   1.6178   1.6239   1.6665   1.6746   1.7356   1.7751
  1.7896   1.7981   1.8026   1.8156   1.8274   1.8668   1.8838   1.9093
  1.9162   1.9251   1.9446   1.9605   1.9828   1.9941   2.0123   2.0223
  2.0310   2.0462   2.0678   2.0922   2.1115   2.1205   2.1715   2.1757
  2.1934   2.2342   2.2420   2.2681   2.2863   2.3098   2.3909   2.3973
  2.4032   2.4097   2.4825   2.5083   2.5340   2.5507   2.5638   2.6104
  2.6141   2.6265   2.6683   2.6709   2.6925   2.7097   2.7504   2.7682
  2.7828   2.8096   2.8162   2.8438   2.8597   2.9001   2.9070   2.9136
  2.9366   2.9381   2.9598   2.9736   2.9888   3.0155   3.0176   3.0469
  3.0625   3.0875   3.0969   3.1289   3.1782   3.1915   3.2008   3.2196
  3.2282   3.2388   3.2877   3.3015   3.3303   3.3564   3.3633   3.3767
  3.3979   3.4425   3.4463   3.4480   3.4581   3.4716   3.4857   3.4990
  3.5048   3.5249   3.5399   3.5416   3.5570   3.5701   3.5877   3.6006
  3.6154   3.6274   3.6515   3.6864   3.7036   3.7483   3.7814   3.8093
  3.8430   3.8893   3.9084   3.9520   3.9581   3.9911   4.0340   4.0513
  4.1152   4.1973   4.2651   4.2722   4.2880   4.3088   4.3213   4.3275
  4.3450   4.3628   4.3826   4.3971   4.4282   4.4412   4.4742   4.5301
  4.5948   4.6325   4.7479   4.7615   4.8257   4.8837   4.9030   4.9443
  5.0175   5.0456   5.1620   5.2621   5.3612   5.3745   5.4996   5.5322
  5.6643   5.8457  22.5789  22.6753  22.8851  22.8900  22.9963  23.0704
 23.4128
 --------------------------------------------------------------
 
          Ground-State Mulliken Net Atomic Charges

     Atom                 Charge (a.u.)
  ----------------------------------------
      1 C                    -1.036898
      2 C                    -0.385488
      3 C                     0.879625
      4 C                    -0.510596
      5 C                    -0.472645
      6 C                    -0.342179
      7 C                    -0.493755
      8 H                     0.316810
      9 H                     0.311772
     10 H                     0.278851
     11 H                     0.263866
     12 H                     0.332328
     13 H                     0.331215
     14 H                     0.312307
     15 H                     0.214787
  ----------------------------------------
  Sum of atomic charges =     0.000000

 -----------------------------------------------------------------
                    Cartesian Multipole Moments
 -----------------------------------------------------------------
    Charge (ESU x 10^10)
                 0.0000
    Dipole Moment (Debye)
         X       0.4140      Y       0.1806      Z      -0.1844
       Tot       0.4879
    Quadrupole Moments (Debye-Ang)
        XX     -39.6148     XY       2.7287     YY     -44.9630
        XZ      -1.5391     YZ       0.8854     ZZ     -37.6226
    Octopole Moments (Debye-Ang^2)
       XXX     -73.4790    XXY      85.5153    XYY     -40.7182
       YYY     291.5950    XXZ      78.7315    XYZ      -2.5368
       YYZ      84.0180    XZZ     -20.5810    YZZ      78.6558
       ZZZ     228.6443
    Hexadecapole Moments (Debye-Ang^3)
      XXXX    -545.8073   XXXY      53.1741   XXYY    -304.0387
      XYYY     111.8207   YYYY   -1464.8544   XXXZ     197.5614
      XXYZ    -162.9150   XYYZ      92.3275   YYYZ    -549.1280
      XXZZ    -303.2581   XYZZ      23.0793   YYZZ    -425.8699
      XZZZ     188.4271   YZZZ    -472.1204   ZZZZ   -1238.1294
 -----------------------------------------------------------------
Archival summary:
1\1\nid00552\SP\ProcedureUnspecified\BasisUnspecified\78\meili\SunSep2621:18:142021SunSep2621:18:142021\0\\#,ProcedureUnspecified,BasisUnspecified,\\0,1\C\C,1,1.39357\H,2,1.08104,1,119.895\C,2,1.39663,1,120.51,3,-179.471,0\H,4,1.08102,2,119.962,1,179.632,0\C,4,1.38938,2,120.065,1,-0.696855,0\H,6,1.08137,4,120.057,2,-179.937,0\C,6,1.39149,4,120.006,2,-0.232674,0\H,8,1.08102,6,120.134,4,-179.625,0\C,1,1.39721,2,119.14,3,-179.253,0\H,10,1.08067,1,119.916,2,178.59,0\C,1,1.49884,2,120.233,3,-0.665409,0\H,12,1.08859,1,109.498,2,155.746,0\H,12,1.0898,1,107.834,2,39.0836,0\H,12,1.1,1,113.868,2,-81.5139,0\\\@

 Total job time:  28237.31s(wall), 55922.97s(cpu) 
 Sun Sep 26 21:18:14 2021

        *************************************************************
        *                                                           *
        *  Thank you very much for using Q-Chem.  Have a nice day.  *
        *                                                           *
        *************************************************************


Done Job For Fragment 0
calling putenv with: QCSCRATCH=/global/cscratch1/sd/meili 
calling putenv with: QCLOCALSCR=/tmp 
calling putenv with: QCTHREADS=32 
Creating input file /tmp/qchem54356/Frg2.input
using default PutDataFrgm: nothing
calling putenv with: QCSCRATCH=/tmp/qchem54356/ 
calling putenv with: QCLOCALSCR=/tmp/qchem54356/ 
Spawning Job For Fragment 1
                  Welcome to Q-Chem
     A Quantum Leap Into The Future Of Chemistry


 Q-Chem 5.2, Q-Chem, Inc., Pleasanton, CA (2019)

 License issued to: National Energy Research Scientific Computing Center

 Yihan Shao,  Zhengting Gan,  E. Epifanovsky,  A. T. B. Gilbert,  M. Wormit,  
 J. Kussmann,  A. W. Lange,  A. Behn,  Jia Deng,  Xintian Feng,  D. Ghosh,  
 M. Goldey,  P. R. Horn,  L. D. Jacobson,  I. Kaliman,  T. Kus,  A. Landau,  
 Jie Liu,  E. I. Proynov,  R. M. Richard,  R. P. Steele,  E. J. Sundstrom,  
 H. L. Woodcock III,  P. M. Zimmerman,  D. Zuev,  B. Albrecht,  E. Alguire,  
 S. A. Baeppler,  D. Barton,  Z. Benda,  Y. A. Bernard,  E. J. Berquist,  
 K. B. Bravaya,  H. Burton,  D. Casanova,  Chun-Min Chang,  Yunqing Chen,  
 A. Chien,  K. D. Closser,  M. P. Coons,  S. Coriani,  S. Dasgupta,  
 A. L. Dempwolff,  M. Diedenhofen,  Hainam Do,  R. G. Edgar,  Po-Tung Fang,  
 S. Faraji,  S. Fatehi,  Qingguo Feng,  K. D. Fenk,  J. Fosso-Tande,  
 J. Gayvert,  Qinghui Ge,  A. Ghysels,  G. Gidofalvi,  J. Gomes,  
 J. Gonthier,  A. Gunina,  D. Hait,  M. W. D. Hanson-Heine,  
 P. H. P. Harbach,  A. W. Hauser,  M. F. Herbst,  J. E. Herr,  
 E. G. Hohenstein,  Z. C. Holden,  Kerwin Hui,  B. C. Huynh,  T.-C. Jagau,  
 Hyunjun Ji,  B. Kaduk,  K. Khistyaev,  Jaehoon Kim,  P. Klunzinger,  K. Koh,  
 D. Kosenkov,  L. Koulias,  T. Kowalczyk,  C. M. Krauter,  A. Kunitsa,  
 Ka Un Lao,  A. Laurent,  K. V. Lawler,  Joonho Lee,  D. Lefrancois,  
 S. Lehtola,  D. S. Levine,  Yi-Pei Li,  You-Sheng Lin,  Fenglai Liu,  
 E. Livshits,  A. Luenser,  P. Manohar,  E. Mansoor,  S. F. Manzer,  
 Shan-Ping Mao,  Yuezhi Mao,  N. Mardirossian,  A. V. Marenich,  
 T. Markovich,  L. A. Martinez-Martinez,  S. A. Maurer,  N. J. Mayhall,  
 S. C. McKenzie,  J.-M. Mewes,  P. Morgante,  A. F. Morrison,  
 J. W. Mullinax,  K. Nanda,  T. S. Nguyen-Beck,  R. Olivares-Amaya,  
 J. A. Parkhill,  Zheng Pei,  T. M. Perrine,  F. Plasser,  P. Pokhilko,  
 S. Prager,  A. Prociuk,  E. Ramos,  D. R. Rehn,  F. Rob,  M. Scheurer,  
 M. Schneider,  N. Sergueev,  S. M. Sharada,  S. Sharma,  D. W. Small,  
 T. Stauch,  T. Stein,  Yu-Chuan Su,  A. J. W. Thom,  A. Tkatchenko,  
 T. Tsuchimochi,  N. M. Tubman,  L. Vogt,  M. L. Vidal,  O. Vydrov,  
 M. A. Watson,  J. Wenzel,  M. de Wergifosse,  T. A. Wesolowski,  A. White,  
 J. Witte,  A. Yamada,  Jun Yang,  K. Yao,  S. Yeganeh,  S. R. Yost,  
 Zhi-Qiang You,  A. Zech,  Igor Ying Zhang,  Xing Zhang,  Yan Zhao,  
 Ying Zhu,  B. R. Brooks,  G. K. L. Chan,  C. J. Cramer,  M. S. Gordon,  
 W. J. Hehre,  A. Klamt,  M. W. Schmidt,  C. D. Sherrill,  D. G. Truhlar,  
 A. Aspuru-Guzik,  R. Baer,  A. T. Bell,  N. A. Besley,  Jeng-Da Chai,  
 A. E. DePrince, III,  R. A. DiStasio Jr.,  A. Dreuw,  B. D. Dunietz,  
 T. R. Furlani,  Chao-Ping Hsu,  Yousung Jung,  Jing Kong,  D. S. Lambrecht,  
 WanZhen Liang,  C. Ochsenfeld,  V. A. Rassolov,  L. V. Slipchenko,  
 J. E. Subotnik,  T. Van Voorhis,  J. M. Herbert,  A. I. Krylov,  
 P. M. W. Gill,  M. Head-Gordon

 Contributors to earlier versions of Q-Chem not listed above: 
 R. D. Adamson,  B. Austin,  J. Baker,  G. J. O. Beran,  K. Brandhorst,  
 S. T. Brown,  E. F. C. Byrd,  A. K. Chakraborty,  C.-L. Cheng,  
 Siu Hung Chien,  D. M. Chipman,  D. L. Crittenden,  H. Dachsel,  
 R. J. Doerksen,  A. D. Dutoi,  L. Fusti-Molnar,  W. A. Goddard III,  
 A. Golubeva-Zadorozhnaya,  S. R. Gwaltney,  G. Hawkins,  A. Heyden,  
 S. Hirata,  G. Kedziora,  F. J. Keil,  C. Kelley,  Jihan Kim,  R. A. King,  
 R. Z. Khaliullin,  P. P. Korambath,  W. Kurlancheek,  A. M. Lee,  M. S. Lee,  
 S. V. Levchenko,  Ching Yeh Lin,  D. Liotard,  R. C. Lochan,  I. Lotan,  
 P. E. Maslen,  N. Nair,  D. P. O'Neill,  D. Neuhauser,  E. Neuscamman,  
 C. M. Oana,  R. Olson,  B. Peters,  R. Peverati,  P. A. Pieniazek,  
 Y. M. Rhee,  J. Ritchie,  M. A. Rohrdanz,  E. Rosta,  N. J. Russ,  
 H. F. Schaefer III,  N. E. Schultz,  N. Shenvi,  A. C. Simmonett,  A. Sodt,  
 D. Stuck,  K. S. Thanthiriwatte,  V. Vanovschi,  Tao Wang,  A. Warshel,  
 C. F. Williams,  Q. Wu,  X. Xu,  W. Zhang

 Please cite Q-Chem as follows:
 Y. Shao et al., Mol. Phys. 113, 184-215 (2015)
 DOI: 10.1080/00268976.2014.952696

 Q-Chem 5.2.0 for Intel X86 EM64T Linux

 Parts of Q-Chem use Armadillo 8.300.2 (Tropical Shenanigans).
 http://arma.sourceforge.net/

 Q-Chem begins on Sun Sep 26 21:18:15 2021  

Host: cori01
0

     Scratch files written to /tmp/qchem54356//Frg2//
 May1019 |scratch|qcdevops|jenkins|workspace|build_RNUM -1
Processing $rem in /global/common/cori/software/qchem/5.2/config/preferences:
	 MEM_TOTAL  96000 
NAlpha2: 50
NElect   50
Mult     1
Symmetry turned off for PCM/SM12/SMD calculation

Checking the input file for inconsistencies... 	...done.

--------------------------------------------------------------
User input:
--------------------------------------------------------------
$molecule
0 1
 6	-2.9891391267	1.8405047898	2.2456466656
 6	0.5438608733	1.5915047898	0.9096466656
 6	-0.8251391267	1.3905047898	1.0786466656
 6	1.2338608733	2.4355047898	1.7646466656
 6	-1.5121391267	2.0335047898	2.1026466656
 6	0.5518608733	3.0775047898	2.7936466656
 6	-0.8191391267	2.8865047898	2.9556466656
 1	1.0678608733	1.0865047898	0.1096466656
 1	-1.3491391267	0.7245047898	0.4086466656
 1	2.2938608733	2.5815047898	1.6466466656
 1	1.0848608733	3.7215047898	3.4776466656
 1	-3.3361391267	2.3135047898	3.1636466656
 1	-3.1841391267	0.7755047898	2.3346466656
 1	-1.3361391267	3.3905047898	3.7556466656
 1	-3.5543357267	2.2512957898	1.3960566656
$end
$rem
EDA2		1
METHOD		WB97X-V
BASIS		DEF2-TZVPD
XC_GRID		000099000590
NL_GRID		1
UNRESTRICTED		FALSE
MAX_SCF_CYCLES		200
SYMMETRY		FALSE
SYM_IGNORE		TRUE
BASIS_LIN_DEP_THRESH		6
THRESH		14
SCF_CONVERGENCE		8
SCF_PRINT_FRGM		TRUE
SOLVENT_METHOD		PCM
!required keywords
JOBTYPE		SP
SYM_IGNORE		TRUE
SUBSYSTEM		TRUE
GEN_SCFMAN		TRUE
CHILD_INSTRUCTION		2
SYM_IGNORE		TRUE
SCFMI		0
RI_K 0		
PARI_K 0		
MIN_PARI_K 0		
IARI_K 0		
OCC_RI_K 0		
PURECART		1111
MEM_STATIC		2000
MEM_TOTAL		96000
GUI		0
CHILD_MP		1
CHILD_MP_ORDERS		232
FRZ_RELAX		0
FRZ_RELAX_METHOD		0
EDA_CLS_ELEC		1
EDA_CLS_DISP		0
FRZ_ORTHO_DECOMP		1
EDA2		FALSE
FRGM_METHOD		FALSE
CIS_N_ROOTS  0
LOCAL_CIS    0
CIS_RLX_DNS  1
$end
$pcm
THEORY                  CPCM
METHOD                  SWIG
SOLVER                  INVERSION
RADII                   UFF
HPOINTS                 302
HEAVYPOINTS             302
PRINTLEVEL              0
$end
$solvent
DIELECTRIC              78.390000 ! water
$end
--------------------------------------------------------------
 ----------------------------------------------------------------
             Standard Nuclear Orientation (Angstroms)
    I     Atom           X                Y                Z
 ----------------------------------------------------------------
    1      C      -2.9891391267     1.8405047898     2.2456466656
    2      C       0.5438608733     1.5915047898     0.9096466656
    3      C      -0.8251391267     1.3905047898     1.0786466656
    4      C       1.2338608733     2.4355047898     1.7646466656
    5      C      -1.5121391267     2.0335047898     2.1026466656
    6      C       0.5518608733     3.0775047898     2.7936466656
    7      C      -0.8191391267     2.8865047898     2.9556466656
    8      H       1.0678608733     1.0865047898     0.1096466656
    9      H      -1.3491391267     0.7245047898     0.4086466656
   10      H       2.2938608733     2.5815047898     1.6466466656
   11      H       1.0848608733     3.7215047898     3.4776466656
   12      H      -3.3361391267     2.3135047898     3.1636466656
   13      H      -3.1841391267     0.7755047898     2.3346466656
   14      H      -1.3361391267     3.3905047898     3.7556466656
   15      H      -3.5543357267     2.2512957898     1.3960566656
 ----------------------------------------------------------------
 Nuclear Repulsion Energy =         270.35868309 hartrees
 There are       25 alpha and       25 beta electrons
 Requested basis set is def2-TZVPD
 There are 131 shells and 331 basis functions

 Total QAlloc Memory Limit  96000 MB
 Mega-Array Size      1956 MB
 MEM_STATIC part      2000 MB
 Discretize the solute cavity surface with Lebedev spheres
	Using 302 Lebedev grid points for each H atom
	Using 302 Lebedev grid points for other atoms
	Atomic van der Waals radii will be scaled by 1.20
 Remove points where switching function is < 1.0e-08
 Keep 1794 surface tesserae and discard 2736 interior tesserae
 Molecular Surface Area = 178.018 Angst**2

                       Distance Matrix (Angstroms)
             C (  1)   C (  2)   C (  3)   C (  4)   C (  5)   C (  6)
   C (  2)  3.785365
   C (  3)  2.499457  1.393959
   C (  4)  4.291750  1.385446  2.408755
   C (  5)  1.496405  2.417798  1.390681  2.795776
   C (  6)  3.790667  2.399524  2.771881  1.391449  2.414024
   C (  7)  2.511397  2.778653  2.400246  2.415924  1.391211  1.393688
   H (  8)  4.646532  1.081481  2.148215  2.141584  3.394887  3.381448
   H (  9)  2.703632  2.141527  1.080293  3.382033  2.147018  3.852095
   H ( 10)  5.368237  2.141441  3.386630  1.076494  3.872193  2.143872
   H ( 11)  4.653328  3.379971  3.851865  2.147176  3.388861  1.080130
   H ( 12)  1.089432  4.544909  3.391795  4.780898  2.128637  3.979590
   H ( 13)  1.086357  4.073630  2.742379  4.753864  2.105225  4.412208
   H ( 14)  2.723051  3.856231  3.380451  3.388363  2.145888  2.141952
   H ( 15)  1.100000  4.179370  2.879275  4.805894  2.171928  4.415510
             C (  7)   H (  8)   H (  9)   H ( 10)   H ( 11)   H ( 12)
   H (  8)  3.860115
   H (  9)  3.382655  2.462181
   H ( 10)  3.390763  2.469913  4.272299
   H ( 11)  2.143578  4.276323  4.932051  2.472618
   H ( 12)  2.589765  5.497969  3.750082  5.836952  4.650409
   H ( 13)  3.230354  4.809038  2.660696  5.808912  5.311283  1.753793
   H ( 14)  1.077639  4.937707  4.279034  4.275425  2.459286  2.347423
   H ( 15)  3.212026  4.937235  2.858139  5.862869  5.293078  1.782093
             H ( 13)   H ( 14)
   H ( 14)  3.503223
   H ( 15)  1.787724  3.433054
 
 A cutoff of  1.0D-14 yielded   8361 shell pairs
 There are     54505 function pairs (     69459 Cartesian)
 Smallest overlap matrix eigenvalue = 5.52E-07
 Linear dependence detected in AO basis
 Tighter screening thresholds may be required for diffuse basis sets
 Use S2THRESH > 14 and THRESH = 14 in case of SCF convergence issues
 Number of orthogonalized atomic orbitals = 330
 Maximum deviation from orthogonality = 1.706E-10

 Scale SEOQF with 1.000000e-01/1.000000e-01/1.000000e-01

 Standard Electronic Orientation quadrupole field applied
 Nucleus-field energy     =    -0.0000000017 hartrees
 Guess from superposition of atomic densities
 Warning:  Energy on first SCF cycle will be non-variational
 SAD guess density has 49.913408 electrons

 -----------------------------------------------------------------------
  General SCF calculation program by
  Eric Jon Sundstrom, Paul Horn, Yuezhi Mao, Dmitri Zuev, Alec White,
  David Stuck, Shaama M.S., Shane Yost, Joonho Lee, David Small,
  Daniel Levine, Susi Lehtola, Hugh Burton, Evgeny Epifanovsky
 -----------------------------------------------------------------------
 Exchange:     0.1670 Hartree-Fock + 1.0000 wB97X-V + LR-HF
 Correlation:  1.0000 wB97X-V
 Using Euler-Maclaurin-Lebedev (99,590) quadrature formula
 Nonlocal Correlation:  VV10 with C = 0.0100 and b = 6.00 and scale = 1.00000
 Grid used for NLC:  SG-1 standard quadrature
Energy prior to optimization (guess energy) = -271.519284192853
Begin Timing: Total SCF Calculation
begin iterations for algorithm: DIIS         
the SCF tolerance is set to 1.00e-08
    1    -271.5192841929      1.98e-03     00000 
    2    -271.5587863753      1.27e-03     00000 
    3    -271.5811849449      1.39e-04     00000 
    4    -271.5815994909      4.95e-05     00000 
    5    -271.5816350321      1.68e-05     00000 
    6    -271.5816398014      4.45e-06     00000 
    7    -271.5816401700      2.00e-06     00000 
    8    -271.5816402394      3.38e-07     00000 
    9    -271.5816402428      7.45e-08     00000 
   10    -271.5816402431      4.11e-08     00000 
   11    -271.5816402431      1.43e-08     00000 
   12    -271.5816402431      4.77e-09     00000 Convergence criterion met
Timing for Total SCF: 1339.00s (wall), 2662.73s (cpu)

************** Final PCM Free Energy Summary **************
 G_electrostatic  =      -0.00246516 hartree =      -1.54691239 kcal/mol
 G_cavitation     =       0.00000000 hartree =       0.00000000 kcal/mol
 G_dispersion     =       0.00000000 hartree =       0.00000000 kcal/mol
 G_repulsion      =       0.00000000 hartree =       0.00000000 kcal/mol
 --------------------------------------------------
 Non-electrostatic Free Energy =       0.00000000 hartree =       0.00000000 kcal/mol
 Total                         =      -0.00246516 hartree =      -1.54691239 kcal/mol
 --------------------------------------------------
 SCF Energy (H0 + V/2)                       =    -271.58164024 
 Solute Internal Energy (H0)                 =    -271.57917508 
 Total Free Energy (H0 + V/2 + non-elec)     =    -271.58164024 hartree
                                             = -170420.05140229 kcal/mol
***********************************************************

E_pcm = -0.0024651618
Multipole orders to be included
        2
        3
computing dipole RHS
computing quadrupole RHS
total number of RHS in solve_reponses: 8
RHS batch sizes
        8
Beginning Block Conjugate Gradient Iterations. Batch Number: 0
computing hessian-vector products by finite difference
              1      5.82e-01     00000 Conjugate Gradient Iteration
computing hessian-vector products by finite difference
              2      1.87e-01     00000 Conjugate Gradient Iteration
computing hessian-vector products by finite difference
              3      4.35e-02     00000 Conjugate Gradient Iteration
computing hessian-vector products by finite difference
              4      1.01e-02     00000 Conjugate Gradient Iteration
computing hessian-vector products by finite difference
              5      2.36e-03     00000 Conjugate Gradient Iteration
computing hessian-vector products by finite difference
              6      6.72e-04     00000 Conjugate Gradient Iteration
computing hessian-vector products by finite difference
              7      1.72e-04     00000 Conjugate Gradient Iteration
computing hessian-vector products by finite difference
              8      2.50e-05     00000 Conjugate Gradient Iteration
computing hessian-vector products by finite difference
              9      3.19e-06     00000 Conjugate Gradient Iteration
computing hessian-vector products by finite difference
             10      5.22e-07     00000 Conjugate Gradient Iteration
computing hessian-vector products by finite difference
             11      9.16e-08     00000 Conjugate Gradient Iteration
computing hessian-vector products by finite difference
             12      1.19e-08     00000 Conjugate Gradient Iteration
computing hessian-vector products by finite difference
             13      2.86e-09     00000 CG Converged
batch 0 complete
Done Calculating Responses
TESTING ORTHOGONALIZATION OF MULTIPOLE BASIS
Multipole virts passed orthogonality test
Virts Per Order
           75
          124
 
 --------------------------------------------------------------
 
                    Orbital Energies (a.u.)
 --------------------------------------------------------------
 
 Alpha MOs
 -- Occupied --
-10.2806 -10.2729 -10.2728 -10.2692 -10.2692 -10.2689 -10.2612  -0.9985
 -0.9092  -0.8791  -0.8144  -0.7314  -0.7060  -0.6310  -0.5749  -0.5675
 -0.5380  -0.5300  -0.5158  -0.4883  -0.4739  -0.4423  -0.4409  -0.3491
 -0.3385
 -- Virtual --
  0.0622   0.0631   0.0697   0.0790   0.0844   0.1044   0.1101   0.1132
  0.1355   0.1530   0.1650   0.1719   0.1819   0.1907   0.1938   0.1994
  0.2229   0.2280   0.2328   0.2412   0.2461   0.2558   0.2592   0.2712
  0.2795   0.2826   0.2859   0.2915   0.2936   0.3006   0.3020   0.3123
  0.3234   0.3250   0.3282   0.3401   0.3506   0.3534   0.3674   0.3722
  0.3729   0.3810   0.3875   0.3921   0.3928   0.3983   0.4003   0.4035
  0.4146   0.4268   0.4311   0.4375   0.4415   0.4468   0.4517   0.4592
  0.4678   0.4722   0.4786   0.4875   0.4928   0.4979   0.5102   0.5130
  0.5159   0.5210   0.5292   0.5457   0.5459   0.5503   0.5571   0.5646
  0.5717   0.5751   0.5880   0.5937   0.5999   0.6243   0.6330   0.6425
  0.6665   0.6765   0.6822   0.6860   0.6892   0.7044   0.7189   0.7253
  0.7289   0.7333   0.7444   0.7611   0.7651   0.7659   0.7712   0.7817
  0.7890   0.7936   0.7963   0.8018   0.8112   0.8235   0.8261   0.8281
  0.8327   0.8362   0.8505   0.8561   0.8637   0.8664   0.8807   0.8956
  0.9166   0.9267   0.9405   0.9486   0.9531   1.0050   1.0341   1.0418
  1.0509   1.0585   1.0649   1.0752   1.0912   1.0989   1.1020   1.1442
  1.1624   1.1698   1.2673   1.2723   1.2972   1.3301   1.3568   1.3624
  1.3717   1.4421   1.4514   1.4586   1.4630   1.4764   1.5307   1.5398
  1.6073   1.6141   1.6226   1.6301   1.6481   1.6795   1.7336   1.7696
  1.7793   1.7937   1.8045   1.8139   1.8344   1.8514   1.8802   1.9085
  1.9160   1.9251   1.9320   1.9713   1.9876   1.9929   2.0110   2.0264
  2.0366   2.0410   2.0688   2.0860   2.1072   2.1242   2.1737   2.1943
  2.2019   2.2356   2.2512   2.2748   2.2904   2.3138   2.3810   2.4000
  2.4101   2.4248   2.4597   2.5204   2.5477   2.5572   2.5640   2.5974
  2.6212   2.6550   2.6655   2.6748   2.7008   2.7133   2.7671   2.7754
  2.7832   2.8068   2.8159   2.8490   2.8620   2.8967   2.9144   2.9175
  2.9334   2.9420   2.9786   2.9833   2.9983   3.0126   3.0238   3.0544
  3.0617   3.0892   3.0990   3.1385   3.1641   3.1866   3.2025   3.2193
  3.2289   3.2563   3.2755   3.2866   3.3516   3.3556   3.3701   3.3825
  3.4109   3.4300   3.4427   3.4518   3.4554   3.4794   3.4850   3.4953
  3.5060   3.5379   3.5415   3.5434   3.5571   3.5707   3.5765   3.6114
  3.6238   3.6365   3.6630   3.6995   3.7253   3.7483   3.7623   3.8078
  3.8624   3.9046   3.9352   3.9545   3.9700   3.9946   4.0386   4.0580
  4.1302   4.2120   4.2705   4.2800   4.2862   4.3145   4.3279   4.3450
  4.3611   4.3718   4.3937   4.4022   4.4255   4.4536   4.5087   4.5417
  4.6057   4.6116   4.7777   4.8101   4.8208   4.8501   4.9124   4.9478
  5.0301   5.0487   5.1747   5.2712   5.3771   5.3950   5.5057   5.5368
  5.6709   5.8539  22.5864  22.7005  22.8946  22.9075  23.0173  23.0892
 23.4366
 --------------------------------------------------------------
 
          Ground-State Mulliken Net Atomic Charges

     Atom                 Charge (a.u.)
  ----------------------------------------
      1 C                    -1.020283
      2 C                    -0.475375
      3 C                    -0.278343
      4 C                    -0.483097
      5 C                     0.874242
      6 C                    -0.513421
      7 C                    -0.428043
      8 H                     0.310435
      9 H                     0.345271
     10 H                     0.341104
     11 H                     0.309426
     12 H                     0.270029
     13 H                     0.239663
     14 H                     0.286941
     15 H                     0.221452
  ----------------------------------------
  Sum of atomic charges =     0.000000

 -----------------------------------------------------------------
                    Cartesian Multipole Moments
 -----------------------------------------------------------------
    Charge (ESU x 10^10)
                -0.0000
    Dipole Moment (Debye)
         X      -0.4796      Y      -0.1082      Z       0.0374
       Tot       0.4931
    Quadrupole Moments (Debye-Ang)
        XX     -37.7794     XY       0.1244     YY     -43.5635
        XZ      -1.8001     YZ       3.6065     ZZ     -41.0593
    Octopole Moments (Debye-Ang^2)
       XXX      75.1646    XXY     -81.4522    XYY      27.8412
       YYY    -283.5379    XXZ     -75.6923    XYZ      -1.5724
       YYZ     -69.2624    XZZ      19.5212    YZZ     -74.6087
       ZZZ    -244.9375
    Hexadecapole Moments (Debye-Ang^3)
      XXXX    -684.7896   XXXY     125.9542   XXYY    -318.1215
      XYYY     140.0846   YYYY   -1407.2387   XXXZ     179.6589
      XXYZ    -176.9955   XYYZ      63.5133   YYYZ    -557.6525
      XXZZ    -298.0563   XYZZ      31.3461   YYZZ    -353.7682
      XZZZ     161.6099   YZZZ    -532.8198   ZZZZ   -1193.1513
 -----------------------------------------------------------------
Archival summary:
1\1\nid00552\SP\ProcedureUnspecified\BasisUnspecified\78\meili\MonSep2704:42:382021MonSep2704:42:382021\0\\#,ProcedureUnspecified,BasisUnspecified,\\0,1\C\C,1,1.39068\H,2,1.08029,1,120.139\C,1,1.39121,2,119.267,3,179.948,0\H,4,1.07764,1,120.195,2,-179.845,0\C,4,1.39369,1,120.184,2,-0.872924,0\H,6,1.08013,4,119.573,1,-178.383,0\C,6,1.39145,4,120.324,1,1.10866,0\H,8,1.07649,6,120.074,4,-179.651,0\C,8,1.38545,6,119.561,4,-0.742122,0\H,10,1.08148,8,119.978,6,-179.795,0\C,1,1.4964,2,119.889,3,-2.20929,0\H,12,1.08636,1,108.146,2,56.1027,0\H,12,1.08943,1,109.811,2,173.038,0\H,12,1.1,1,112.655,2,-65.3137,0\\\@

 Total job time:  26663.01s(wall), 53009.18s(cpu) 
 Mon Sep 27 04:42:38 2021

        *************************************************************
        *                                                           *
        *  Thank you very much for using Q-Chem.  Have a nice day.  *
        *                                                           *
        *************************************************************


Done Job For Fragment 1
calling putenv with: QCSCRATCH=/global/cscratch1/sd/meili 
calling putenv with: QCLOCALSCR=/tmp 
calling putenv with: QCTHREADS=32 
Doing General SCFMI
 Exchange:     0.1670 Hartree-Fock + 1.0000 wB97X-V + LR-HF
 Correlation:  1.0000 wB97X-V
 Using Euler-Maclaurin-Lebedev (99,590) quadrature formula
 Nonlocal Correlation:  VV10 with C = 0.0100 and b = 6.00 and scale = 1.00000
 Grid used for NLC:  SG-1 standard quadrature
performing fock build before subrot guess so that all methods have access
Printing subrot_rss_gen Method Specification:
Occupied Subspace Method is 0
Virtual Subspace Method is 0
Energy of the unrelaxed supersystem initial determinant -543.160577729303
performing fock build before subrot guess so that all methods have access
Printing subrot_rss_gen Method Specification:
Occupied Subspace Method is 0
Virtual Subspace Method is 0
Energy of the unrelaxed supersystem initial determinant w/ solvent -543.165125241104
write pseudocanon occs and virts to disk
write pseudocanon orbital energies to disk
Tolerance of ortho_decomp_scf: 1.00e-06
GDM subspace size: 20
Beginning the Orthogonal Decomposition of the Initial Supersystem Wavefunction
    1    -543.1520819521      1.13e-02     ortho_decomp Preconditoned Steepest Descent
    2    -543.1526471420      2.65e-04     ortho_decomp BFGS Step
    3    -543.1526486600      1.84e-05     ortho_decomp BFGS Step
    4    -543.1526486625      6.83e-07     ortho_decomp 00000 Convergence criterion met
 Hartree-Fock
 Hartree-Fock
 Hartree-Fock
Doing General SCFMI
 Exchange:     0.1670 Hartree-Fock + 1.0000 wB97X-V + LR-HF
 Correlation:  1.0000 wB97X-V
 Using Euler-Maclaurin-Lebedev (99,590) quadrature formula
 Nonlocal Correlation:  VV10 with C = 0.0100 and b = 6.00 and scale = 1.00000
 Grid used for NLC:  SG-1 standard quadrature
performing fock build at end of subrot_r(subrot) constructor so that all methods have access
<S^2> of initial wavefunction before polarization iterations 0.0000000000
Beginning iterations for the determination of the polarized wavefunction
Energy prior to optimization (guess energy) = -543.165125241104
Begin Timing: Total SCF Calculation
begin iterations for algorithm: DIIS         
the SCF tolerance is set to 1.00e-08
    1    -543.1651252411      2.62e-05     00000 
    2    -543.1652055393      1.01e-05     00000 
    3    -543.1652139449      6.10e-06     00000 
    4    -543.1652167527      1.57e-06     00000 
    5    -543.1652170444      7.11e-07     00000 
    6    -543.1652171006      1.97e-07     00000 
    7    -543.1652171050      5.53e-08     00000 
    8    -543.1652171053      2.23e-08     00000 
    9    -543.1652171054      6.11e-09     00000 Convergence criterion met
write pseudocanon occs and virts to disk
write pseudocanon orbital energies to disk
Timing for Total SCF: 6921.00s (wall), 13777.70s (cpu)
<S^2> of polarized wavefunction after polarization iterations 0.0000000000
relaxing scfmi constraint to allow all rotations in the entire AO span
Doing General SCFMI
 Exchange:     0.1670 Hartree-Fock + 1.0000 wB97X-V + LR-HF
 Correlation:  1.0000 wB97X-V
 Using Euler-Maclaurin-Lebedev (99,590) quadrature formula
 Nonlocal Correlation:  VV10 with C = 0.0100 and b = 6.00 and scale = 1.00000
 Grid used for NLC:  SG-1 standard quadrature
performing fock build at end of subrot_r(subrot) constructor so that all methods have access
<S^2> of polarized wavefunction before ct-allowed iterations 0.0000000000
Beginning iterations for the determination of the CT-Allowed wavefunction
Energy prior to optimization (guess energy) = -543.165217105381
Begin Timing: Total SCF Calculation
begin iterations for algorithm: DIIS         
the SCF tolerance is set to 1.00e-08
    1    -543.1652171054      4.19e-05     00000 
    2    -543.1655700097      3.94e-06     00000 
    3    -543.1655795534      6.26e-07     00000 
    4    -543.1655798639      1.99e-07     00000 
    5    -543.1655798754      8.99e-08     00000 
    6    -543.1655798783      1.59e-08     00000 
    7    -543.1655798784      7.00e-09     00000 Convergence criterion met
write pseudocanon occs and virts to disk
write pseudocanon orbital energies to disk
Timing for Total SCF: 5330.00s (wall), 10612.59s (cpu)
<S^2> of ct_allowed wavefunction after ct-allowed iterations 0.0000000000

================================
        Results of EDA2         
================================
Basic EDA Quantities
--------------------
Fragment Energies (Ha):
1 -271.5816832463
2 -271.5816402431
--------------------
  E_prp (kJ/mol) = -0.0000
  E_sol (kJ/mol) = 1.1191
  E_frz (kJ/mol) = -5.8496
  E_pol (kJ/mol) = -0.2412
  E_vct (kJ/mol) = -0.9525
  E_int (kJ/mol) = -5.9242
--------------------


Initial Wavefunction Decomposition
--------------------
  --------------------
  Orthogonal Fragment Subspace Decomposition:
  --------------------
     E_elec   (ELEC)   (kJ/mol) = -8.2570
     E_pauli  (PAULI)  (kJ/mol) = 11.3612
     E_disp   (DISP)   (kJ/mol) = -8.9538
     --------------------
     Terms summing to E_pauli:
     --------------------
        E_kep_pauli       (kJ/mol) = 14.9684
        E_disp_free_pauli (kJ/mol) = -3.6072
  --------------------
  Classical Frozen Decomposition:
  --------------------
     E_cls_elec  (CLS ELEC)  (kJ/mol) = -3.1550
     E_cls_pauli (CLS PAULI) (kJ/mol) = -2.6946
    [E_mod_pauli (MOD PAULI) (kJ/mol) = 6.2592 (CLS PAULI - DISP from orthogonal decomposition) ]
  --------------------
--------------------

Simplified EDA Summary (kJ/mol)
--------------------
 PREPARATION     -0.0000
 SOLVATION       1.1191
 FROZEN          3.1042      (does not include dispersion)
[PAULI           11.3612]     (if this is negligible, then frozen describes electrostatics)
 DISPERSION      -8.9538
 POLARIZATION    -0.2412
 CHARGE TRANSFER -0.9525
 TOTAL           -5.9242     (PRP + SOL + FRZ + DISP + POL + CT)
--------------------
 
 --------------------------------------------------------------
 
                    Orbital Energies (a.u.)
 --------------------------------------------------------------
 
 Alpha MOs
 -- Occupied --
-10.2828 -10.2806 -10.2751 -10.2743 -10.2729 -10.2727 -10.2719 -10.2711
-10.2708 -10.2692 -10.2692 -10.2688 -10.2625 -10.2612  -0.9985  -0.9974
 -0.9093  -0.9090  -0.8798  -0.8780  -0.8143  -0.8143  -0.7328  -0.7307
 -0.7071  -0.7048  -0.6321  -0.6297  -0.5751  -0.5746  -0.5708  -0.5658
 -0.5380  -0.5373  -0.5326  -0.5274  -0.5159  -0.5153  -0.4892  -0.4882
 -0.4743  -0.4729  -0.4454  -0.4419  -0.4408  -0.4398  -0.3509  -0.3471
 -0.3392  -0.3384
 -- Virtual --
  0.0562   0.0583   0.0627   0.0651   0.0690   0.0693   0.0716   0.0846
  0.0862   0.0964   0.1001   0.1033   0.1079   0.1117   0.1242   0.1330
  0.1336   0.1401   0.1472   0.1579   0.1623   0.1648   0.1736   0.1811
  0.1838   0.1878   0.1906   0.1990   0.2014   0.2068   0.2103   0.2197
  0.2231   0.2280   0.2298   0.2322   0.2387   0.2407   0.2464   0.2485
  0.2558   0.2607   0.2635   0.2691   0.2702   0.2710   0.2752   0.2783
  0.2793   0.2800   0.2827   0.2886   0.2914   0.2956   0.2998   0.3028
  0.3067   0.3116   0.3159   0.3190   0.3210   0.3228   0.3275   0.3304
  0.3332   0.3377   0.3415   0.3455   0.3540   0.3547   0.3561   0.3612
  0.3621   0.3685   0.3701   0.3714   0.3734   0.3768   0.3794   0.3806
  0.3835   0.3859   0.3906   0.3953   0.3970   0.3987   0.4018   0.4051
  0.4077   0.4095   0.4145   0.4190   0.4239   0.4268   0.4308   0.4338
  0.4395   0.4405   0.4422   0.4463   0.4490   0.4510   0.4527   0.4592
  0.4611   0.4661   0.4707   0.4726   0.4743   0.4757   0.4798   0.4832
  0.4869   0.4893   0.4913   0.4987   0.5026   0.5078   0.5084   0.5122
  0.5143   0.5203   0.5215   0.5267   0.5309   0.5335   0.5385   0.5432
  0.5464   0.5482   0.5536   0.5593   0.5629   0.5644   0.5724   0.5762
  0.5778   0.5804   0.5870   0.5936   0.5954   0.6014   0.6065   0.6120
  0.6150   0.6202   0.6243   0.6284   0.6358   0.6423   0.6460   0.6525
  0.6580   0.6584   0.6682   0.6711   0.6772   0.6778   0.6843   0.6885
  0.6903   0.6975   0.7005   0.7030   0.7069   0.7105   0.7139   0.7269
  0.7280   0.7333   0.7366   0.7375   0.7420   0.7435   0.7472   0.7536
  0.7553   0.7616   0.7682   0.7711   0.7743   0.7797   0.7839   0.7873
  0.7892   0.7929   0.7970   0.8008   0.8026   0.8050   0.8102   0.8113
  0.8132   0.8179   0.8221   0.8235   0.8321   0.8340   0.8378   0.8402
  0.8433   0.8464   0.8526   0.8552   0.8607   0.8618   0.8671   0.8711
  0.8766   0.8783   0.8867   0.8941   0.8966   0.8991   0.9008   0.9095
  0.9107   0.9190   0.9233   0.9253   0.9294   0.9385   0.9451   0.9521
  0.9545   0.9639   0.9686   0.9821   0.9938   1.0025   1.0117   1.0238
  1.0323   1.0346   1.0457   1.0579   1.0618   1.0662   1.0757   1.0830
  1.0916   1.0953   1.0998   1.1042   1.1094   1.1199   1.1234   1.1342
  1.1391   1.1556   1.1628   1.1658   1.1745   1.2006   1.2132   1.2271
  1.2457   1.2571   1.2816   1.2884   1.2986   1.3162   1.3290   1.3419
  1.3533   1.3556   1.3698   1.3717   1.3823   1.3914   1.4034   1.4241
  1.4419   1.4600   1.4672   1.4747   1.4770   1.4820   1.4874   1.4943
  1.5074   1.5265   1.5326   1.5455   1.5497   1.5650   1.5992   1.6098
  1.6149   1.6257   1.6263   1.6339   1.6408   1.6581   1.6745   1.6761
  1.6896   1.6922   1.7124   1.7404   1.7583   1.7835   1.7869   1.7941
  1.8071   1.8099   1.8125   1.8143   1.8235   1.8311   1.8622   1.8766
  1.8908   1.8994   1.9030   1.9077   1.9215   1.9274   1.9413   1.9432
  1.9476   1.9505   1.9611   1.9680   1.9806   1.9959   2.0062   2.0080
  2.0153   2.0239   2.0315   2.0399   2.0529   2.0534   2.0664   2.0679
  2.0830   2.0866   2.0880   2.1128   2.1227   2.1347   2.1439   2.1496
  2.1707   2.1753   2.1821   2.1917   2.1954   2.2130   2.2360   2.2452
  2.2523   2.2535   2.2707   2.2817   2.2875   2.2921   2.3070   2.3283
  2.3372   2.3407   2.3967   2.4053   2.4099   2.4132   2.4232   2.4272
  2.4377   2.4527   2.4783   2.4926   2.5247   2.5347   2.5473   2.5638
  2.5700   2.5711   2.5855   2.5997   2.6056   2.6233   2.6265   2.6324
  2.6448   2.6678   2.6748   2.6847   2.6890   2.6958   2.7088   2.7190
  2.7274   2.7323   2.7563   2.7718   2.7772   2.7872   2.7949   2.8038
  2.8096   2.8208   2.8237   2.8338   2.8510   2.8595   2.8706   2.8764
  2.9050   2.9156   2.9221   2.9252   2.9318   2.9341   2.9421   2.9450
  2.9537   2.9592   2.9732   2.9852   2.9953   3.0026   3.0071   3.0144
  3.0255   3.0308   3.0382   3.0440   3.0594   3.0689   3.0712   3.0860
  3.1035   3.1051   3.1123   3.1183   3.1370   3.1538   3.1818   3.1951
  3.2090   3.2124   3.2183   3.2243   3.2361   3.2377   3.2421   3.2558
  3.2697   3.2801   3.2867   3.3004   3.3193   3.3308   3.3555   3.3702
  3.3743   3.3784   3.3831   3.3848   3.3908   3.4036   3.4081   3.4188
  3.4373   3.4463   3.4511   3.4545   3.4626   3.4736   3.4749   3.4822
  3.4857   3.4888   3.4974   3.5060   3.5101   3.5199   3.5241   3.5300
  3.5440   3.5476   3.5494   3.5515   3.5573   3.5652   3.5734   3.5843
  3.5866   3.5936   3.5997   3.6037   3.6066   3.6129   3.6290   3.6381
  3.6476   3.6553   3.6674   3.6748   3.6948   3.6976   3.7011   3.7100
  3.7130   3.7421   3.7620   3.7936   3.8160   3.8211   3.8473   3.8671
  3.8988   3.9137   3.9186   3.9432   3.9576   3.9601   3.9706   3.9766
  4.0005   4.0084   4.0414   4.0465   4.0638   4.0711   4.1262   4.1453
  4.2061   4.2308   4.2736   4.2794   4.2865   4.2879   4.2954   4.3038
  4.3157   4.3204   4.3373   4.3382   4.3448   4.3522   4.3550   4.3665
  4.3682   4.3803   4.3886   4.3994   4.4059   4.4118   4.4333   4.4379
  4.4520   4.4686   4.4812   4.5196   4.5371   4.5519   4.6076   4.6114
  4.6202   4.6438   4.7537   4.7709   4.7844   4.8175   4.8218   4.8303
  4.8535   4.8906   4.9170   4.9309   4.9506   4.9636   5.0244   5.0410
  5.0518   5.0660   5.1704   5.1863   5.2670   5.2829   5.3637   5.3695
  5.3803   5.3928   5.5016   5.5094   5.5303   5.5412   5.6696   5.6913
  5.8102   5.8294  22.6068  22.6228  22.6936  22.7175  22.9028  22.9099
 22.9198  22.9283  23.0157  23.0382  23.0863  23.1158  23.4245  23.4529
 --------------------------------------------------------------
 
          Ground-State Mulliken Net Atomic Charges

     Atom                 Charge (a.u.)
  ----------------------------------------
      1 C                    -1.072458
      2 C                    -0.390152
      3 C                     0.662742
      4 C                    -0.502459
      5 C                    -0.392461
      6 C                    -0.351514
      7 C                    -0.454287
      8 H                     0.415784
      9 H                     0.312475
     10 H                     0.247644
     11 H                     0.271095
     12 H                     0.347021
     13 H                     0.362663
     14 H                     0.318934
     15 H                     0.225225
     16 C                    -1.033469
     17 C                    -0.379413
     18 C                    -0.416123
     19 C                    -0.457999
     20 C                     0.539307
     21 C                    -0.458456
     22 C                    -0.380136
     23 H                     0.430493
     24 H                     0.421458
     25 H                     0.362561
     26 H                     0.319811
     27 H                     0.271358
     28 H                     0.239128
     29 H                     0.321732
     30 H                     0.219495
  ----------------------------------------
  Sum of atomic charges =     0.000000

 -----------------------------------------------------------------
                    Cartesian Multipole Moments
 -----------------------------------------------------------------
    Charge (ESU x 10^10)
                -0.0000
    Dipole Moment (Debye)
         X      -0.0862      Y       0.0250      Z      -0.1812
       Tot       0.2022
    Quadrupole Moments (Debye-Ang)
        XX     -77.4076     XY       2.8384     YY     -88.3959
        XZ      -3.3759     YZ       4.6094     ZZ     -78.5653
    Octopole Moments (Debye-Ang^2)
       XXX       1.7547    XXY       3.9080    XYY     -12.9487
       YYY       7.5150    XXZ       2.8317    XYZ      -4.0835
       YYZ      14.3864    XZZ      -0.9281    YZZ       3.6441
       ZZZ     -16.9277
    Hexadecapole Moments (Debye-Ang^3)
      XXXX   -1230.3831   XXXY     178.9312   XXYY    -621.9435
      XYYY     252.1315   YYYY   -2870.8111   XXXZ     376.7285
      XXYZ    -339.5534   XYYZ     155.7747   YYYZ   -1105.5289
      XXZZ    -600.7338   XYZZ      54.2324   YYZZ    -778.6453
      XZZZ     349.3987   YZZZ   -1003.6682   ZZZZ   -2429.1773
 -----------------------------------------------------------------
Archival summary:
1\1\nid00552\SP\ProcedureUnspecified\BasisUnspecified\1416\meili\MonSep2711:10:272021MonSep2711:10:272021\0\\#,ProcedureUnspecified,BasisUnspecified,\\0,1\C\H,1,1.08029\C,1,1.39068,2,120.139\C,3,1.39121,1,119.267,2,179.948,0\H,4,1.07764,3,120.195,1,-179.845,0\C,4,1.39369,3,120.184,1,-0.872924,0\H,6,1.08013,4,119.573,3,-178.383,0\C,6,1.39145,4,120.324,3,1.10866,0\H,8,1.07649,6,120.074,4,-179.651,0\C,8,1.38545,6,119.561,4,-0.742122,0\H,10,1.08148,8,119.978,6,-179.795,0\C,3,1.4964,1,119.889,2,-2.20929,0\H,12,1.08636,3,108.146,1,56.1027,0\H,12,1.08943,3,109.811,1,173.038,0\H,12,1.1,3,112.655,1,-65.3137,0\H,11,2.46294,10,133.176,8,107.475,0\C,16,1.08067,11,110.287,10,102.219,0\C,17,1.39721,16,119.916,11,92.5492,0\C,18,1.39357,17,119.14,16,178.59,0\H,19,1.08104,18,119.895,17,-179.253,0\C,19,1.39663,18,120.51,17,1.27524,0\H,21,1.08102,19,119.962,18,179.632,0\C,21,1.38938,19,120.065,18,-0.696855,0\H,23,1.08137,21,120.057,19,-179.937,0\C,23,1.39149,21,120.006,19,-0.232674,0\H,25,1.08102,23,120.134,21,-179.625,0\C,18,1.49884,17,120.612,16,0.00802481,0\H,27,1.08859,18,109.498,17,-25.6873,0\H,27,1.0898,18,107.834,17,-142.349,0\H,27,1.1,18,113.868,17,97.0531,0\\\@

 Total job time:  78175.99s(wall), 46332.42s(cpu) 
 Mon Sep 27 11:10:27 2021

        *************************************************************
        *                                                           *
        *  Thank you very much for using Q-Chem.  Have a nice day.  *
        *                                                           *
        *************************************************************


