                  Welcome to Q-Chem
     A Quantum Leap Into The Future Of Chemistry


 Q-Chem 5.2 (devel), Q-Chem, Inc., Pleasanton, CA (2019)

 Yihan Shao,  Zhengting Gan,  E. Epifanovsky,  A. T. B. Gilbert,  M. Wormit,  
 J. Kussmann,  A. W. Lange,  A. Behn,  Jia Deng,  Xintian Feng,  D. Ghosh,  
 M. Goldey,  P. R. Horn,  L. D. Jacobson,  I. Kaliman,  T. Kus,  A. Landau,  
 Jie Liu,  E. I. Proynov,  R. M. Richard,  R. P. Steele,  E. J. Sundstrom,  
 H. L. Woodcock III,  P. M. Zimmerman,  D. Zuev,  B. Albrecht,  E. Alguire,  
 S. A. Baeppler,  D. Barton,  Z. Benda,  Y. A. Bernard,  E. J. Berquist,  
 K. B. Bravaya,  H. Burton,  D. Casanova,  Chun-Min Chang,  Yunqing Chen,  
 A. Chien,  K. D. Closser,  M. P. Coons,  S. Coriani,  S. Dasgupta,  
 A. L. Dempwolff,  M. Diedenhofen,  Hainam Do,  R. G. Edgar,  Po-Tung Fang,  
 S. Faraji,  S. Fatehi,  Qingguo Feng,  K. D. Fenk,  J. Fosso-Tande,  
 J. Gayvert,  Qinghui Ge,  A. Ghysels,  G. Gidofalvi,  J. Gomes,  
 J. Gonthier,  A. Gunina,  D. Hait,  M. W. D. Hanson-Heine,  
 P. H. P. Harbach,  A. W. Hauser,  M. F. Herbst,  J. E. Herr,  
 E. G. Hohenstein,  Z. C. Holden,  Kerwin Hui,  B. C. Huynh,  T.-C. Jagau,  
 Hyunjun Ji,  B. Kaduk,  K. Khistyaev,  Jaehoon Kim,  P. Klunzinger,  K. Koh,  
 D. Kosenkov,  L. Koulias,  T. Kowalczyk,  C. M. Krauter,  A. Kunitsa,  
 Ka Un Lao,  A. Laurent,  K. V. Lawler,  Joonho Lee,  D. Lefrancois,  
 S. Lehtola,  D. S. Levine,  Yi-Pei Li,  You-Sheng Lin,  Fenglai Liu,  
 E. Livshits,  A. Luenser,  P. Manohar,  E. Mansoor,  S. F. Manzer,  
 Shan-Ping Mao,  Yuezhi Mao,  N. Mardirossian,  A. V. Marenich,  
 T. Markovich,  L. A. Martinez-Martinez,  S. A. Maurer,  N. J. Mayhall,  
 S. C. McKenzie,  J.-M. Mewes,  P. Morgante,  A. F. Morrison,  
 J. W. Mullinax,  K. Nanda,  T. S. Nguyen-Beck,  R. Olivares-Amaya,  
 J. A. Parkhill,  Zheng Pei,  T. M. Perrine,  F. Plasser,  P. Pokhilko,  
 S. Prager,  A. Prociuk,  E. Ramos,  D. R. Rehn,  F. Rob,  M. Scheurer,  
 M. Schneider,  N. Sergueev,  S. M. Sharada,  S. Sharma,  D. W. Small,  
 T. Stauch,  T. Stein,  Yu-Chuan Su,  A. J. W. Thom,  A. Tkatchenko,  
 T. Tsuchimochi,  N. M. Tubman,  L. Vogt,  M. L. Vidal,  O. Vydrov,  
 M. A. Watson,  J. Wenzel,  M. de Wergifosse,  T. A. Wesolowski,  A. White,  
 J. Witte,  A. Yamada,  Jun Yang,  K. Yao,  S. Yeganeh,  S. R. Yost,  
 Zhi-Qiang You,  A. Zech,  Igor Ying Zhang,  Xing Zhang,  Yan Zhao,  
 Ying Zhu,  B. R. Brooks,  G. K. L. Chan,  C. J. Cramer,  M. S. Gordon,  
 W. J. Hehre,  A. Klamt,  M. W. Schmidt,  C. D. Sherrill,  D. G. Truhlar,  
 A. Aspuru-Guzik,  R. Baer,  A. T. Bell,  N. A. Besley,  Jeng-Da Chai,  
 A. E. DePrince, III,  R. A. DiStasio Jr.,  A. Dreuw,  B. D. Dunietz,  
 T. R. Furlani,  Chao-Ping Hsu,  Yousung Jung,  Jing Kong,  D. S. Lambrecht,  
 WanZhen Liang,  C. Ochsenfeld,  V. A. Rassolov,  L. V. Slipchenko,  
 J. E. Subotnik,  T. Van Voorhis,  J. M. Herbert,  A. I. Krylov,  
 P. M. W. Gill,  M. Head-Gordon

 Contributors to earlier versions of Q-Chem not listed above: 
 R. D. Adamson,  B. Austin,  J. Baker,  G. J. O. Beran,  K. Brandhorst,  
 S. T. Brown,  E. F. C. Byrd,  A. K. Chakraborty,  C.-L. Cheng,  
 Siu Hung Chien,  D. M. Chipman,  D. L. Crittenden,  H. Dachsel,  
 R. J. Doerksen,  A. D. Dutoi,  L. Fusti-Molnar,  W. A. Goddard III,  
 A. Golubeva-Zadorozhnaya,  S. R. Gwaltney,  G. Hawkins,  A. Heyden,  
 S. Hirata,  G. Kedziora,  F. J. Keil,  C. Kelley,  Jihan Kim,  R. A. King,  
 R. Z. Khaliullin,  P. P. Korambath,  W. Kurlancheek,  A. M. Lee,  M. S. Lee,  
 S. V. Levchenko,  Ching Yeh Lin,  D. Liotard,  R. C. Lochan,  I. Lotan,  
 P. E. Maslen,  N. Nair,  D. P. O'Neill,  D. Neuhauser,  E. Neuscamman,  
 C. M. Oana,  R. Olson,  B. Peters,  R. Peverati,  P. A. Pieniazek,  
 Y. M. Rhee,  J. Ritchie,  M. A. Rohrdanz,  E. Rosta,  N. J. Russ,  
 H. F. Schaefer III,  N. E. Schultz,  N. Shenvi,  A. C. Simmonett,  A. Sodt,  
 D. Stuck,  K. S. Thanthiriwatte,  V. Vanovschi,  Tao Wang,  A. Warshel,  
 C. F. Williams,  Q. Wu,  X. Xu,  W. Zhang

 Please cite Q-Chem as follows:
 Y. Shao et al., Mol. Phys. 113, 184-215 (2015)
 DOI: 10.1080/00268976.2014.952696

 Q-Chem 5.2.1 for Intel X86 EM64T Linux

 Parts of Q-Chem use Armadillo 8.300.2 (Tropical Shenanigans).
 http://arma.sourceforge.net/

 Q-Chem begins on Tue Sep 28 10:13:04 2021  

compute-0-1.local
Host: 0

     Scratch files written to /home/meili/scratch/qchem34749//
NAlpha2: 120
NElect   120
Mult     1
Symmetry turned off for PCM/SM12/SMD calculation

 Q-Chem warning in module libgen/rem_setup.C, line 2813:

 Neither GIA nor STOLL is specified by user. Use STOLL as the default


Checking the input file for inconsistencies... 	...done.

--------------------------------------------------------------
User input:
--------------------------------------------------------------
$comment
SSI-029TRP-315PHE-1.pdb
$end

$molecule
0 1
--
0 1
C   -0.375319874644   -0.897859358769   -5.360869185588
C    0.527680125356    1.133140641231   -2.329869185588
C   -0.238319874644    0.108140641231   -2.939869185588
C    0.158680125356    0.037140641231   -4.318869185588
C    1.116680125356    0.988140641231   -4.486869185588
C   -0.528319874644    0.764140641231   -0.240869185588
C    0.391680125356    1.469140641231   -0.991869185588
C   -1.301319874644   -0.255859358769   -0.812869185588
C   -1.166319874644   -0.590859358769   -2.157869185588
N    1.343680125356    1.648140641231   -3.301869185588
H   -0.636319874644    0.998140641231    0.809130814412
H    0.990680125356    2.252140641231   -0.554869185588
H   -2.014319874644   -0.789859358769   -0.196869185588
H   -1.765319874644   -1.372859358769   -2.599869185588
H    2.032680125356    2.381140641231   -3.170869185588
H    1.613680125356    1.202140641231   -5.422869185588
H   -0.133319874644   -0.494859358769   -6.345869185588
H   -1.463319874644   -0.919859358769   -5.272869185588
H    0.007574125356   -1.926349358769   -5.286019185588
--
0 1
C    1.913680125356    0.881140641231    3.923130814412
C   -0.635319874644   -1.666859358769    2.754130814412
C   -1.454319874644   -1.768859358769    3.867130814412
C    0.453680125356   -0.806859358769    2.773130814412
C    0.732680125356   -0.043859358769    3.903130814412
C   -1.184319874644   -1.012859358769    4.997130814412
C   -0.095319874644   -0.151859358769    5.015130814412
H   -0.872319874644   -2.214859358769    1.856130814412
H   -2.322319874644   -2.399859358769    3.837130814412
H    1.053680125356   -0.709859358769    1.881130814412
H   -1.787319874644   -1.123859358769    5.876130814412
H    1.793680125356    1.598140641231    4.737130814412
H    1.897680125356    1.440140641231    2.992130814412
H    0.112680125356    0.426140641231    5.905130814412
H    2.875166125356    0.362310641231    4.051040814412
$end

$rem
JOBTYPE			EDA
EDA2			1
method			wB97X-V
BASIS			def2-TZVPD
XC_GRID			000099000590
NL_GRID			1
UNRESTRICTED		FALSE
MAX_SCF_CYCLES		200
SYMMETRY		FALSE
SYM_IGNORE		TRUE
MEM_STATIC		2000
BASIS_LIN_DEP_THRESH 	6
THRESH 			14
SCF_CONVERGENCE 	8
SCF_PRINT_FRGM 		TRUE
SOLVENT_METHOD          SMD
$end

$SMX
SOLVENT			WATER
$END
--------------------------------------------------------------
 ----------------------------------------------------------------
             Standard Nuclear Orientation (Angstroms)
    I     Atom           X                Y                Z
 ----------------------------------------------------------------
    1      C      -0.3753198746    -0.8978593588    -5.3608691856
    2      C       0.5276801254     1.1331406412    -2.3298691856
    3      C      -0.2383198746     0.1081406412    -2.9398691856
    4      C       0.1586801254     0.0371406412    -4.3188691856
    5      C       1.1166801254     0.9881406412    -4.4868691856
    6      C      -0.5283198746     0.7641406412    -0.2408691856
    7      C       0.3916801254     1.4691406412    -0.9918691856
    8      C      -1.3013198746    -0.2558593588    -0.8128691856
    9      C      -1.1663198746    -0.5908593588    -2.1578691856
   10      N       1.3436801254     1.6481406412    -3.3018691856
   11      H      -0.6363198746     0.9981406412     0.8091308144
   12      H       0.9906801254     2.2521406412    -0.5548691856
   13      H      -2.0143198746    -0.7898593588    -0.1968691856
   14      H      -1.7653198746    -1.3728593588    -2.5998691856
   15      H       2.0326801254     2.3811406412    -3.1708691856
   16      H       1.6136801254     1.2021406412    -5.4228691856
   17      H      -0.1333198746    -0.4948593588    -6.3458691856
   18      H      -1.4633198746    -0.9198593588    -5.2728691856
   19      H       0.0075741254    -1.9263493588    -5.2860191856
   20      C       1.9136801254     0.8811406412     3.9231308144
   21      C      -0.6353198746    -1.6668593588     2.7541308144
   22      C      -1.4543198746    -1.7688593588     3.8671308144
   23      C       0.4536801254    -0.8068593588     2.7731308144
   24      C       0.7326801254    -0.0438593588     3.9031308144
   25      C      -1.1843198746    -1.0128593588     4.9971308144
   26      C      -0.0953198746    -0.1518593588     5.0151308144
   27      H      -0.8723198746    -2.2148593588     1.8561308144
   28      H      -2.3223198746    -2.3998593588     3.8371308144
   29      H       1.0536801254    -0.7098593588     1.8811308144
   30      H      -1.7873198746    -1.1238593588     5.8761308144
   31      H       1.7936801254     1.5981406412     4.7371308144
   32      H       1.8976801254     1.4401406412     2.9921308144
   33      H       0.1126801254     0.4261406412     5.9051308144
   34      H       2.8751661254     0.3623106412     4.0510408144
 ----------------------------------------------------------------
 Nuclear Repulsion Energy =        1039.06070511 hartrees
 There are       60 alpha and       60 beta electrons
 Requested basis set is def2-TZVPD
 There are 306 shells and 782 basis functions

 Total QAlloc Memory Limit   2000 MB
 Mega-Array Size      1956 MB
 MEM_STATIC part      2000 MB

 Citation of the SMD model:
 Marenich, A.V.; Cramer, C.J.; Truhlar, D.G.
 J. Phys. Chem. B 2009, 113, 6378-6396.
 iSolventCode=           1
 Solvent: water                                                           

 vradii
            1           2           3           4           5           6
    1   1.8500000   1.8500000   1.8500000   1.8500000   1.8500000   1.8500000
            7           8           9          10          11          12
    1   1.8500000   1.8500000   1.8500000   1.8900000   1.2000000   1.2000000
           13          14          15          16          17          18
    1   1.2000000   1.2000000   1.2000000   1.2000000   1.2000000   1.2000000
           19          20          21          22          23          24
    1   1.2000000   1.8500000   1.8500000   1.8500000   1.8500000   1.8500000
           25          26          27          28          29          30
    1   1.8500000   1.8500000   1.2000000   1.2000000   1.2000000   1.2000000
           31          32          33          34
    1   1.2000000   1.2000000   1.2000000   1.2000000
 Changing PCM_VDW_RADII to SMD_RADIUS
 Discretize the solute cavity surface with Lebedev spheres
	Using 110 Lebedev grid points for each H atom
	Using 194 Lebedev grid points for other atoms
	Atomic van der Waals radii will be scaled by 1.20
 Remove points where switching function is < 1.0e-08
 Keep 2442 surface tesserae and discard 2726 interior tesserae
 Molecular Surface Area = 293.863 Angst**2
 A cutoff of  1.0D-14 yielded  37118 shell pairs
 There are    242178 function pairs (    306712 Cartesian)
 Smallest overlap matrix eigenvalue = 4.21E-07
 Linear dependence detected in AO basis
 Tighter screening thresholds may be required for diffuse basis sets
 Use S2THRESH > 14 and THRESH = 14 in case of SCF convergence issues
 Number of orthogonalized atomic orbitals = 777
 Maximum deviation from orthogonality = 1.605E-10

 Scale SEOQF with 1.000000e-01/1.000000e-01/1.000000e-02

 Standard Electronic Orientation quadrupole field applied
 Nucleus-field energy     =    -0.0000000014 hartrees

 -----------------------------------------------------------------------
  General SCF calculation program by
  Eric Jon Sundstrom, Paul Horn, Yuezhi Mao, Dmitri Zuev, Alec White,
  David Stuck, Shaama M.S., Shane Yost, Joonho Lee, David Small,
  Daniel Levine, Susi Lehtola, Hugh Burton, Evgeny Epifanovsky,
  Bang C. Huynh
 -----------------------------------------------------------------------
================================================================
                 ALMO-EDA with the EDA2 driver                  
================================================================
 The second-generation ALMO-EDA (for DFT):                      
 P. R. Horn, Y. Mao and M. Head-Gordon, PCCP, 18, 23067 (2016)  
 Decomposition of the frozen energy:                            
 P. R. Horn, Y. Mao and M. Head-Gordon, JCP, 144, 114107 (2016) 
 FERF model for polarization:                                   
 P. R. Horn and M. Head-Gordon, JCP, 143, 114111 (2015)         
Using eda2 option set 1
Option set summary: Frozen orbital wavefunction, initial wavefunction decomposition, and nDQ polarization.
--------------------------------
Printing EDA Options
--------------------------------
eda_child_super_basis      0
fragmo_guess_mode          0
child_mp                   1
child_mp_orders            232
cls_elec                   1
cls_disp                   0
scfmi_mode                 1
scfmi_occs                 0
scfmi_virts                0
frz_relax                  0
frz_relax_method           0
dc_pen_start               0
dc_pen_conv                0
dc_pen_increment           0
dc_pen_steps               0
dc_pen_thresh_factor       0
dc_pen_pre_newton_thresh   0
frz_ortho_decomp           1
frz_ortho_decomp_conv      6
frgm_method                2
scfmi_freeze_ss            0
separate_rehyb             0
plot_diff_den              0
eda_nocv                   0
eda_vct_relax              1
disp_free_x                0
disp_free_c                0
eda_bsse                   0
eda_pct_a                  0
eda_covp                   0
--------------------------------
Attempting to make child job directory: /home/meili/scratch/qchem34749//Frg1/
Attempting to make child job directory: /home/meili/scratch/qchem34749//Frg2/
Creating input file /home/meili/scratch/qchem34749/Frg1.input
using default PutDataFrgm: nothing
calling putenv with: QCSCRATCH=/home/meili/scratch/qchem34749/ 
Spawning Job For Fragment 0
                  Welcome to Q-Chem
     A Quantum Leap Into The Future Of Chemistry


 Q-Chem 5.2 (devel), Q-Chem, Inc., Pleasanton, CA (2019)

 Yihan Shao,  Zhengting Gan,  E. Epifanovsky,  A. T. B. Gilbert,  M. Wormit,  
 J. Kussmann,  A. W. Lange,  A. Behn,  Jia Deng,  Xintian Feng,  D. Ghosh,  
 M. Goldey,  P. R. Horn,  L. D. Jacobson,  I. Kaliman,  T. Kus,  A. Landau,  
 Jie Liu,  E. I. Proynov,  R. M. Richard,  R. P. Steele,  E. J. Sundstrom,  
 H. L. Woodcock III,  P. M. Zimmerman,  D. Zuev,  B. Albrecht,  E. Alguire,  
 S. A. Baeppler,  D. Barton,  Z. Benda,  Y. A. Bernard,  E. J. Berquist,  
 K. B. Bravaya,  H. Burton,  D. Casanova,  Chun-Min Chang,  Yunqing Chen,  
 A. Chien,  K. D. Closser,  M. P. Coons,  S. Coriani,  S. Dasgupta,  
 A. L. Dempwolff,  M. Diedenhofen,  Hainam Do,  R. G. Edgar,  Po-Tung Fang,  
 S. Faraji,  S. Fatehi,  Qingguo Feng,  K. D. Fenk,  J. Fosso-Tande,  
 J. Gayvert,  Qinghui Ge,  A. Ghysels,  G. Gidofalvi,  J. Gomes,  
 J. Gonthier,  A. Gunina,  D. Hait,  M. W. D. Hanson-Heine,  
 P. H. P. Harbach,  A. W. Hauser,  M. F. Herbst,  J. E. Herr,  
 E. G. Hohenstein,  Z. C. Holden,  Kerwin Hui,  B. C. Huynh,  T.-C. Jagau,  
 Hyunjun Ji,  B. Kaduk,  K. Khistyaev,  Jaehoon Kim,  P. Klunzinger,  K. Koh,  
 D. Kosenkov,  L. Koulias,  T. Kowalczyk,  C. M. Krauter,  A. Kunitsa,  
 Ka Un Lao,  A. Laurent,  K. V. Lawler,  Joonho Lee,  D. Lefrancois,  
 S. Lehtola,  D. S. Levine,  Yi-Pei Li,  You-Sheng Lin,  Fenglai Liu,  
 E. Livshits,  A. Luenser,  P. Manohar,  E. Mansoor,  S. F. Manzer,  
 Shan-Ping Mao,  Yuezhi Mao,  N. Mardirossian,  A. V. Marenich,  
 T. Markovich,  L. A. Martinez-Martinez,  S. A. Maurer,  N. J. Mayhall,  
 S. C. McKenzie,  J.-M. Mewes,  P. Morgante,  A. F. Morrison,  
 J. W. Mullinax,  K. Nanda,  T. S. Nguyen-Beck,  R. Olivares-Amaya,  
 J. A. Parkhill,  Zheng Pei,  T. M. Perrine,  F. Plasser,  P. Pokhilko,  
 S. Prager,  A. Prociuk,  E. Ramos,  D. R. Rehn,  F. Rob,  M. Scheurer,  
 M. Schneider,  N. Sergueev,  S. M. Sharada,  S. Sharma,  D. W. Small,  
 T. Stauch,  T. Stein,  Yu-Chuan Su,  A. J. W. Thom,  A. Tkatchenko,  
 T. Tsuchimochi,  N. M. Tubman,  L. Vogt,  M. L. Vidal,  O. Vydrov,  
 M. A. Watson,  J. Wenzel,  M. de Wergifosse,  T. A. Wesolowski,  A. White,  
 J. Witte,  A. Yamada,  Jun Yang,  K. Yao,  S. Yeganeh,  S. R. Yost,  
 Zhi-Qiang You,  A. Zech,  Igor Ying Zhang,  Xing Zhang,  Yan Zhao,  
 Ying Zhu,  B. R. Brooks,  G. K. L. Chan,  C. J. Cramer,  M. S. Gordon,  
 W. J. Hehre,  A. Klamt,  M. W. Schmidt,  C. D. Sherrill,  D. G. Truhlar,  
 A. Aspuru-Guzik,  R. Baer,  A. T. Bell,  N. A. Besley,  Jeng-Da Chai,  
 A. E. DePrince, III,  R. A. DiStasio Jr.,  A. Dreuw,  B. D. Dunietz,  
 T. R. Furlani,  Chao-Ping Hsu,  Yousung Jung,  Jing Kong,  D. S. Lambrecht,  
 WanZhen Liang,  C. Ochsenfeld,  V. A. Rassolov,  L. V. Slipchenko,  
 J. E. Subotnik,  T. Van Voorhis,  J. M. Herbert,  A. I. Krylov,  
 P. M. W. Gill,  M. Head-Gordon

 Contributors to earlier versions of Q-Chem not listed above: 
 R. D. Adamson,  B. Austin,  J. Baker,  G. J. O. Beran,  K. Brandhorst,  
 S. T. Brown,  E. F. C. Byrd,  A. K. Chakraborty,  C.-L. Cheng,  
 Siu Hung Chien,  D. M. Chipman,  D. L. Crittenden,  H. Dachsel,  
 R. J. Doerksen,  A. D. Dutoi,  L. Fusti-Molnar,  W. A. Goddard III,  
 A. Golubeva-Zadorozhnaya,  S. R. Gwaltney,  G. Hawkins,  A. Heyden,  
 S. Hirata,  G. Kedziora,  F. J. Keil,  C. Kelley,  Jihan Kim,  R. A. King,  
 R. Z. Khaliullin,  P. P. Korambath,  W. Kurlancheek,  A. M. Lee,  M. S. Lee,  
 S. V. Levchenko,  Ching Yeh Lin,  D. Liotard,  R. C. Lochan,  I. Lotan,  
 P. E. Maslen,  N. Nair,  D. P. O'Neill,  D. Neuhauser,  E. Neuscamman,  
 C. M. Oana,  R. Olson,  B. Peters,  R. Peverati,  P. A. Pieniazek,  
 Y. M. Rhee,  J. Ritchie,  M. A. Rohrdanz,  E. Rosta,  N. J. Russ,  
 H. F. Schaefer III,  N. E. Schultz,  N. Shenvi,  A. C. Simmonett,  A. Sodt,  
 D. Stuck,  K. S. Thanthiriwatte,  V. Vanovschi,  Tao Wang,  A. Warshel,  
 C. F. Williams,  Q. Wu,  X. Xu,  W. Zhang

 Please cite Q-Chem as follows:
 Y. Shao et al., Mol. Phys. 113, 184-215 (2015)
 DOI: 10.1080/00268976.2014.952696

 Q-Chem 5.2.1 for Intel X86 EM64T Linux

 Parts of Q-Chem use Armadillo 8.300.2 (Tropical Shenanigans).
 http://arma.sourceforge.net/

 Q-Chem begins on Tue Sep 28 10:15:16 2021  

compute-0-1.local
Host: 0

     Scratch files written to /home/meili/scratch/qchem34749//Frg1//
NAlpha2: 70
NElect   70
Mult     1
Symmetry turned off for PCM/SM12/SMD calculation

Checking the input file for inconsistencies... 	...done.

--------------------------------------------------------------
User input:
--------------------------------------------------------------
$molecule
0 1
 6	-0.3753198746	-0.8978593588	-5.3608691856
 6	0.5276801254	1.1331406412	-2.3298691856
 6	-0.2383198746	0.1081406412	-2.9398691856
 6	0.1586801254	0.0371406412	-4.3188691856
 6	1.1166801254	0.9881406412	-4.4868691856
 6	-0.5283198746	0.7641406412	-0.2408691856
 6	0.3916801254	1.4691406412	-0.9918691856
 6	-1.3013198746	-0.2558593588	-0.8128691856
 6	-1.1663198746	-0.5908593588	-2.1578691856
 7	1.3436801254	1.6481406412	-3.3018691856
 1	-0.6363198746	0.9981406412	0.8091308144
 1	0.9906801254	2.2521406412	-0.5548691856
 1	-2.0143198746	-0.7898593588	-0.1968691856
 1	-1.7653198746	-1.3728593588	-2.5998691856
 1	2.0326801254	2.3811406412	-3.1708691856
 1	1.6136801254	1.2021406412	-5.4228691856
 1	-0.1333198746	-0.4948593588	-6.3458691856
 1	-1.4633198746	-0.9198593588	-5.2728691856
 1	0.0075741254	-1.9263493588	-5.2860191856
$end
$rem
EDA2		1
METHOD		WB97X-V
BASIS		DEF2-TZVPD
XC_GRID		000099000590
NL_GRID		1
UNRESTRICTED		FALSE
MAX_SCF_CYCLES		200
SYMMETRY		FALSE
SYM_IGNORE		TRUE
BASIS_LIN_DEP_THRESH		6
THRESH		14
SCF_CONVERGENCE		8
SCF_PRINT_FRGM		TRUE
SOLVENT_METHOD		SMD
!required keywords
JOBTYPE		SP
SYM_IGNORE		TRUE
SUBSYSTEM		TRUE
GEN_SCFMAN		TRUE
CHILD_INSTRUCTION		2
SYM_IGNORE		TRUE
SCFMI		0
RI_K 0		
PARI_K 0		
MIN_PARI_K 0		
IARI_K 0		
OCC_RI_K 0		
PURECART		1111
MEM_STATIC		2000
MEM_TOTAL		2000
GUI		0
CHILD_MP		1
CHILD_MP_ORDERS		232
FRZ_RELAX		0
FRZ_RELAX_METHOD		0
EDA_CLS_ELEC		1
EDA_CLS_DISP		0
FRZ_ORTHO_DECOMP		1
EDA2		FALSE
FRGM_METHOD		FALSE
CIS_N_ROOTS  0
LOCAL_CIS    0
CIS_RLX_DNS  1
$end
$smx
SOLVENT			WATER
$end
--------------------------------------------------------------
 ----------------------------------------------------------------
             Standard Nuclear Orientation (Angstroms)
    I     Atom           X                Y                Z
 ----------------------------------------------------------------
    1      C      -0.3753198746    -0.8978593588    -5.3608691856
    2      C       0.5276801254     1.1331406412    -2.3298691856
    3      C      -0.2383198746     0.1081406412    -2.9398691856
    4      C       0.1586801254     0.0371406412    -4.3188691856
    5      C       1.1166801254     0.9881406412    -4.4868691856
    6      C      -0.5283198746     0.7641406412    -0.2408691856
    7      C       0.3916801254     1.4691406412    -0.9918691856
    8      C      -1.3013198746    -0.2558593588    -0.8128691856
    9      C      -1.1663198746    -0.5908593588    -2.1578691856
   10      N       1.3436801254     1.6481406412    -3.3018691856
   11      H      -0.6363198746     0.9981406412     0.8091308144
   12      H       0.9906801254     2.2521406412    -0.5548691856
   13      H      -2.0143198746    -0.7898593588    -0.1968691856
   14      H      -1.7653198746    -1.3728593588    -2.5998691856
   15      H       2.0326801254     2.3811406412    -3.1708691856
   16      H       1.6136801254     1.2021406412    -5.4228691856
   17      H      -0.1333198746    -0.4948593588    -6.3458691856
   18      H      -1.4633198746    -0.9198593588    -5.2728691856
   19      H       0.0075741254    -1.9263493588    -5.2860191856
 ----------------------------------------------------------------
 Nuclear Repulsion Energy =         485.18349136 hartrees
 There are       35 alpha and       35 beta electrons
 Requested basis set is def2-TZVPD
 There are 175 shells and 451 basis functions

 Total QAlloc Memory Limit   2000 MB
 Mega-Array Size      1956 MB
 MEM_STATIC part      2000 MB

 Citation of the SMD model:
 Marenich, A.V.; Cramer, C.J.; Truhlar, D.G.
 J. Phys. Chem. B 2009, 113, 6378-6396.
 iSolventCode=           1
 Solvent: water                                                           

 vradii
            1           2           3           4           5           6
    1   1.8500000   1.8500000   1.8500000   1.8500000   1.8500000   1.8500000
            7           8           9          10          11          12
    1   1.8500000   1.8500000   1.8500000   1.8900000   1.2000000   1.2000000
           13          14          15          16          17          18
    1   1.2000000   1.2000000   1.2000000   1.2000000   1.2000000   1.2000000
           19
    1   1.2000000
 Changing PCM_VDW_RADII to SMD_RADIUS
 Discretize the solute cavity surface with Lebedev spheres
	Using 110 Lebedev grid points for each H atom
	Using 194 Lebedev grid points for other atoms
	Atomic van der Waals radii will be scaled by 1.20
 Remove points where switching function is < 1.0e-08
 Keep 1365 surface tesserae and discard 1565 interior tesserae
 Molecular Surface Area = 164.773 Angst**2
 A cutoff of  1.0D-14 yielded  14469 shell pairs
 There are     98241 function pairs (    126414 Cartesian)
 Smallest overlap matrix eigenvalue = 4.98E-07
 Linear dependence detected in AO basis
 Tighter screening thresholds may be required for diffuse basis sets
 Use S2THRESH > 14 and THRESH = 14 in case of SCF convergence issues
 Number of orthogonalized atomic orbitals = 448
 Maximum deviation from orthogonality = 1.443E-10

 Scale SEOQF with 1.000000e-01/1.000000e-01/1.000000e-02

 Standard Electronic Orientation quadrupole field applied
 Nucleus-field energy     =    -0.0000000003 hartrees
 Guess from superposition of atomic densities
 Warning:  Energy on first SCF cycle will be non-variational
 SAD guess density has 70.000000 electrons

 -----------------------------------------------------------------------
  General SCF calculation program by
  Eric Jon Sundstrom, Paul Horn, Yuezhi Mao, Dmitri Zuev, Alec White,
  David Stuck, Shaama M.S., Shane Yost, Joonho Lee, David Small,
  Daniel Levine, Susi Lehtola, Hugh Burton, Evgeny Epifanovsky,
  Bang C. Huynh
 -----------------------------------------------------------------------
 Exchange:     0.1670 Hartree-Fock + 1.0000 wB97X-V + LR-HF
 Correlation:  1.0000 wB97X-V
 Using Euler-Maclaurin-Lebedev (99,590) quadrature formula
 Nonlocal Correlation:  VV10 with C = 0.0100 and b = 6.00 and scale = 1.00000
 Grid used for NLC:  SG-1 standard quadrature
Energy prior to optimization (guess energy) = -403.082181069894
Begin Timing: Total SCF Calculation
begin iterations for algorithm: DIIS         
the SCF tolerance is set to 1.00e-08
    1    -403.0821810699      1.67e-03     00000 
    2    -403.1349628999      1.21e-03     00000 
    3    -403.1754030711      2.50e-04     00000 
    4    -403.1772850894      1.18e-04     00000 
    5    -403.1777371306      3.90e-05     00000 
    6    -403.1777851179      1.22e-05     00000 
    7    -403.1777895792      4.25e-06     00000 
    8    -403.1777904901      9.52e-07     00000 
    9    -403.1777905826      4.30e-07     00000 
   10    -403.1777906019      2.16e-07     00000 
   11    -403.1777906077      6.97e-08     00000 
   12    -403.1777906086      3.03e-08     00000 
   13    -403.1777906086      1.08e-08     00000 
   14    -403.1777906087      3.52e-09     00000 Convergence criterion met
Timing for Total SCF: 1563.00s (wall), 9790.69s (cpu)
(3)  G-ENP(liq) elect-nuc-pol free energy of system     -403.177790609 a.u.
(4)  G-CDS(liq) cavity-dispersion-solvent structure 
     free energy                                                3.8009 kcal/mol
(6)  G-S(liq) free energy of system                     -403.171733452 a.u.
E_pcm = -0.0161400538
E_cds = 0.0060571568
Multipole orders to be included
        2
        3
computing dipole RHS
computing quadrupole RHS
total number of RHS in solve_reponses: 8
RHS batch sizes
        8
Beginning Block Conjugate Gradient Iterations. Batch Number: 0
computing hessian-vector products by finite difference
              1      6.26e-01     00000 Conjugate Gradient Iteration
computing hessian-vector products by finite difference
              2      1.98e-01     00000 Conjugate Gradient Iteration
computing hessian-vector products by finite difference
              3      5.85e-02     00000 Conjugate Gradient Iteration
computing hessian-vector products by finite difference
              4      2.15e-02     00000 Conjugate Gradient Iteration
computing hessian-vector products by finite difference
              5      7.71e-03     00000 Conjugate Gradient Iteration
computing hessian-vector products by finite difference
              6      2.28e-03     00000 Conjugate Gradient Iteration
computing hessian-vector products by finite difference
              7      5.38e-04     00000 Conjugate Gradient Iteration
computing hessian-vector products by finite difference
              8      1.08e-04     00000 Conjugate Gradient Iteration
computing hessian-vector products by finite difference
              9      2.01e-05     00000 Conjugate Gradient Iteration
computing hessian-vector products by finite difference
             10      3.58e-06     00000 Conjugate Gradient Iteration
computing hessian-vector products by finite difference
             11      6.26e-07     00000 Conjugate Gradient Iteration
computing hessian-vector products by finite difference
             12      1.08e-07     00000 Conjugate Gradient Iteration
computing hessian-vector products by finite difference
             13      1.61e-08     00000 Conjugate Gradient Iteration
computing hessian-vector products by finite difference
             14      2.45e-09     00000 CG Converged
batch 0 complete
Done Calculating Responses
TESTING ORTHOGONALIZATION OF MULTIPOLE BASIS
Multipole virts passed orthogonality test
Virts Per Order
          105
          175

 --------------------------------------------------------------

                    Orbital Energies (a.u.)
 --------------------------------------------------------------

 Alpha MOs
 -- Occupied --
-14.4427 -10.2977 -10.2900 -10.2673 -10.2664 -10.2641 -10.2630 -10.2611
-10.2573 -10.2549  -1.1112  -0.9769  -0.9275  -0.8656  -0.8578  -0.8115
 -0.7419  -0.7101  -0.6728  -0.6456  -0.5948  -0.5787  -0.5517  -0.5455
 -0.5342  -0.5105  -0.5067  -0.4889  -0.4761  -0.4511  -0.4476  -0.4281
 -0.3765  -0.3140  -0.2895
 -- Virtual --
  0.0569   0.0643   0.0798   0.0824   0.0933   0.1021   0.1039   0.1108
  0.1322   0.1380   0.1404   0.1514   0.1606   0.1683   0.1775   0.1819
  0.1914   0.1982   0.2056   0.2121   0.2141   0.2238   0.2298   0.2501
  0.2530   0.2585   0.2640   0.2668   0.2703   0.2780   0.2800   0.2812
  0.2848   0.2896   0.2927   0.2937   0.3060   0.3146   0.3177   0.3232
  0.3320   0.3360   0.3387   0.3410   0.3460   0.3485   0.3532   0.3549
  0.3591   0.3641   0.3753   0.3797   0.3818   0.3908   0.3933   0.3969
  0.4049   0.4119   0.4146   0.4178   0.4223   0.4238   0.4305   0.4408
  0.4424   0.4531   0.4563   0.4590   0.4595   0.4654   0.4693   0.4751
  0.4895   0.4964   0.4976   0.5010   0.5049   0.5170   0.5249   0.5266
  0.5310   0.5422   0.5451   0.5502   0.5531   0.5560   0.5617   0.5677
  0.5729   0.5821   0.5872   0.5929   0.6072   0.6130   0.6172   0.6273
  0.6383   0.6448   0.6477   0.6528   0.6600   0.6668   0.6805   0.6872
  0.6920   0.6982   0.7014   0.7060   0.7106   0.7188   0.7273   0.7345
  0.7436   0.7500   0.7531   0.7621   0.7674   0.7736   0.7757   0.7793
  0.7851   0.7855   0.7890   0.7930   0.7995   0.8072   0.8127   0.8148
  0.8226   0.8306   0.8360   0.8399   0.8436   0.8511   0.8547   0.8605
  0.8654   0.8710   0.8808   0.8989   0.9045   0.9120   0.9198   0.9427
  0.9500   0.9530   0.9711   0.9912   0.9946   1.0107   1.0169   1.0204
  1.0406   1.0463   1.0592   1.0651   1.0758   1.0851   1.0979   1.1004
  1.1193   1.1364   1.1413   1.1501   1.1718   1.1902   1.2044   1.2181
  1.2483   1.2595   1.2683   1.2739   1.2982   1.3167   1.3346   1.3471
  1.3822   1.3974   1.3998   1.4135   1.4305   1.4491   1.4553   1.4815
  1.5211   1.5407   1.5628   1.5716   1.5860   1.6062   1.6180   1.6253
  1.6484   1.6617   1.6991   1.7067   1.7239   1.7311   1.7509   1.7676
  1.7952   1.8244   1.8487   1.8540   1.8663   1.8715   1.8847   1.8919
  1.9053   1.9245   1.9348   1.9449   1.9579   1.9714   1.9803   1.9954
  2.0015   2.0032   2.0052   2.0287   2.0376   2.0663   2.0704   2.0812
  2.0959   2.1243   2.1380   2.1749   2.1877   2.1962   2.2114   2.2270
  2.2584   2.2971   2.3068   2.3189   2.3340   2.3520   2.3672   2.3945
  2.4054   2.4308   2.4479   2.4645   2.4949   2.5095   2.5160   2.5380
  2.5704   2.5839   2.6028   2.6122   2.6303   2.6521   2.6677   2.6865
  2.6923   2.7285   2.7598   2.7663   2.7756   2.7850   2.7926   2.8096
  2.8251   2.8343   2.8569   2.8639   2.8867   2.8969   2.9039   2.9183
  2.9258   2.9479   2.9651   2.9759   2.9927   3.0103   3.0327   3.0412
  3.0485   3.0695   3.0792   3.1057   3.1240   3.1313   3.1422   3.1610
  3.1705   3.1879   3.2127   3.2223   3.2395   3.2487   3.2679   3.2779
  3.2913   3.3049   3.3146   3.3257   3.3530   3.3651   3.3799   3.3928
  3.4037   3.4214   3.4298   3.4455   3.4500   3.4600   3.4771   3.4852
  3.4898   3.5086   3.5185   3.5216   3.5268   3.5440   3.5552   3.5781
  3.5894   3.5983   3.6165   3.6349   3.6437   3.6625   3.6671   3.6780
  3.7122   3.7185   3.7232   3.7330   3.7608   3.7689   3.7768   3.7932
  3.8211   3.8647   3.8866   3.9160   3.9383   3.9495   3.9743   4.0368
  4.0501   4.0653   4.1214   4.1512   4.1834   4.1958   4.2185   4.2327
  4.2566   4.2790   4.2850   4.2998   4.3219   4.3577   4.3683   4.3783
  4.4124   4.4229   4.4400   4.4675   4.4904   4.5221   4.5499   4.6170
  4.6459   4.6513   4.6695   4.7580   4.7791   4.8218   4.8400   4.9308
  4.9416   4.9653   4.9855   4.9968   5.0070   5.0691   5.0744   5.1205
  5.1354   5.1578   5.2068   5.2258   5.2735   5.3957   5.4141   5.4559
  5.5029   5.5627   5.6001   5.6466   5.7132   5.8190   5.8299   5.9616
  5.9756   6.2865   6.3517  22.6519  22.7545  22.9339  22.9577  22.9864
 23.2064  23.2707  23.4670  23.8035  32.8466
 --------------------------------------------------------------

          Ground-State Mulliken Net Atomic Charges

     Atom                 Charge (a.u.)
  ----------------------------------------
      1 C                    -1.049318
      2 C                    -0.046433
      3 C                     0.373277
      4 C                     0.683470
      5 C                    -0.736179
      6 C                    -0.476127
      7 C                    -0.723160
      8 C                    -0.665179
      9 C                    -0.514772
     10 N                     0.132299
     11 H                     0.406317
     12 H                     0.420424
     13 H                     0.412818
     14 H                     0.428270
     15 H                     0.216221
     16 H                     0.317204
     17 H                     0.296649
     18 H                     0.281917
     19 H                     0.242302
  ----------------------------------------
  Sum of atomic charges =     0.000000

 -----------------------------------------------------------------
                    Cartesian Multipole Moments
 -----------------------------------------------------------------
    Charge (ESU x 10^10)
                 0.0000
    Dipole Moment (Debye)
         X       2.1277      Y       1.7465      Z      -1.2656
       Tot       3.0297
    Quadrupole Moments (Debye-Ang)
        XX     -55.2946     XY      10.0628     YY     -53.4488
        XZ      -8.3080     YZ      -4.0343     ZZ     -46.4069
    Octopole Moments (Debye-Ang^2)
       XXX      15.5518    XXY     -13.9219    XYY      20.4555
       YYY     -57.4566    XXZ     147.3244    XYZ     -28.2010
       YYZ     145.7259    XZZ      34.5037    YZZ      -6.3900
       ZZZ     408.0686
    Hexadecapole Moments (Debye-Ang^3)
      XXXX    -345.6212   XXXY     -70.2350   XXYY     -92.3935
      XYYY     -62.7975   YYYY    -394.1535   XXXZ      51.6773
      XXYZ      -5.1449   XYYZ     -24.0488   YYYZ      79.5767
      XXZZ    -629.4606   XYZZ      62.1426   YYZZ    -650.5822
      XZZZ     -78.4896   YZZZ      31.2432   ZZZZ   -3328.3203
 -----------------------------------------------------------------
Archival summary:
1\1\compute-0-1.local\SP\ProcedureUnspecified\BasisUnspecified\199\meili\TueSep2818:24:052021TueSep2818:24:052021\0\\#,ProcedureUnspecified,BasisUnspecified,\\0,1\C\C,1,1.40047\H,2,1.07967,1,120.036\C,2,1.39265,1,118.911,3,-179.796,0\H,4,1.08304,2,119.638,1,-179.905,0\C,4,1.40182,2,121.041,1,0.122914,0\H,6,1.08117,4,119.912,2,-178.989,0\C,6,1.3811,4,121.123,2,-0.015983,0\H,8,1.07836,6,121.353,4,-179.785,0\C,8,1.38623,6,117.806,4,-0.126262,0\N,10,1.36962,8,130.716,6,-179.98,0\H,11,1.01448,10,125.78,8,2.00731,0\C,11,1.37527,10,109.433,8,-179.843,0\H,13,1.08116,11,125.107,10,179.027,0\C,13,1.36029,11,110.202,10,-0.0260209,0\C,15,1.49838,13,126.967,11,-179.94,0\H,16,1.09142,15,108.553,13,-18.7883,0\H,16,1.09177,15,108.16,13,-135.173,0\H,16,1.1,15,114.335,13,103.434,0\\\@

 Total job time:  29328.88s(wall), 181732.35s(cpu) 
 Tue Sep 28 18:24:05 2021

        *************************************************************
        *                                                           *
        *  Thank you very much for using Q-Chem.  Have a nice day.  *
        *                                                           *
        *************************************************************


Done Job For Fragment 0
calling putenv with: QCSCRATCH=/home/meili/scratch 
calling putenv with: QCTHREADS=8 
Creating input file /home/meili/scratch/qchem34749/Frg2.input
using default PutDataFrgm: nothing
calling putenv with: QCSCRATCH=/home/meili/scratch/qchem34749/ 
Spawning Job For Fragment 1
                  Welcome to Q-Chem
     A Quantum Leap Into The Future Of Chemistry


 Q-Chem 5.2 (devel), Q-Chem, Inc., Pleasanton, CA (2019)

 Yihan Shao,  Zhengting Gan,  E. Epifanovsky,  A. T. B. Gilbert,  M. Wormit,  
 J. Kussmann,  A. W. Lange,  A. Behn,  Jia Deng,  Xintian Feng,  D. Ghosh,  
 M. Goldey,  P. R. Horn,  L. D. Jacobson,  I. Kaliman,  T. Kus,  A. Landau,  
 Jie Liu,  E. I. Proynov,  R. M. Richard,  R. P. Steele,  E. J. Sundstrom,  
 H. L. Woodcock III,  P. M. Zimmerman,  D. Zuev,  B. Albrecht,  E. Alguire,  
 S. A. Baeppler,  D. Barton,  Z. Benda,  Y. A. Bernard,  E. J. Berquist,  
 K. B. Bravaya,  H. Burton,  D. Casanova,  Chun-Min Chang,  Yunqing Chen,  
 A. Chien,  K. D. Closser,  M. P. Coons,  S. Coriani,  S. Dasgupta,  
 A. L. Dempwolff,  M. Diedenhofen,  Hainam Do,  R. G. Edgar,  Po-Tung Fang,  
 S. Faraji,  S. Fatehi,  Qingguo Feng,  K. D. Fenk,  J. Fosso-Tande,  
 J. Gayvert,  Qinghui Ge,  A. Ghysels,  G. Gidofalvi,  J. Gomes,  
 J. Gonthier,  A. Gunina,  D. Hait,  M. W. D. Hanson-Heine,  
 P. H. P. Harbach,  A. W. Hauser,  M. F. Herbst,  J. E. Herr,  
 E. G. Hohenstein,  Z. C. Holden,  Kerwin Hui,  B. C. Huynh,  T.-C. Jagau,  
 Hyunjun Ji,  B. Kaduk,  K. Khistyaev,  Jaehoon Kim,  P. Klunzinger,  K. Koh,  
 D. Kosenkov,  L. Koulias,  T. Kowalczyk,  C. M. Krauter,  A. Kunitsa,  
 Ka Un Lao,  A. Laurent,  K. V. Lawler,  Joonho Lee,  D. Lefrancois,  
 S. Lehtola,  D. S. Levine,  Yi-Pei Li,  You-Sheng Lin,  Fenglai Liu,  
 E. Livshits,  A. Luenser,  P. Manohar,  E. Mansoor,  S. F. Manzer,  
 Shan-Ping Mao,  Yuezhi Mao,  N. Mardirossian,  A. V. Marenich,  
 T. Markovich,  L. A. Martinez-Martinez,  S. A. Maurer,  N. J. Mayhall,  
 S. C. McKenzie,  J.-M. Mewes,  P. Morgante,  A. F. Morrison,  
 J. W. Mullinax,  K. Nanda,  T. S. Nguyen-Beck,  R. Olivares-Amaya,  
 J. A. Parkhill,  Zheng Pei,  T. M. Perrine,  F. Plasser,  P. Pokhilko,  
 S. Prager,  A. Prociuk,  E. Ramos,  D. R. Rehn,  F. Rob,  M. Scheurer,  
 M. Schneider,  N. Sergueev,  S. M. Sharada,  S. Sharma,  D. W. Small,  
 T. Stauch,  T. Stein,  Yu-Chuan Su,  A. J. W. Thom,  A. Tkatchenko,  
 T. Tsuchimochi,  N. M. Tubman,  L. Vogt,  M. L. Vidal,  O. Vydrov,  
 M. A. Watson,  J. Wenzel,  M. de Wergifosse,  T. A. Wesolowski,  A. White,  
 J. Witte,  A. Yamada,  Jun Yang,  K. Yao,  S. Yeganeh,  S. R. Yost,  
 Zhi-Qiang You,  A. Zech,  Igor Ying Zhang,  Xing Zhang,  Yan Zhao,  
 Ying Zhu,  B. R. Brooks,  G. K. L. Chan,  C. J. Cramer,  M. S. Gordon,  
 W. J. Hehre,  A. Klamt,  M. W. Schmidt,  C. D. Sherrill,  D. G. Truhlar,  
 A. Aspuru-Guzik,  R. Baer,  A. T. Bell,  N. A. Besley,  Jeng-Da Chai,  
 A. E. DePrince, III,  R. A. DiStasio Jr.,  A. Dreuw,  B. D. Dunietz,  
 T. R. Furlani,  Chao-Ping Hsu,  Yousung Jung,  Jing Kong,  D. S. Lambrecht,  
 WanZhen Liang,  C. Ochsenfeld,  V. A. Rassolov,  L. V. Slipchenko,  
 J. E. Subotnik,  T. Van Voorhis,  J. M. Herbert,  A. I. Krylov,  
 P. M. W. Gill,  M. Head-Gordon

 Contributors to earlier versions of Q-Chem not listed above: 
 R. D. Adamson,  B. Austin,  J. Baker,  G. J. O. Beran,  K. Brandhorst,  
 S. T. Brown,  E. F. C. Byrd,  A. K. Chakraborty,  C.-L. Cheng,  
 Siu Hung Chien,  D. M. Chipman,  D. L. Crittenden,  H. Dachsel,  
 R. J. Doerksen,  A. D. Dutoi,  L. Fusti-Molnar,  W. A. Goddard III,  
 A. Golubeva-Zadorozhnaya,  S. R. Gwaltney,  G. Hawkins,  A. Heyden,  
 S. Hirata,  G. Kedziora,  F. J. Keil,  C. Kelley,  Jihan Kim,  R. A. King,  
 R. Z. Khaliullin,  P. P. Korambath,  W. Kurlancheek,  A. M. Lee,  M. S. Lee,  
 S. V. Levchenko,  Ching Yeh Lin,  D. Liotard,  R. C. Lochan,  I. Lotan,  
 P. E. Maslen,  N. Nair,  D. P. O'Neill,  D. Neuhauser,  E. Neuscamman,  
 C. M. Oana,  R. Olson,  B. Peters,  R. Peverati,  P. A. Pieniazek,  
 Y. M. Rhee,  J. Ritchie,  M. A. Rohrdanz,  E. Rosta,  N. J. Russ,  
 H. F. Schaefer III,  N. E. Schultz,  N. Shenvi,  A. C. Simmonett,  A. Sodt,  
 D. Stuck,  K. S. Thanthiriwatte,  V. Vanovschi,  Tao Wang,  A. Warshel,  
 C. F. Williams,  Q. Wu,  X. Xu,  W. Zhang

 Please cite Q-Chem as follows:
 Y. Shao et al., Mol. Phys. 113, 184-215 (2015)
 DOI: 10.1080/00268976.2014.952696

 Q-Chem 5.2.1 for Intel X86 EM64T Linux

 Parts of Q-Chem use Armadillo 8.300.2 (Tropical Shenanigans).
 http://arma.sourceforge.net/

 Q-Chem begins on Tue Sep 28 18:24:05 2021  

compute-0-1.local
Host: 0

     Scratch files written to /home/meili/scratch/qchem34749//Frg2//
NAlpha2: 50
NElect   50
Mult     1
Symmetry turned off for PCM/SM12/SMD calculation

Checking the input file for inconsistencies... 	...done.

--------------------------------------------------------------
User input:
--------------------------------------------------------------
$molecule
0 1
 6	1.9136801254	0.8811406412	3.9231308144
 6	-0.6353198746	-1.6668593588	2.7541308144
 6	-1.4543198746	-1.7688593588	3.8671308144
 6	0.4536801254	-0.8068593588	2.7731308144
 6	0.7326801254	-0.0438593588	3.9031308144
 6	-1.1843198746	-1.0128593588	4.9971308144
 6	-0.0953198746	-0.1518593588	5.0151308144
 1	-0.8723198746	-2.2148593588	1.8561308144
 1	-2.3223198746	-2.3998593588	3.8371308144
 1	1.0536801254	-0.7098593588	1.8811308144
 1	-1.7873198746	-1.1238593588	5.8761308144
 1	1.7936801254	1.5981406412	4.7371308144
 1	1.8976801254	1.4401406412	2.9921308144
 1	0.1126801254	0.4261406412	5.9051308144
 1	2.8751661254	0.3623106412	4.0510408144
$end
$rem
EDA2		1
METHOD		WB97X-V
BASIS		DEF2-TZVPD
XC_GRID		000099000590
NL_GRID		1
UNRESTRICTED		FALSE
MAX_SCF_CYCLES		200
SYMMETRY		FALSE
SYM_IGNORE		TRUE
BASIS_LIN_DEP_THRESH		6
THRESH		14
SCF_CONVERGENCE		8
SCF_PRINT_FRGM		TRUE
SOLVENT_METHOD		SMD
!required keywords
JOBTYPE		SP
SYM_IGNORE		TRUE
SUBSYSTEM		TRUE
GEN_SCFMAN		TRUE
CHILD_INSTRUCTION		2
SYM_IGNORE		TRUE
SCFMI		0
RI_K 0		
PARI_K 0		
MIN_PARI_K 0		
IARI_K 0		
OCC_RI_K 0		
PURECART		1111
MEM_STATIC		2000
MEM_TOTAL		2000
GUI		0
CHILD_MP		1
CHILD_MP_ORDERS		232
FRZ_RELAX		0
FRZ_RELAX_METHOD		0
EDA_CLS_ELEC		1
EDA_CLS_DISP		0
FRZ_ORTHO_DECOMP		1
EDA2		FALSE
FRGM_METHOD		FALSE
CIS_N_ROOTS  0
LOCAL_CIS    0
CIS_RLX_DNS  1
$end
$smx
SOLVENT			WATER
$end
--------------------------------------------------------------
 ----------------------------------------------------------------
             Standard Nuclear Orientation (Angstroms)
    I     Atom           X                Y                Z
 ----------------------------------------------------------------
    1      C       1.9136801254     0.8811406412     3.9231308144
    2      C      -0.6353198746    -1.6668593588     2.7541308144
    3      C      -1.4543198746    -1.7688593588     3.8671308144
    4      C       0.4536801254    -0.8068593588     2.7731308144
    5      C       0.7326801254    -0.0438593588     3.9031308144
    6      C      -1.1843198746    -1.0128593588     4.9971308144
    7      C      -0.0953198746    -0.1518593588     5.0151308144
    8      H      -0.8723198746    -2.2148593588     1.8561308144
    9      H      -2.3223198746    -2.3998593588     3.8371308144
   10      H       1.0536801254    -0.7098593588     1.8811308144
   11      H      -1.7873198746    -1.1238593588     5.8761308144
   12      H       1.7936801254     1.5981406412     4.7371308144
   13      H       1.8976801254     1.4401406412     2.9921308144
   14      H       0.1126801254     0.4261406412     5.9051308144
   15      H       2.8751661254     0.3623106412     4.0510408144
 ----------------------------------------------------------------
 Nuclear Repulsion Energy =         270.69860714 hartrees
 There are       25 alpha and       25 beta electrons
 Requested basis set is def2-TZVPD
 There are 131 shells and 331 basis functions

 Total QAlloc Memory Limit   2000 MB
 Mega-Array Size      1956 MB
 MEM_STATIC part      2000 MB

 Citation of the SMD model:
 Marenich, A.V.; Cramer, C.J.; Truhlar, D.G.
 J. Phys. Chem. B 2009, 113, 6378-6396.
 iSolventCode=           1
 Solvent: water                                                           

 vradii
            1           2           3           4           5           6
    1   1.8500000   1.8500000   1.8500000   1.8500000   1.8500000   1.8500000
            7           8           9          10          11          12
    1   1.8500000   1.2000000   1.2000000   1.2000000   1.2000000   1.2000000
           13          14          15
    1   1.2000000   1.2000000   1.2000000
 Changing PCM_VDW_RADII to SMD_RADIUS
 Discretize the solute cavity surface with Lebedev spheres
	Using 110 Lebedev grid points for each H atom
	Using 194 Lebedev grid points for other atoms
	Atomic van der Waals radii will be scaled by 1.20
 Remove points where switching function is < 1.0e-08
 Keep 1077 surface tesserae and discard 1161 interior tesserae
 Molecular Surface Area = 131.853 Angst**2

                       Distance Matrix (Angstroms)
             C (  1)   C (  2)   C (  3)   C (  4)   C (  5)   C (  6)
   C (  2)  3.788966
   C (  3)  4.285914  1.385617
   C (  4)  2.510666  1.387762  2.400572
   C (  5)  1.500262  2.413660  2.785658  1.391729
   C (  6)  3.786597  2.400035  1.386123  2.769775  2.410536
   C (  7)  2.509110  2.774697  2.404054  2.399373  1.390608  1.388368
   H (  8)  4.649678  1.078368  2.140505  2.140474  3.388137  3.377577
   H (  9)  5.358736  2.134513  1.073539  3.372821  3.858512  2.136449
   H ( 10)  2.727755  2.128544  3.369828  1.079385  2.152924  3.848364
   H ( 11)  4.640219  3.371771  2.136117  3.840726  3.377799  1.071714
   H ( 12)  1.091368  4.526870  4.758476  3.381852  2.125427  3.969056
   H ( 13)  1.086047  4.015742  4.722204  2.679945  2.095090  4.419950
   H ( 14)  2.716422  3.856028  3.380378  3.383193  2.147860  2.139485
   H ( 15)  1.100000  4.257114  4.829095  2.977181  2.185657  4.389260
             C (  7)   H (  8)   H (  9)   H ( 10)   H ( 11)   H ( 12)
   H (  8)  3.852140
   H (  9)  3.376495  2.461927
   H ( 10)  3.384305  2.444407  4.251989
   H ( 11)  2.132831  4.264728  2.464127  4.919624
   H ( 12)  2.590001  5.472357  5.808223  3.745824  4.640061
   H ( 13)  3.255617  4.724661  5.767844  2.563037  5.335801  1.755222
   H ( 14)  1.081410  4.933509  4.265223  4.285855  2.452211  2.358722
   H ( 15)  3.165064  5.050058  5.889754  3.029170  5.222876  1.779777
             H ( 13)   H ( 14)
   H ( 14)  3.563705
   H ( 15)  1.799580  3.327620

 A cutoff of  1.0D-14 yielded   8364 shell pairs
 There are     54516 function pairs (     69470 Cartesian)
 Smallest overlap matrix eigenvalue = 5.45E-07
 Linear dependence detected in AO basis
 Tighter screening thresholds may be required for diffuse basis sets
 Use S2THRESH > 14 and THRESH = 14 in case of SCF convergence issues
 Number of orthogonalized atomic orbitals = 330
 Maximum deviation from orthogonality = 1.619E-10

 Scale SEOQF with 1.000000e-01/1.000000e-01/1.000000e-02

 Standard Electronic Orientation quadrupole field applied
 Nucleus-field energy     =    -0.0000000011 hartrees
 Guess from superposition of atomic densities
 Warning:  Energy on first SCF cycle will be non-variational
 SAD guess density has 50.000000 electrons

 -----------------------------------------------------------------------
  General SCF calculation program by
  Eric Jon Sundstrom, Paul Horn, Yuezhi Mao, Dmitri Zuev, Alec White,
  David Stuck, Shaama M.S., Shane Yost, Joonho Lee, David Small,
  Daniel Levine, Susi Lehtola, Hugh Burton, Evgeny Epifanovsky,
  Bang C. Huynh
 -----------------------------------------------------------------------
 Exchange:     0.1670 Hartree-Fock + 1.0000 wB97X-V + LR-HF
 Correlation:  1.0000 wB97X-V
 Using Euler-Maclaurin-Lebedev (99,590) quadrature formula
 Nonlocal Correlation:  VV10 with C = 0.0100 and b = 6.00 and scale = 1.00000
 Grid used for NLC:  SG-1 standard quadrature
Energy prior to optimization (guess energy) = -271.525460115260
Begin Timing: Total SCF Calculation
begin iterations for algorithm: DIIS         
the SCF tolerance is set to 1.00e-08
    1    -271.5254601153      1.86e-03     00000 
    2    -271.5638281621      1.18e-03     00000 
    3    -271.5840536647      1.54e-04     00000 
    4    -271.5847193279      4.44e-05     00000 
    5    -271.5847649517      2.18e-05     00000 
    6    -271.5847728416      5.75e-06     00000 
    7    -271.5847736068      2.04e-06     00000 
    8    -271.5847736777      3.64e-07     00000 
    9    -271.5847736829      9.59e-08     00000 
   10    -271.5847736832      3.69e-08     00000 
   11    -271.5847736833      1.72e-08     00000 
   12    -271.5847736833      5.74e-09     00000 Convergence criterion met
Timing for Total SCF: 522.00s (wall), 3204.43s (cpu)
(3)  G-ENP(liq) elect-nuc-pol free energy of system     -271.584773683 a.u.
(4)  G-CDS(liq) cavity-dispersion-solvent structure 
     free energy                                                3.1525 kcal/mol
(6)  G-S(liq) free energy of system                     -271.579749931 a.u.
E_pcm = -0.0073345204
E_cds = 0.0050237519
Multipole orders to be included
        2
        3
computing dipole RHS
computing quadrupole RHS
total number of RHS in solve_reponses: 8
RHS batch sizes
        8
Beginning Block Conjugate Gradient Iterations. Batch Number: 0
computing hessian-vector products by finite difference
              1      6.16e-01     00000 Conjugate Gradient Iteration
computing hessian-vector products by finite difference
              2      1.91e-01     00000 Conjugate Gradient Iteration
computing hessian-vector products by finite difference
              3      4.48e-02     00000 Conjugate Gradient Iteration
computing hessian-vector products by finite difference
              4      1.09e-02     00000 Conjugate Gradient Iteration
computing hessian-vector products by finite difference
              5      2.22e-03     00000 Conjugate Gradient Iteration
computing hessian-vector products by finite difference
              6      6.96e-04     00000 Conjugate Gradient Iteration
computing hessian-vector products by finite difference
              7      1.44e-04     00000 Conjugate Gradient Iteration
computing hessian-vector products by finite difference
              8      2.28e-05     00000 Conjugate Gradient Iteration
computing hessian-vector products by finite difference
              9      2.99e-06     00000 Conjugate Gradient Iteration
computing hessian-vector products by finite difference
             10      5.89e-07     00000 Conjugate Gradient Iteration
computing hessian-vector products by finite difference
             11      1.06e-07     00000 Conjugate Gradient Iteration
computing hessian-vector products by finite difference
             12      1.60e-08     00000 Conjugate Gradient Iteration
computing hessian-vector products by finite difference
             13      2.21e-09     00000 CG Converged
batch 0 complete
Done Calculating Responses
TESTING ORTHOGONALIZATION OF MULTIPOLE BASIS
Multipole virts passed orthogonality test
Virts Per Order
           75
          125

 --------------------------------------------------------------

                    Orbital Energies (a.u.)
 --------------------------------------------------------------

 Alpha MOs
 -- Occupied --
-10.2757 -10.2658 -10.2651 -10.2627 -10.2626 -10.2622 -10.2525  -0.9950
 -0.9030  -0.8756  -0.8074  -0.7253  -0.7010  -0.6250  -0.5695  -0.5601
 -0.5316  -0.5245  -0.5079  -0.4790  -0.4706  -0.4357  -0.4337  -0.3469
 -0.3346
 -- Virtual --
  0.0676   0.0685   0.0733   0.0845   0.0899   0.1097   0.1159   0.1181
  0.1413   0.1594   0.1705   0.1769   0.1892   0.1954   0.2004   0.2075
  0.2272   0.2321   0.2391   0.2461   0.2558   0.2638   0.2661   0.2779
  0.2869   0.2892   0.2908   0.2975   0.2990   0.3043   0.3086   0.3174
  0.3251   0.3305   0.3361   0.3431   0.3562   0.3594   0.3720   0.3800
  0.3832   0.3877   0.3921   0.3942   0.3964   0.4035   0.4073   0.4110
  0.4202   0.4333   0.4355   0.4432   0.4477   0.4540   0.4562   0.4602
  0.4709   0.4750   0.4810   0.4883   0.4994   0.5051   0.5191   0.5198
  0.5231   0.5305   0.5393   0.5435   0.5475   0.5525   0.5578   0.5732
  0.5806   0.5891   0.5949   0.6036   0.6129   0.6208   0.6412   0.6482
  0.6680   0.6766   0.6899   0.6924   0.6970   0.7047   0.7211   0.7274
  0.7320   0.7380   0.7489   0.7642   0.7704   0.7718   0.7790   0.7895
  0.7980   0.8013   0.8023   0.8070   0.8130   0.8269   0.8324   0.8349
  0.8428   0.8430   0.8549   0.8614   0.8629   0.8759   0.8938   0.8991
  0.9169   0.9286   0.9371   0.9511   0.9587   1.0080   1.0340   1.0460
  1.0508   1.0643   1.0807   1.0830   1.0973   1.0996   1.1119   1.1471
  1.1736   1.1796   1.2671   1.2806   1.2994   1.3355   1.3578   1.3640
  1.3828   1.4437   1.4555   1.4629   1.4735   1.4855   1.5360   1.5457
  1.6081   1.6159   1.6263   1.6311   1.6638   1.6852   1.7387   1.7812
  1.7925   1.8029   1.8083   1.8218   1.8416   1.8760   1.8917   1.9158
  1.9248   1.9352   1.9481   1.9712   1.9931   2.0024   2.0169   2.0296
  2.0470   2.0495   2.0754   2.0994   2.1156   2.1329   2.1808   2.1908
  2.2090   2.2417   2.2523   2.2823   2.2946   2.3193   2.3948   2.4092
  2.4130   2.4239   2.4839   2.5194   2.5468   2.5576   2.5772   2.5998
  2.6272   2.6479   2.6773   2.6802   2.7017   2.7211   2.7749   2.7853
  2.7946   2.8221   2.8297   2.8550   2.8725   2.9064   2.9196   2.9251
  2.9426   2.9432   2.9816   2.9836   2.9989   3.0198   3.0301   3.0620
  3.0728   3.1000   3.1123   3.1410   3.1826   3.1937   3.2100   3.2312
  3.2356   3.2516   3.2910   3.2985   3.3504   3.3640   3.3699   3.3868
  3.4117   3.4420   3.4510   3.4656   3.4692   3.4807   3.4948   3.5077
  3.5186   3.5458   3.5484   3.5510   3.5658   3.5794   3.5883   3.6141
  3.6295   3.6473   3.6632   3.7059   3.7227   3.7571   3.7774   3.8115
  3.8675   3.9043   3.9250   3.9594   3.9787   4.0025   4.0509   4.0649
  4.1303   4.2217   4.2862   4.2961   4.2993   4.3293   4.3398   4.3572
  4.3673   4.3841   4.4046   4.4116   4.4369   4.4685   4.5042   4.5494
  4.6102   4.6288   4.7694   4.7982   4.8365   4.8923   4.9132   4.9572
  5.0455   5.0603   5.1783   5.2807   5.3959   5.4067   5.5120   5.5365
  5.6872   5.8585  22.5879  22.6895  22.9135  22.9259  23.0347  23.1080
 23.4510
 --------------------------------------------------------------

          Ground-State Mulliken Net Atomic Charges

     Atom                 Charge (a.u.)
  ----------------------------------------
      1 C                    -1.071558
      2 C                    -0.535756
      3 C                    -0.559011
      4 C                    -0.381500
      5 C                     0.831463
      6 C                    -0.587539
      7 C                    -0.439486
      8 H                     0.371460
      9 H                     0.405381
     10 H                     0.396700
     11 H                     0.380073
     12 H                     0.299115
     13 H                     0.269931
     14 H                     0.373248
     15 H                     0.247478
  ----------------------------------------
  Sum of atomic charges =     0.000000

 -----------------------------------------------------------------
                    Cartesian Multipole Moments
 -----------------------------------------------------------------
    Charge (ESU x 10^10)
                 0.0000
    Dipole Moment (Debye)
         X       0.3713      Y       0.3816      Z      -0.0361
       Tot       0.5337
    Quadrupole Moments (Debye-Ang)
        XX     -40.4280     XY       3.5467     YY     -43.0675
        XZ      -0.0866     YZ       3.6781     ZZ     -38.6913
    Octopole Moments (Debye-Ang^2)
       XXX      -1.6466    XXY      20.0773    XYY      -7.2154
       YYY      80.6085    XXZ    -155.5252    XYZ      14.2211
       YYZ    -171.6545    XZZ      -8.2165    YZZ      46.0409
       ZZZ    -450.5086
    Hexadecapole Moments (Debye-Ang^3)
      XXXX    -408.6242   XXXY    -118.6190   XXYY    -123.0075
      XYYY    -115.0191   YYYY    -400.4735   XXXZ      13.6878
      XXYZ      64.2982   XYYZ     -15.5738   YYYZ     288.8376
      XXZZ    -709.5027   XYZZ      21.0658   YYZZ    -786.5881
      XZZZ     -55.8113   YZZZ     369.9049   ZZZZ   -3761.7913
 -----------------------------------------------------------------
Archival summary:
1\1\compute-0-1.local\SP\ProcedureUnspecified\BasisUnspecified\78\meili\TueSep2821:17:232021TueSep2821:17:232021\0\\#,ProcedureUnspecified,BasisUnspecified,\\0,1\C\C,1,1.39061\H,2,1.08141,1,120.137\C,2,1.38837,1,120.32,3,-179.235,0\H,4,1.07171,2,119.665,1,177.015,0\C,4,1.38612,2,120.105,1,-0.142109,0\H,6,1.07354,4,120.056,2,-177.147,0\C,6,1.38562,4,119.97,2,0.0884878,0\H,8,1.07837,6,120.105,4,-176.817,0\C,8,1.38776,6,119.897,4,-0.0363149,0\H,10,1.07939,8,118.723,6,-177.356,0\C,1,1.50026,2,120.394,3,-0.472822,0\H,12,1.08605,1,107.117,2,-133.531,0\H,12,1.09137,1,109.175,2,-17.4918,0\H,12,1.1,1,113.504,2,103.828,0\\\@

 Total job time:  10398.11s(wall), 64913.04s(cpu) 
 Tue Sep 28 21:17:23 2021

        *************************************************************
        *                                                           *
        *  Thank you very much for using Q-Chem.  Have a nice day.  *
        *                                                           *
        *************************************************************


Done Job For Fragment 1
calling putenv with: QCSCRATCH=/home/meili/scratch 
calling putenv with: QCTHREADS=8 
Doing General SCFMI
 Exchange:     0.1670 Hartree-Fock + 1.0000 wB97X-V + LR-HF
 Correlation:  1.0000 wB97X-V
 Using Euler-Maclaurin-Lebedev (99,590) quadrature formula
 Nonlocal Correlation:  VV10 with C = 0.0100 and b = 6.00 and scale = 1.00000
 Grid used for NLC:  SG-1 standard quadrature
performing fock build before subrot guess so that all methods have access
Printing subrot_rss_gen Method Specification:
Occupied Subspace Method is 0
Virtual Subspace Method is 0
Energy of the unrelaxed supersystem initial determinant -674.741635666148
performing fock build before subrot guess so that all methods have access
Printing subrot_rss_gen Method Specification:
Occupied Subspace Method is 0
Virtual Subspace Method is 0
Energy of the unrelaxed supersystem initial determinant w/ solvent -674.764124017647
write pseudocanon occs and virts to disk
write pseudocanon orbital energies to disk
Tolerance of ortho_decomp_scf: 1.00e-06
GDM subspace size: 20
Beginning the Orthogonal Decomposition of the Initial Supersystem Wavefunction
    1    -674.7274470318      1.37e-02     ortho_decomp Preconditoned Steepest Descent
    2    -674.7286188399      3.40e-04     ortho_decomp BFGS Step
    3    -674.7286224493      2.56e-05     ortho_decomp BFGS Step
    4    -674.7286224561      1.03e-06     ortho_decomp BFGS Step
    5    -674.7286224561      2.89e-08     ortho_decomp 00000 Convergence criterion met
 Hartree-Fock
 Hartree-Fock
 Hartree-Fock
Doing General SCFMI
 Exchange:     0.1670 Hartree-Fock + 1.0000 wB97X-V + LR-HF
 Correlation:  1.0000 wB97X-V
 Using Euler-Maclaurin-Lebedev (99,590) quadrature formula
 Nonlocal Correlation:  VV10 with C = 0.0100 and b = 6.00 and scale = 1.00000
 Grid used for NLC:  SG-1 standard quadrature
performing fock build at end of subrot_r(subrot) constructor so that all methods have access
<S^2> of initial wavefunction before polarization iterations 0.0000000000
Beginning iterations for the determination of the polarized wavefunction
Energy prior to optimization (guess energy) = -674.764124017647
Begin Timing: Total SCF Calculation
begin iterations for algorithm: DIIS         
the SCF tolerance is set to 1.00e-08
    1    -674.7641240176      2.55e-05     00000 
    2    -674.7642172965      1.20e-05     00000 
    3    -674.7642301799      6.10e-06     00000 
    4    -674.7642345377      1.52e-06     00000 
    5    -674.7642349416      7.68e-07     00000 
    6    -674.7642350297      2.55e-07     00000 
    7    -674.7642350385      1.08e-07     00000 
    8    -674.7642350398      3.69e-08     00000 
    9    -674.7642350400      1.31e-08     00000 
   10    -674.7642350400      5.24e-09     00000 Convergence criterion met
write pseudocanon occs and virts to disk
write pseudocanon orbital energies to disk
Timing for Total SCF: 4892.00s (wall), 31422.90s (cpu)
<S^2> of polarized wavefunction after polarization iterations 0.0000000000
relaxing scfmi constraint to allow all rotations in the entire AO span
Doing General SCFMI
 Exchange:     0.1670 Hartree-Fock + 1.0000 wB97X-V + LR-HF
 Correlation:  1.0000 wB97X-V
 Using Euler-Maclaurin-Lebedev (99,590) quadrature formula
 Nonlocal Correlation:  VV10 with C = 0.0100 and b = 6.00 and scale = 1.00000
 Grid used for NLC:  SG-1 standard quadrature
performing fock build at end of subrot_r(subrot) constructor so that all methods have access
<S^2> of polarized wavefunction before ct-allowed iterations 0.0000000000
Beginning iterations for the determination of the CT-Allowed wavefunction
Energy prior to optimization (guess energy) = -674.764235040014
Begin Timing: Total SCF Calculation
begin iterations for algorithm: DIIS         
the SCF tolerance is set to 1.00e-08
    1    -674.7642350400      4.08e-05     00000 
    2    -674.7647568661      4.16e-06     00000 
    3    -674.7647738325      7.10e-07     00000 
    4    -674.7647745092      1.58e-07     00000 
    5    -674.7647745273      1.04e-07     00000 
    6    -674.7647745320      1.51e-08     00000 
    7    -674.7647745323      7.23e-09     00000 Convergence criterion met
write pseudocanon occs and virts to disk
write pseudocanon orbital energies to disk
Timing for Total SCF: 3377.00s (wall), 21603.22s (cpu)
<S^2> of ct_allowed wavefunction after ct-allowed iterations 0.0000000000

================================
        Results of EDA2         
================================
Basic EDA Quantities
--------------------
Fragment Energies (Ha):
1 -403.1717334518
2 -271.5797499314
--------------------
  E_prp (kJ/mol) = 0.0000
  E_sol (kJ/mol) = 0.9649
  E_frz (kJ/mol) = -6.6845
  E_pol (kJ/mol) = -0.2915
  E_vct (kJ/mol) = -1.4165
  E_int (kJ/mol) = -7.4275
--------------------


Initial Wavefunction Decomposition
--------------------
  --------------------
  Orthogonal Fragment Subspace Decomposition:
  --------------------
     E_elec   (ELEC)   (kJ/mol) = -15.2416
     E_pauli  (PAULI)  (kJ/mol) = 21.2711
     E_disp   (DISP)   (kJ/mol) = -12.7140
     --------------------
     Terms summing to E_pauli:
     --------------------
        E_kep_pauli       (kJ/mol) = 27.4821
        E_disp_free_pauli (kJ/mol) = -6.2110
  --------------------
  Classical Frozen Decomposition:
  --------------------
     E_cls_elec  (CLS ELEC)  (kJ/mol) = -6.4996
     E_cls_pauli (CLS PAULI) (kJ/mol) = -0.1848
    [E_mod_pauli (MOD PAULI) (kJ/mol) = 12.5292 (CLS PAULI - DISP from orthogonal decomposition) ]
  --------------------
--------------------

Simplified EDA Summary (kJ/mol)
--------------------
 PREPARATION     0.0000
 SOLVATION       0.9649
 FROZEN          6.0296      (does not include dispersion)
[PAULI           21.2711]     (if this is negligible, then frozen describes electrostatics)
 DISPERSION      -12.7140
 POLARIZATION    -0.2915
 CHARGE TRANSFER -1.4165
 TOTAL           -7.4275     (PRP + SOL + FRZ + DISP + POL + CT)
--------------------

 --------------------------------------------------------------

                    Orbital Energies (a.u.)
 --------------------------------------------------------------

 Alpha MOs
 -- Occupied --
-14.4426 -10.2976 -10.2898 -10.2753 -10.2674 -10.2662 -10.2653 -10.2648
-10.2636 -10.2628 -10.2626 -10.2621 -10.2620 -10.2609 -10.2572 -10.2549
-10.2526  -1.1111  -0.9948  -0.9768  -0.9274  -0.9028  -0.8755  -0.8655
 -0.8576  -0.8115  -0.8073  -0.7418  -0.7252  -0.7100  -0.7008  -0.6728
 -0.6456  -0.6249  -0.5948  -0.5788  -0.5692  -0.5599  -0.5517  -0.5455
 -0.5344  -0.5314  -0.5244  -0.5104  -0.5078  -0.5066  -0.4889  -0.4791
 -0.4765  -0.4697  -0.4510  -0.4477  -0.4351  -0.4333  -0.4279  -0.3763
 -0.3463  -0.3344  -0.3135  -0.2894
 -- Virtual --
  0.0555   0.0618   0.0668   0.0706   0.0731   0.0770   0.0853   0.0878
  0.0919   0.0971   0.1003   0.1075   0.1084   0.1151   0.1270   0.1278
  0.1320   0.1394   0.1443   0.1475   0.1549   0.1613   0.1673   0.1678
  0.1718   0.1729   0.1816   0.1844   0.1910   0.1954   0.1998   0.2033
  0.2108   0.2141   0.2186   0.2202   0.2250   0.2297   0.2362   0.2385
  0.2451   0.2489   0.2509   0.2534   0.2545   0.2595   0.2656   0.2667
  0.2708   0.2733   0.2788   0.2793   0.2799   0.2850   0.2862   0.2891
  0.2919   0.2946   0.2992   0.2994   0.3033   0.3066   0.3109   0.3139
  0.3193   0.3225   0.3244   0.3282   0.3294   0.3329   0.3343   0.3380
  0.3395   0.3458   0.3468   0.3495   0.3505   0.3548   0.3558   0.3600
  0.3627   0.3657   0.3681   0.3730   0.3742   0.3773   0.3794   0.3830
  0.3865   0.3870   0.3909   0.3928   0.3961   0.3979   0.4043   0.4044
  0.4086   0.4110   0.4123   0.4174   0.4193   0.4204   0.4252   0.4293
  0.4327   0.4367   0.4400   0.4409   0.4443   0.4464   0.4481   0.4517
  0.4573   0.4584   0.4605   0.4632   0.4654   0.4670   0.4737   0.4757
  0.4791   0.4809   0.4867   0.4896   0.4931   0.4942   0.4984   0.5006
  0.5043   0.5069   0.5083   0.5144   0.5162   0.5211   0.5229   0.5250
  0.5287   0.5338   0.5366   0.5418   0.5458   0.5469   0.5528   0.5544
  0.5580   0.5597   0.5610   0.5632   0.5685   0.5785   0.5788   0.5844
  0.5868   0.5913   0.5929   0.5968   0.6016   0.6048   0.6059   0.6089
  0.6134   0.6189   0.6269   0.6317   0.6340   0.6383   0.6395   0.6464
  0.6471   0.6507   0.6562   0.6613   0.6621   0.6680   0.6725   0.6765
  0.6818   0.6848   0.6869   0.6917   0.6984   0.6997   0.7057   0.7101
  0.7148   0.7156   0.7206   0.7230   0.7243   0.7262   0.7337   0.7370
  0.7384   0.7411   0.7461   0.7503   0.7529   0.7563   0.7633   0.7657
  0.7687   0.7692   0.7716   0.7748   0.7796   0.7846   0.7888   0.7911
  0.7935   0.7944   0.7965   0.7988   0.8021   0.8072   0.8079   0.8081
  0.8151   0.8163   0.8198   0.8229   0.8276   0.8290   0.8313   0.8345
  0.8392   0.8411   0.8425   0.8462   0.8482   0.8530   0.8557   0.8597
  0.8636   0.8666   0.8748   0.8793   0.8814   0.8904   0.8940   0.8982
  0.9019   0.9033   0.9060   0.9176   0.9197   0.9239   0.9285   0.9338
  0.9344   0.9439   0.9495   0.9527   0.9627   0.9640   0.9724   0.9793
  0.9816   0.9866   0.9887   0.9968   0.9998   1.0080   1.0137   1.0270
  1.0282   1.0374   1.0401   1.0464   1.0534   1.0570   1.0655   1.0711
  1.0728   1.0839   1.0912   1.0943   1.1003   1.1038   1.1166   1.1236
  1.1258   1.1396   1.1480   1.1521   1.1558   1.1610   1.1639   1.1749
  1.1840   1.1944   1.1989   1.2049   1.2134   1.2235   1.2327   1.2562
  1.2658   1.2698   1.2786   1.2890   1.2931   1.3003   1.3230   1.3377
  1.3425   1.3488   1.3563   1.3594   1.3770   1.3881   1.4033   1.4084
  1.4128   1.4156   1.4259   1.4437   1.4522   1.4685   1.4711   1.4757
  1.4871   1.4985   1.5047   1.5139   1.5352   1.5462   1.5533   1.5541
  1.5646   1.5829   1.5948   1.6111   1.6163   1.6230   1.6327   1.6426
  1.6452   1.6482   1.6537   1.6662   1.6765   1.7000   1.7073   1.7171
  1.7391   1.7494   1.7643   1.7775   1.7831   1.7965   1.8073   1.8147
  1.8178   1.8259   1.8323   1.8376   1.8423   1.8593   1.8703   1.8853
  1.8930   1.8968   1.9025   1.9048   1.9194   1.9268   1.9333   1.9422
  1.9539   1.9575   1.9602   1.9653   1.9685   1.9756   1.9791   1.9879
  1.9984   2.0056   2.0099   2.0191   2.0218   2.0285   2.0429   2.0497
  2.0546   2.0571   2.0683   2.0738   2.0773   2.0866   2.0956   2.0999
  2.1081   2.1210   2.1301   2.1429   2.1541   2.1648   2.1686   2.1839
  2.1970   2.2047   2.2125   2.2170   2.2286   2.2334   2.2472   2.2619
  2.2698   2.2769   2.2929   2.3028   2.3124   2.3166   2.3278   2.3392
  2.3450   2.3620   2.3725   2.3839   2.4023   2.4114   2.4227   2.4241
  2.4448   2.4487   2.4545   2.4712   2.4844   2.5008   2.5086   2.5191
  2.5264   2.5399   2.5464   2.5643   2.5771   2.5877   2.6004   2.6062
  2.6127   2.6158   2.6367   2.6423   2.6558   2.6617   2.6715   2.6817
  2.6931   2.6944   2.7034   2.7056   2.7216   2.7345   2.7443   2.7698
  2.7765   2.7798   2.7836   2.7861   2.7987   2.8113   2.8154   2.8257
  2.8311   2.8319   2.8435   2.8547   2.8641   2.8695   2.8740   2.8831
  2.8971   2.9019   2.9092   2.9207   2.9304   2.9331   2.9397   2.9499
  2.9563   2.9599   2.9696   2.9841   2.9914   2.9951   2.9983   3.0099
  3.0154   3.0179   3.0370   3.0457   3.0508   3.0617   3.0759   3.0785
  3.0841   3.0901   3.1065   3.1141   3.1158   3.1257   3.1361   3.1379
  3.1533   3.1590   3.1654   3.1830   3.1958   3.2025   3.2176   3.2347
  3.2373   3.2437   3.2506   3.2593   3.2688   3.2714   3.2776   3.2877
  3.3010   3.3068   3.3120   3.3222   3.3328   3.3526   3.3569   3.3643
  3.3726   3.3817   3.3855   3.3924   3.4001   3.4010   3.4073   3.4132
  3.4311   3.4395   3.4456   3.4532   3.4574   3.4665   3.4753   3.4811
  3.4850   3.4939   3.4971   3.5010   3.5082   3.5107   3.5152   3.5250
  3.5265   3.5322   3.5362   3.5377   3.5470   3.5561   3.5647   3.5689
  3.5729   3.5797   3.5844   3.5915   3.5978   3.6020   3.6148   3.6264
  3.6288   3.6362   3.6372   3.6494   3.6509   3.6684   3.6719   3.6749
  3.6835   3.6992   3.7167   3.7228   3.7326   3.7339   3.7367   3.7420
  3.7652   3.7744   3.7796   3.7854   3.7902   3.8056   3.8181   3.8354
  3.8714   3.8772   3.8879   3.9183   3.9238   3.9324   3.9409   3.9538
  3.9701   3.9791   3.9883   4.0260   4.0529   4.0542   4.0641   4.0789
  4.0863   4.1236   4.1439   4.1567   4.1873   4.2067   4.2245   4.2319
  4.2373   4.2658   4.2852   4.2933   4.2991   4.3067   4.3085   4.3113
  4.3286   4.3474   4.3556   4.3666   4.3714   4.3738   4.3770   4.3870
  4.3943   4.4117   4.4170   4.4218   4.4313   4.4443   4.4578   4.4755
  4.4831   4.5049   4.5169   4.5340   4.5558   4.5607   4.6214   4.6244
  4.6386   4.6490   4.6602   4.6771   4.7624   4.7813   4.7853   4.8116
  4.8260   4.8420   4.8502   4.9011   4.9319   4.9371   4.9573   4.9686
  4.9699   4.9916   5.0074   5.0147   5.0525   5.0739   5.0788   5.0870
  5.1250   5.1454   5.1613   5.1943   5.2104   5.2314   5.2828   5.2918
  5.3993   5.4025   5.4124   5.4191   5.4657   5.5067   5.5202   5.5422
  5.5628   5.6072   5.6579   5.7004   5.7186   5.8120   5.8345   5.8635
  5.9631   5.9797   6.2903   6.3493  22.6330  22.6545  22.7226  22.7838
 22.9413  22.9486  22.9587  22.9762  23.0171  23.0604  23.1263  23.2171
 23.2732  23.4656  23.4702  23.8098  32.8579
 --------------------------------------------------------------

          Ground-State Mulliken Net Atomic Charges

     Atom                 Charge (a.u.)
  ----------------------------------------
      1 C                    -1.073159
      2 C                    -0.143832
      3 C                     0.343326
      4 C                     0.578093
      5 C                    -0.564110
      6 C                    -0.460022
      7 C                    -0.662184
      8 C                    -0.693032
      9 C                    -0.621438
     10 N                     0.110530
     11 H                     0.477887
     12 H                     0.422581
     13 H                     0.476908
     14 H                     0.442426
     15 H                     0.217222
     16 H                     0.321961
     17 H                     0.297568
     18 H                     0.284157
     19 H                     0.244817
     20 C                    -1.053168
     21 C                    -0.502998
     22 C                    -0.623305
     23 C                    -0.314789
     24 C                     0.818950
     25 C                    -0.639062
     26 C                    -0.517930
     27 H                     0.397032
     28 H                     0.416230
     29 H                     0.458493
     30 H                     0.392896
     31 H                     0.308227
     32 H                     0.213450
     33 H                     0.392438
     34 H                     0.253836
  ----------------------------------------
  Sum of atomic charges =     0.000000

 -----------------------------------------------------------------
                    Cartesian Multipole Moments
 -----------------------------------------------------------------
    Charge (ESU x 10^10)
                -0.0000
    Dipole Moment (Debye)
         X       2.5040      Y       2.1306      Z      -1.3017
       Tot       3.5361
    Quadrupole Moments (Debye-Ang)
        XX     -95.8197     XY      13.6013     YY     -96.6373
        XZ      -8.3483     YZ      -0.2772     ZZ     -85.4381
    Octopole Moments (Debye-Ang^2)
       XXX      14.0168    XXY       6.1437    XYY      13.2649
       YYY      23.1999    XXZ      -8.3218    XYZ     -14.0127
       YYZ     -26.0735    XZZ      26.4443    YZZ      39.8499
       ZZZ     -43.4400
    Hexadecapole Moments (Debye-Ang^3)
      XXXX    -755.1147   XXXY    -188.8478   XXYY    -215.7031
      XYYY    -177.7982   YYYY    -795.8051   XXXZ      65.5689
      XXYZ      59.3509   XYYZ     -39.5946   YYYZ     368.9837
      XXZZ   -1339.9371   XYZZ      82.9576   YYZZ   -1438.1928
      XZZZ    -132.7481   YZZZ     402.6628   ZZZZ   -7099.8412
 -----------------------------------------------------------------
Archival summary:
1\1\compute-0-1.local\SP\ProcedureUnspecified\BasisUnspecified\11617\meili\WedSep2901:52:592021WedSep2901:52:592021\0\\#,ProcedureUnspecified,BasisUnspecified,\\0,1\C\N,1,1.36962\H,2,1.01448,1,125.78\C,2,1.37527,1,109.433,3,178.149,0\H,4,1.08116,2,125.107,1,179.027,0\C,4,1.36029,2,110.202,1,-0.0260209,0\C,1,1.38623,2,130.716,3,2.00731,0\H,7,1.07836,1,120.84,2,-0.319273,0\C,7,1.3811,1,117.806,2,-179.98,0\H,9,1.08117,7,118.957,1,178.856,0\C,9,1.40182,7,121.123,1,-0.126262,0\H,11,1.08304,9,119.321,7,-179.988,0\C,11,1.39265,9,121.041,7,-0.015983,0\H,13,1.07967,11,121.053,9,-179.671,0\C,13,1.40047,11,118.911,9,0.122914,0\C,6,1.49838,4,126.967,2,-179.94,0\H,16,1.09142,6,108.553,4,-18.7883,0\H,16,1.09177,6,108.16,4,-135.173,0\H,16,1.1,6,114.335,4,103.434,0\H,10,2.63107,9,101.013,7,-92.1729,0\C,20,1.07939,10,92.1774,9,-147.952,0\C,21,1.38776,20,118.723,10,81.7603,0\H,22,1.07837,21,119.919,20,-0.568687,0\C,22,1.38562,21,119.897,20,-177.356,0\H,24,1.07354,22,119.916,21,177.203,0\C,24,1.38612,22,119.97,21,-0.0363149,0\H,26,1.07171,24,120.169,22,-177.054,0\C,26,1.38837,24,120.105,22,0.0884878,0\H,28,1.08141,26,119.538,24,-179.382,0\C,28,1.39061,26,120.32,24,-0.142109,0\C,30,1.50026,28,120.394,26,-179.708,0\H,31,1.08605,30,107.117,28,-133.531,0\H,31,1.09137,30,109.175,28,-17.4918,0\H,31,1.1,30,113.504,28,103.828,0\\\@

 Total job time:  56395.27s(wall), 108260.23s(cpu) 
 Wed Sep 29 01:52:59 2021

        *************************************************************
        *                                                           *
        *  Thank you very much for using Q-Chem.  Have a nice day.  *
        *                                                           *
        *************************************************************


