                  Welcome to Q-Chem
     A Quantum Leap Into The Future Of Chemistry


 Q-Chem 5.2 (devel), Q-Chem, Inc., Pleasanton, CA (2019)

 Yihan Shao,  Zhengting Gan,  E. Epifanovsky,  A. T. B. Gilbert,  M. Wormit,  
 J. Kussmann,  A. W. Lange,  A. Behn,  Jia Deng,  Xintian Feng,  D. Ghosh,  
 M. Goldey,  P. R. Horn,  L. D. Jacobson,  I. Kaliman,  T. Kus,  A. Landau,  
 Jie Liu,  E. I. Proynov,  R. M. Richard,  R. P. Steele,  E. J. Sundstrom,  
 H. L. Woodcock III,  P. M. Zimmerman,  D. Zuev,  B. Albrecht,  E. Alguire,  
 S. A. Baeppler,  D. Barton,  Z. Benda,  Y. A. Bernard,  E. J. Berquist,  
 K. B. Bravaya,  H. Burton,  D. Casanova,  Chun-Min Chang,  Yunqing Chen,  
 A. Chien,  K. D. Closser,  M. P. Coons,  S. Coriani,  S. Dasgupta,  
 A. L. Dempwolff,  M. Diedenhofen,  Hainam Do,  R. G. Edgar,  Po-Tung Fang,  
 S. Faraji,  S. Fatehi,  Qingguo Feng,  K. D. Fenk,  J. Fosso-Tande,  
 J. Gayvert,  Qinghui Ge,  A. Ghysels,  G. Gidofalvi,  J. Gomes,  
 J. Gonthier,  A. Gunina,  D. Hait,  M. W. D. Hanson-Heine,  
 P. H. P. Harbach,  A. W. Hauser,  M. F. Herbst,  J. E. Herr,  
 E. G. Hohenstein,  Z. C. Holden,  Kerwin Hui,  B. C. Huynh,  T.-C. Jagau,  
 Hyunjun Ji,  B. Kaduk,  K. Khistyaev,  Jaehoon Kim,  P. Klunzinger,  K. Koh,  
 D. Kosenkov,  L. Koulias,  T. Kowalczyk,  C. M. Krauter,  A. Kunitsa,  
 Ka Un Lao,  A. Laurent,  K. V. Lawler,  Joonho Lee,  D. Lefrancois,  
 S. Lehtola,  D. S. Levine,  Yi-Pei Li,  You-Sheng Lin,  Fenglai Liu,  
 E. Livshits,  A. Luenser,  P. Manohar,  E. Mansoor,  S. F. Manzer,  
 Shan-Ping Mao,  Yuezhi Mao,  N. Mardirossian,  A. V. Marenich,  
 T. Markovich,  L. A. Martinez-Martinez,  S. A. Maurer,  N. J. Mayhall,  
 S. C. McKenzie,  J.-M. Mewes,  P. Morgante,  A. F. Morrison,  
 J. W. Mullinax,  K. Nanda,  T. S. Nguyen-Beck,  R. Olivares-Amaya,  
 J. A. Parkhill,  Zheng Pei,  T. M. Perrine,  F. Plasser,  P. Pokhilko,  
 S. Prager,  A. Prociuk,  E. Ramos,  D. R. Rehn,  F. Rob,  M. Scheurer,  
 M. Schneider,  N. Sergueev,  S. M. Sharada,  S. Sharma,  D. W. Small,  
 T. Stauch,  T. Stein,  Yu-Chuan Su,  A. J. W. Thom,  A. Tkatchenko,  
 T. Tsuchimochi,  N. M. Tubman,  L. Vogt,  M. L. Vidal,  O. Vydrov,  
 M. A. Watson,  J. Wenzel,  M. de Wergifosse,  T. A. Wesolowski,  A. White,  
 J. Witte,  A. Yamada,  Jun Yang,  K. Yao,  S. Yeganeh,  S. R. Yost,  
 Zhi-Qiang You,  A. Zech,  Igor Ying Zhang,  Xing Zhang,  Yan Zhao,  
 Ying Zhu,  B. R. Brooks,  G. K. L. Chan,  C. J. Cramer,  M. S. Gordon,  
 W. J. Hehre,  A. Klamt,  M. W. Schmidt,  C. D. Sherrill,  D. G. Truhlar,  
 A. Aspuru-Guzik,  R. Baer,  A. T. Bell,  N. A. Besley,  Jeng-Da Chai,  
 A. E. DePrince, III,  R. A. DiStasio Jr.,  A. Dreuw,  B. D. Dunietz,  
 T. R. Furlani,  Chao-Ping Hsu,  Yousung Jung,  Jing Kong,  D. S. Lambrecht,  
 WanZhen Liang,  C. Ochsenfeld,  V. A. Rassolov,  L. V. Slipchenko,  
 J. E. Subotnik,  T. Van Voorhis,  J. M. Herbert,  A. I. Krylov,  
 P. M. W. Gill,  M. Head-Gordon

 Contributors to earlier versions of Q-Chem not listed above: 
 R. D. Adamson,  B. Austin,  J. Baker,  G. J. O. Beran,  K. Brandhorst,  
 S. T. Brown,  E. F. C. Byrd,  A. K. Chakraborty,  C.-L. Cheng,  
 Siu Hung Chien,  D. M. Chipman,  D. L. Crittenden,  H. Dachsel,  
 R. J. Doerksen,  A. D. Dutoi,  L. Fusti-Molnar,  W. A. Goddard III,  
 A. Golubeva-Zadorozhnaya,  S. R. Gwaltney,  G. Hawkins,  A. Heyden,  
 S. Hirata,  G. Kedziora,  F. J. Keil,  C. Kelley,  Jihan Kim,  R. A. King,  
 R. Z. Khaliullin,  P. P. Korambath,  W. Kurlancheek,  A. M. Lee,  M. S. Lee,  
 S. V. Levchenko,  Ching Yeh Lin,  D. Liotard,  R. C. Lochan,  I. Lotan,  
 P. E. Maslen,  N. Nair,  D. P. O'Neill,  D. Neuhauser,  E. Neuscamman,  
 C. M. Oana,  R. Olson,  B. Peters,  R. Peverati,  P. A. Pieniazek,  
 Y. M. Rhee,  J. Ritchie,  M. A. Rohrdanz,  E. Rosta,  N. J. Russ,  
 H. F. Schaefer III,  N. E. Schultz,  N. Shenvi,  A. C. Simmonett,  A. Sodt,  
 D. Stuck,  K. S. Thanthiriwatte,  V. Vanovschi,  Tao Wang,  A. Warshel,  
 C. F. Williams,  Q. Wu,  X. Xu,  W. Zhang

 Please cite Q-Chem as follows:
 Y. Shao et al., Mol. Phys. 113, 184-215 (2015)
 DOI: 10.1080/00268976.2014.952696

 Q-Chem 5.2.1 for Intel X86 EM64T Linux

 Parts of Q-Chem use Armadillo 8.300.2 (Tropical Shenanigans).
 http://arma.sourceforge.net/

 Q-Chem begins on Wed Sep 29 08:54:30 2021  

compute-0-7.local
Host: 0

     Scratch files written to /home/meili/scratch/qchem49721//
NAlpha2: 120
NElect   120
Mult     1
Symmetry turned off for PCM/SM12/SMD calculation

 Q-Chem warning in module libgen/rem_setup.C, line 2813:

 Neither GIA nor STOLL is specified by user. Use STOLL as the default


Checking the input file for inconsistencies... 	...done.

--------------------------------------------------------------
User input:
--------------------------------------------------------------
$comment
SSI-051TRP-107PHE-1.pdb
$end

$molecule
0 1
--
0 1
C    1.114724483224    1.808281205879   -2.413938104330
C    1.593724483224    1.117281205879    0.053061895670
C    1.562724483224    2.067281205879   -1.024938104330
C    2.080724483224    1.799281205879    1.199061895670
C    2.072724483224    3.226281205879   -0.532938104330
C    1.172724483224   -0.212718794121    0.190061895670
C    1.275724483224   -0.829718794121    1.434061895670
C    1.773724483224   -0.134718794121    2.545061895670
C    2.167724483224    1.188281205879    2.439061895670
N    2.374724483224    3.077281205879    0.803061895670
H    0.766724483224   -0.748718794121   -0.656938104330
H    0.965724483224   -1.852718794121    1.556061895670
H    1.847724483224   -0.641718794121    3.497061895670
H    0.992724483224    2.755281205879   -2.942938104330
H    0.135724483224    1.339281205879   -2.351938104330
H    2.207724483224    4.138281205879   -1.106938104330
H    2.757724483224    3.811281205879    1.389061895670
H    2.568724483224    1.714281205879    3.277061895670
H    1.790163483224    1.148681205879   -2.978484104330
--
0 1
C   -2.971275516776   -3.772718794121    0.846061895670
C   -2.476275516776   -1.347718794121    0.460061895670
C   -2.615275516776   -2.628718794121   -0.057938104330
C   -2.172275516776   -0.280718794121   -0.372938104330
C   -2.039275516776   -0.485718794121   -1.736938104330
C   -2.553275516776   -2.814718794121   -1.433938104330
C   -2.218275516776   -1.754718794121   -2.267938104330
H   -2.573275516776   -1.178718794121    1.524061895670
H   -2.047275516776    0.711281205879    0.039061895670
H   -2.283275516776   -3.784718794121    1.691061895670
H   -2.856275516776   -4.709718794121    0.306061895670
H   -1.831275516776    0.345281205879   -2.393938104330
H   -2.724275516776   -3.793718794121   -1.858938104330
H   -2.141275516776   -1.909718794121   -3.335938104330
H   -4.002288516776   -3.719398794121    1.225756895670
$end

$rem
JOBTYPE			EDA
EDA2			1
method			wB97X-V
BASIS			def2-TZVPD
XC_GRID			000099000590
NL_GRID			1
UNRESTRICTED		FALSE
MAX_SCF_CYCLES		200
SYMMETRY		FALSE
SYM_IGNORE		TRUE
MEM_STATIC		2000
BASIS_LIN_DEP_THRESH 	6
THRESH 			14
SCF_CONVERGENCE 	8
SCF_PRINT_FRGM 		TRUE
SOLVENT_METHOD          SMD
$end

$SMX
SOLVENT			WATER
$END
--------------------------------------------------------------
 ----------------------------------------------------------------
             Standard Nuclear Orientation (Angstroms)
    I     Atom           X                Y                Z
 ----------------------------------------------------------------
    1      C       1.1147244832     1.8082812059    -2.4139381043
    2      C       1.5937244832     1.1172812059     0.0530618957
    3      C       1.5627244832     2.0672812059    -1.0249381043
    4      C       2.0807244832     1.7992812059     1.1990618957
    5      C       2.0727244832     3.2262812059    -0.5329381043
    6      C       1.1727244832    -0.2127187941     0.1900618957
    7      C       1.2757244832    -0.8297187941     1.4340618957
    8      C       1.7737244832    -0.1347187941     2.5450618957
    9      C       2.1677244832     1.1882812059     2.4390618957
   10      N       2.3747244832     3.0772812059     0.8030618957
   11      H       0.7667244832    -0.7487187941    -0.6569381043
   12      H       0.9657244832    -1.8527187941     1.5560618957
   13      H       1.8477244832    -0.6417187941     3.4970618957
   14      H       0.9927244832     2.7552812059    -2.9429381043
   15      H       0.1357244832     1.3392812059    -2.3519381043
   16      H       2.2077244832     4.1382812059    -1.1069381043
   17      H       2.7577244832     3.8112812059     1.3890618957
   18      H       2.5687244832     1.7142812059     3.2770618957
   19      H       1.7901634832     1.1486812059    -2.9784841043
   20      C      -2.9712755168    -3.7727187941     0.8460618957
   21      C      -2.4762755168    -1.3477187941     0.4600618957
   22      C      -2.6152755168    -2.6287187941    -0.0579381043
   23      C      -2.1722755168    -0.2807187941    -0.3729381043
   24      C      -2.0392755168    -0.4857187941    -1.7369381043
   25      C      -2.5532755168    -2.8147187941    -1.4339381043
   26      C      -2.2182755168    -1.7547187941    -2.2679381043
   27      H      -2.5732755168    -1.1787187941     1.5240618957
   28      H      -2.0472755168     0.7112812059     0.0390618957
   29      H      -2.2832755168    -3.7847187941     1.6910618957
   30      H      -2.8562755168    -4.7097187941     0.3060618957
   31      H      -1.8312755168     0.3452812059    -2.3939381043
   32      H      -2.7242755168    -3.7937187941    -1.8589381043
   33      H      -2.1412755168    -1.9097187941    -3.3359381043
   34      H      -4.0022885168    -3.7193987941     1.2257568957
 ----------------------------------------------------------------
 Nuclear Repulsion Energy =        1086.18864345 hartrees
 There are       60 alpha and       60 beta electrons
 Requested basis set is def2-TZVPD
 There are 306 shells and 782 basis functions

 Total QAlloc Memory Limit   2000 MB
 Mega-Array Size      1956 MB
 MEM_STATIC part      2000 MB

 Citation of the SMD model:
 Marenich, A.V.; Cramer, C.J.; Truhlar, D.G.
 J. Phys. Chem. B 2009, 113, 6378-6396.
 iSolventCode=           1
 Solvent: water                                                           

 vradii
            1           2           3           4           5           6
    1   1.8500000   1.8500000   1.8500000   1.8500000   1.8500000   1.8500000
            7           8           9          10          11          12
    1   1.8500000   1.8500000   1.8500000   1.8900000   1.2000000   1.2000000
           13          14          15          16          17          18
    1   1.2000000   1.2000000   1.2000000   1.2000000   1.2000000   1.2000000
           19          20          21          22          23          24
    1   1.2000000   1.8500000   1.8500000   1.8500000   1.8500000   1.8500000
           25          26          27          28          29          30
    1   1.8500000   1.8500000   1.2000000   1.2000000   1.2000000   1.2000000
           31          32          33          34
    1   1.2000000   1.2000000   1.2000000   1.2000000
 Changing PCM_VDW_RADII to SMD_RADIUS
 Discretize the solute cavity surface with Lebedev spheres
	Using 110 Lebedev grid points for each H atom
	Using 194 Lebedev grid points for other atoms
	Atomic van der Waals radii will be scaled by 1.20
 Remove points where switching function is < 1.0e-08
 Keep 2450 surface tesserae and discard 2718 interior tesserae
 Molecular Surface Area = 290.011 Angst**2
 A cutoff of  1.0D-14 yielded  39517 shell pairs
 There are    258861 function pairs (    328240 Cartesian)
 Smallest overlap matrix eigenvalue = 3.90E-07
 Linear dependence detected in AO basis
 Tighter screening thresholds may be required for diffuse basis sets
 Use S2THRESH > 14 and THRESH = 14 in case of SCF convergence issues
 Number of orthogonalized atomic orbitals = 776
 Maximum deviation from orthogonality = 2.770E-10

 Scale SEOQF with 1.000000e-01/1.000000e-01/1.000000e-01

 Standard Electronic Orientation quadrupole field applied
 Nucleus-field energy     =     0.0000000264 hartrees

 -----------------------------------------------------------------------
  General SCF calculation program by
  Eric Jon Sundstrom, Paul Horn, Yuezhi Mao, Dmitri Zuev, Alec White,
  David Stuck, Shaama M.S., Shane Yost, Joonho Lee, David Small,
  Daniel Levine, Susi Lehtola, Hugh Burton, Evgeny Epifanovsky,
  Bang C. Huynh
 -----------------------------------------------------------------------
================================================================
                 ALMO-EDA with the EDA2 driver                  
================================================================
 The second-generation ALMO-EDA (for DFT):                      
 P. R. Horn, Y. Mao and M. Head-Gordon, PCCP, 18, 23067 (2016)  
 Decomposition of the frozen energy:                            
 P. R. Horn, Y. Mao and M. Head-Gordon, JCP, 144, 114107 (2016) 
 FERF model for polarization:                                   
 P. R. Horn and M. Head-Gordon, JCP, 143, 114111 (2015)         
Using eda2 option set 1
Option set summary: Frozen orbital wavefunction, initial wavefunction decomposition, and nDQ polarization.
--------------------------------
Printing EDA Options
--------------------------------
eda_child_super_basis      0
fragmo_guess_mode          0
child_mp                   1
child_mp_orders            232
cls_elec                   1
cls_disp                   0
scfmi_mode                 1
scfmi_occs                 0
scfmi_virts                0
frz_relax                  0
frz_relax_method           0
dc_pen_start               0
dc_pen_conv                0
dc_pen_increment           0
dc_pen_steps               0
dc_pen_thresh_factor       0
dc_pen_pre_newton_thresh   0
frz_ortho_decomp           1
frz_ortho_decomp_conv      6
frgm_method                2
scfmi_freeze_ss            0
separate_rehyb             0
plot_diff_den              0
eda_nocv                   0
eda_vct_relax              1
disp_free_x                0
disp_free_c                0
eda_bsse                   0
eda_pct_a                  0
eda_covp                   0
--------------------------------
Attempting to make child job directory: /home/meili/scratch/qchem49721//Frg1/
Attempting to make child job directory: /home/meili/scratch/qchem49721//Frg2/
Creating input file /home/meili/scratch/qchem49721/Frg1.input
using default PutDataFrgm: nothing
calling putenv with: QCSCRATCH=/home/meili/scratch/qchem49721/ 
Spawning Job For Fragment 0
                  Welcome to Q-Chem
     A Quantum Leap Into The Future Of Chemistry


 Q-Chem 5.2 (devel), Q-Chem, Inc., Pleasanton, CA (2019)

 Yihan Shao,  Zhengting Gan,  E. Epifanovsky,  A. T. B. Gilbert,  M. Wormit,  
 J. Kussmann,  A. W. Lange,  A. Behn,  Jia Deng,  Xintian Feng,  D. Ghosh,  
 M. Goldey,  P. R. Horn,  L. D. Jacobson,  I. Kaliman,  T. Kus,  A. Landau,  
 Jie Liu,  E. I. Proynov,  R. M. Richard,  R. P. Steele,  E. J. Sundstrom,  
 H. L. Woodcock III,  P. M. Zimmerman,  D. Zuev,  B. Albrecht,  E. Alguire,  
 S. A. Baeppler,  D. Barton,  Z. Benda,  Y. A. Bernard,  E. J. Berquist,  
 K. B. Bravaya,  H. Burton,  D. Casanova,  Chun-Min Chang,  Yunqing Chen,  
 A. Chien,  K. D. Closser,  M. P. Coons,  S. Coriani,  S. Dasgupta,  
 A. L. Dempwolff,  M. Diedenhofen,  Hainam Do,  R. G. Edgar,  Po-Tung Fang,  
 S. Faraji,  S. Fatehi,  Qingguo Feng,  K. D. Fenk,  J. Fosso-Tande,  
 J. Gayvert,  Qinghui Ge,  A. Ghysels,  G. Gidofalvi,  J. Gomes,  
 J. Gonthier,  A. Gunina,  D. Hait,  M. W. D. Hanson-Heine,  
 P. H. P. Harbach,  A. W. Hauser,  M. F. Herbst,  J. E. Herr,  
 E. G. Hohenstein,  Z. C. Holden,  Kerwin Hui,  B. C. Huynh,  T.-C. Jagau,  
 Hyunjun Ji,  B. Kaduk,  K. Khistyaev,  Jaehoon Kim,  P. Klunzinger,  K. Koh,  
 D. Kosenkov,  L. Koulias,  T. Kowalczyk,  C. M. Krauter,  A. Kunitsa,  
 Ka Un Lao,  A. Laurent,  K. V. Lawler,  Joonho Lee,  D. Lefrancois,  
 S. Lehtola,  D. S. Levine,  Yi-Pei Li,  You-Sheng Lin,  Fenglai Liu,  
 E. Livshits,  A. Luenser,  P. Manohar,  E. Mansoor,  S. F. Manzer,  
 Shan-Ping Mao,  Yuezhi Mao,  N. Mardirossian,  A. V. Marenich,  
 T. Markovich,  L. A. Martinez-Martinez,  S. A. Maurer,  N. J. Mayhall,  
 S. C. McKenzie,  J.-M. Mewes,  P. Morgante,  A. F. Morrison,  
 J. W. Mullinax,  K. Nanda,  T. S. Nguyen-Beck,  R. Olivares-Amaya,  
 J. A. Parkhill,  Zheng Pei,  T. M. Perrine,  F. Plasser,  P. Pokhilko,  
 S. Prager,  A. Prociuk,  E. Ramos,  D. R. Rehn,  F. Rob,  M. Scheurer,  
 M. Schneider,  N. Sergueev,  S. M. Sharada,  S. Sharma,  D. W. Small,  
 T. Stauch,  T. Stein,  Yu-Chuan Su,  A. J. W. Thom,  A. Tkatchenko,  
 T. Tsuchimochi,  N. M. Tubman,  L. Vogt,  M. L. Vidal,  O. Vydrov,  
 M. A. Watson,  J. Wenzel,  M. de Wergifosse,  T. A. Wesolowski,  A. White,  
 J. Witte,  A. Yamada,  Jun Yang,  K. Yao,  S. Yeganeh,  S. R. Yost,  
 Zhi-Qiang You,  A. Zech,  Igor Ying Zhang,  Xing Zhang,  Yan Zhao,  
 Ying Zhu,  B. R. Brooks,  G. K. L. Chan,  C. J. Cramer,  M. S. Gordon,  
 W. J. Hehre,  A. Klamt,  M. W. Schmidt,  C. D. Sherrill,  D. G. Truhlar,  
 A. Aspuru-Guzik,  R. Baer,  A. T. Bell,  N. A. Besley,  Jeng-Da Chai,  
 A. E. DePrince, III,  R. A. DiStasio Jr.,  A. Dreuw,  B. D. Dunietz,  
 T. R. Furlani,  Chao-Ping Hsu,  Yousung Jung,  Jing Kong,  D. S. Lambrecht,  
 WanZhen Liang,  C. Ochsenfeld,  V. A. Rassolov,  L. V. Slipchenko,  
 J. E. Subotnik,  T. Van Voorhis,  J. M. Herbert,  A. I. Krylov,  
 P. M. W. Gill,  M. Head-Gordon

 Contributors to earlier versions of Q-Chem not listed above: 
 R. D. Adamson,  B. Austin,  J. Baker,  G. J. O. Beran,  K. Brandhorst,  
 S. T. Brown,  E. F. C. Byrd,  A. K. Chakraborty,  C.-L. Cheng,  
 Siu Hung Chien,  D. M. Chipman,  D. L. Crittenden,  H. Dachsel,  
 R. J. Doerksen,  A. D. Dutoi,  L. Fusti-Molnar,  W. A. Goddard III,  
 A. Golubeva-Zadorozhnaya,  S. R. Gwaltney,  G. Hawkins,  A. Heyden,  
 S. Hirata,  G. Kedziora,  F. J. Keil,  C. Kelley,  Jihan Kim,  R. A. King,  
 R. Z. Khaliullin,  P. P. Korambath,  W. Kurlancheek,  A. M. Lee,  M. S. Lee,  
 S. V. Levchenko,  Ching Yeh Lin,  D. Liotard,  R. C. Lochan,  I. Lotan,  
 P. E. Maslen,  N. Nair,  D. P. O'Neill,  D. Neuhauser,  E. Neuscamman,  
 C. M. Oana,  R. Olson,  B. Peters,  R. Peverati,  P. A. Pieniazek,  
 Y. M. Rhee,  J. Ritchie,  M. A. Rohrdanz,  E. Rosta,  N. J. Russ,  
 H. F. Schaefer III,  N. E. Schultz,  N. Shenvi,  A. C. Simmonett,  A. Sodt,  
 D. Stuck,  K. S. Thanthiriwatte,  V. Vanovschi,  Tao Wang,  A. Warshel,  
 C. F. Williams,  Q. Wu,  X. Xu,  W. Zhang

 Please cite Q-Chem as follows:
 Y. Shao et al., Mol. Phys. 113, 184-215 (2015)
 DOI: 10.1080/00268976.2014.952696

 Q-Chem 5.2.1 for Intel X86 EM64T Linux

 Parts of Q-Chem use Armadillo 8.300.2 (Tropical Shenanigans).
 http://arma.sourceforge.net/

 Q-Chem begins on Wed Sep 29 08:54:38 2021  

compute-0-7.local
Host: 0

     Scratch files written to /home/meili/scratch/qchem49721//Frg1//
NAlpha2: 70
NElect   70
Mult     1
Symmetry turned off for PCM/SM12/SMD calculation

Checking the input file for inconsistencies... 	...done.

--------------------------------------------------------------
User input:
--------------------------------------------------------------
$molecule
0 1
 6	1.1147244832	1.8082812059	-2.4139381043
 6	1.5937244832	1.1172812059	0.0530618957
 6	1.5627244832	2.0672812059	-1.0249381043
 6	2.0807244832	1.7992812059	1.1990618957
 6	2.0727244832	3.2262812059	-0.5329381043
 6	1.1727244832	-0.2127187941	0.1900618957
 6	1.2757244832	-0.8297187941	1.4340618957
 6	1.7737244832	-0.1347187941	2.5450618957
 6	2.1677244832	1.1882812059	2.4390618957
 7	2.3747244832	3.0772812059	0.8030618957
 1	0.7667244832	-0.7487187941	-0.6569381043
 1	0.9657244832	-1.8527187941	1.5560618957
 1	1.8477244832	-0.6417187941	3.4970618957
 1	0.9927244832	2.7552812059	-2.9429381043
 1	0.1357244832	1.3392812059	-2.3519381043
 1	2.2077244832	4.1382812059	-1.1069381043
 1	2.7577244832	3.8112812059	1.3890618957
 1	2.5687244832	1.7142812059	3.2770618957
 1	1.7901634832	1.1486812059	-2.9784841043
$end
$rem
EDA2		1
METHOD		WB97X-V
BASIS		DEF2-TZVPD
XC_GRID		000099000590
NL_GRID		1
UNRESTRICTED		FALSE
MAX_SCF_CYCLES		200
SYMMETRY		FALSE
SYM_IGNORE		TRUE
BASIS_LIN_DEP_THRESH		6
THRESH		14
SCF_CONVERGENCE		8
SCF_PRINT_FRGM		TRUE
SOLVENT_METHOD		SMD
!required keywords
JOBTYPE		SP
SYM_IGNORE		TRUE
SUBSYSTEM		TRUE
GEN_SCFMAN		TRUE
CHILD_INSTRUCTION		2
SYM_IGNORE		TRUE
SCFMI		0
RI_K 0		
PARI_K 0		
MIN_PARI_K 0		
IARI_K 0		
OCC_RI_K 0		
PURECART		1111
MEM_STATIC		2000
MEM_TOTAL		2000
GUI		0
CHILD_MP		1
CHILD_MP_ORDERS		232
FRZ_RELAX		0
FRZ_RELAX_METHOD		0
EDA_CLS_ELEC		1
EDA_CLS_DISP		0
FRZ_ORTHO_DECOMP		1
EDA2		FALSE
FRGM_METHOD		FALSE
CIS_N_ROOTS  0
LOCAL_CIS    0
CIS_RLX_DNS  1
$end
$smx
SOLVENT			WATER
$end
--------------------------------------------------------------
 ----------------------------------------------------------------
             Standard Nuclear Orientation (Angstroms)
    I     Atom           X                Y                Z
 ----------------------------------------------------------------
    1      C       1.1147244832     1.8082812059    -2.4139381043
    2      C       1.5937244832     1.1172812059     0.0530618957
    3      C       1.5627244832     2.0672812059    -1.0249381043
    4      C       2.0807244832     1.7992812059     1.1990618957
    5      C       2.0727244832     3.2262812059    -0.5329381043
    6      C       1.1727244832    -0.2127187941     0.1900618957
    7      C       1.2757244832    -0.8297187941     1.4340618957
    8      C       1.7737244832    -0.1347187941     2.5450618957
    9      C       2.1677244832     1.1882812059     2.4390618957
   10      N       2.3747244832     3.0772812059     0.8030618957
   11      H       0.7667244832    -0.7487187941    -0.6569381043
   12      H       0.9657244832    -1.8527187941     1.5560618957
   13      H       1.8477244832    -0.6417187941     3.4970618957
   14      H       0.9927244832     2.7552812059    -2.9429381043
   15      H       0.1357244832     1.3392812059    -2.3519381043
   16      H       2.2077244832     4.1382812059    -1.1069381043
   17      H       2.7577244832     3.8112812059     1.3890618957
   18      H       2.5687244832     1.7142812059     3.2770618957
   19      H       1.7901634832     1.1486812059    -2.9784841043
 ----------------------------------------------------------------
 Nuclear Repulsion Energy =         485.56383575 hartrees
 There are       35 alpha and       35 beta electrons
 Requested basis set is def2-TZVPD
 There are 175 shells and 451 basis functions

 Total QAlloc Memory Limit   2000 MB
 Mega-Array Size      1956 MB
 MEM_STATIC part      2000 MB

 Citation of the SMD model:
 Marenich, A.V.; Cramer, C.J.; Truhlar, D.G.
 J. Phys. Chem. B 2009, 113, 6378-6396.
 iSolventCode=           1
 Solvent: water                                                           

 vradii
            1           2           3           4           5           6
    1   1.8500000   1.8500000   1.8500000   1.8500000   1.8500000   1.8500000
            7           8           9          10          11          12
    1   1.8500000   1.8500000   1.8500000   1.8900000   1.2000000   1.2000000
           13          14          15          16          17          18
    1   1.2000000   1.2000000   1.2000000   1.2000000   1.2000000   1.2000000
           19
    1   1.2000000
 Changing PCM_VDW_RADII to SMD_RADIUS
 Discretize the solute cavity surface with Lebedev spheres
	Using 110 Lebedev grid points for each H atom
	Using 194 Lebedev grid points for other atoms
	Atomic van der Waals radii will be scaled by 1.20
 Remove points where switching function is < 1.0e-08
 Keep 1367 surface tesserae and discard 1563 interior tesserae
 Molecular Surface Area = 164.632 Angst**2
 A cutoff of  1.0D-14 yielded  14470 shell pairs
 There are     98246 function pairs (    126416 Cartesian)
 Smallest overlap matrix eigenvalue = 5.17E-07
 Linear dependence detected in AO basis
 Tighter screening thresholds may be required for diffuse basis sets
 Use S2THRESH > 14 and THRESH = 14 in case of SCF convergence issues
 Number of orthogonalized atomic orbitals = 449
 Maximum deviation from orthogonality = 2.257E-10

 Scale SEOQF with 1.000000e-01/1.000000e-01/1.000000e-01

 Standard Electronic Orientation quadrupole field applied
 Nucleus-field energy     =     0.0000000058 hartrees
 Guess from superposition of atomic densities
 Warning:  Energy on first SCF cycle will be non-variational
 SAD guess density has 70.000000 electrons

 -----------------------------------------------------------------------
  General SCF calculation program by
  Eric Jon Sundstrom, Paul Horn, Yuezhi Mao, Dmitri Zuev, Alec White,
  David Stuck, Shaama M.S., Shane Yost, Joonho Lee, David Small,
  Daniel Levine, Susi Lehtola, Hugh Burton, Evgeny Epifanovsky,
  Bang C. Huynh
 -----------------------------------------------------------------------
 Exchange:     0.1670 Hartree-Fock + 1.0000 wB97X-V + LR-HF
 Correlation:  1.0000 wB97X-V
 Using Euler-Maclaurin-Lebedev (99,590) quadrature formula
 Nonlocal Correlation:  VV10 with C = 0.0100 and b = 6.00 and scale = 1.00000
 Grid used for NLC:  SG-1 standard quadrature
Energy prior to optimization (guess energy) = -403.080609060479
Begin Timing: Total SCF Calculation
begin iterations for algorithm: DIIS         
the SCF tolerance is set to 1.00e-08
    1    -403.0806090605      1.67e-03     00000 
    2    -403.1336966440      1.22e-03     00000 
    3    -403.1745384061      2.50e-04     00000 
    4    -403.1764239433      1.18e-04     00000 
    5    -403.1768781440      3.85e-05     00000 
    6    -403.1769253697      1.22e-05     00000 
    7    -403.1769298335      4.23e-06     00000 
    8    -403.1769307424      9.47e-07     00000 
    9    -403.1769308358      4.29e-07     00000 
   10    -403.1769308556      2.17e-07     00000 
   11    -403.1769308615      7.02e-08     00000 
   12    -403.1769308624      3.05e-08     00000 
   13    -403.1769308625      1.10e-08     00000 
   14    -403.1769308625      3.52e-09     00000 Convergence criterion met
Timing for Total SCF: 1563.00s (wall), 9974.46s (cpu)
(3)  G-ENP(liq) elect-nuc-pol free energy of system     -403.176930862 a.u.
(4)  G-CDS(liq) cavity-dispersion-solvent structure 
     free energy                                                3.7847 kcal/mol
(6)  G-S(liq) free energy of system                     -403.170899565 a.u.
E_pcm = -0.0160541926
E_cds = 0.0060312976
Multipole orders to be included
        2
        3
computing dipole RHS
computing quadrupole RHS
total number of RHS in solve_reponses: 8
RHS batch sizes
        8
Beginning Block Conjugate Gradient Iterations. Batch Number: 0
computing hessian-vector products by finite difference
              1      6.76e-01     00000 Conjugate Gradient Iteration
computing hessian-vector products by finite difference
              2      2.19e-01     00000 Conjugate Gradient Iteration
computing hessian-vector products by finite difference
              3      6.81e-02     00000 Conjugate Gradient Iteration
computing hessian-vector products by finite difference
              4      2.89e-02     00000 Conjugate Gradient Iteration
computing hessian-vector products by finite difference
              5      9.55e-03     00000 Conjugate Gradient Iteration
computing hessian-vector products by finite difference
              6      2.43e-03     00000 Conjugate Gradient Iteration
computing hessian-vector products by finite difference
              7      5.37e-04     00000 Conjugate Gradient Iteration
computing hessian-vector products by finite difference
              8      1.00e-04     00000 Conjugate Gradient Iteration
computing hessian-vector products by finite difference
              9      2.02e-05     00000 Conjugate Gradient Iteration
computing hessian-vector products by finite difference
             10      4.03e-06     00000 Conjugate Gradient Iteration
computing hessian-vector products by finite difference
             11      6.07e-07     00000 Conjugate Gradient Iteration
computing hessian-vector products by finite difference
             12      1.10e-07     00000 Conjugate Gradient Iteration
computing hessian-vector products by finite difference
             13      2.19e-08     00000 Conjugate Gradient Iteration
computing hessian-vector products by finite difference
             14      4.03e-09     00000 CG Converged
batch 0 complete
Done Calculating Responses
TESTING ORTHOGONALIZATION OF MULTIPOLE BASIS
Multipole virts passed orthogonality test
Virts Per Order
          105
          175

 --------------------------------------------------------------

                    Orbital Energies (a.u.)
 --------------------------------------------------------------

 Alpha MOs
 -- Occupied --
-14.4423 -10.2982 -10.2900 -10.2677 -10.2656 -10.2644 -10.2632 -10.2601
-10.2559 -10.2528  -1.1103  -0.9764  -0.9288  -0.8662  -0.8580  -0.8119
 -0.7422  -0.7103  -0.6722  -0.6449  -0.5953  -0.5798  -0.5524  -0.5449
 -0.5346  -0.5117  -0.5078  -0.4889  -0.4767  -0.4508  -0.4478  -0.4276
 -0.3756  -0.3140  -0.2892
 -- Virtual --
  0.0564   0.0639   0.0799   0.0823   0.0929   0.1021   0.1038   0.1105
  0.1321   0.1378   0.1410   0.1501   0.1577   0.1696   0.1754   0.1830
  0.1918   0.1978   0.2034   0.2122   0.2163   0.2239   0.2291   0.2483
  0.2525   0.2589   0.2618   0.2673   0.2695   0.2792   0.2796   0.2805
  0.2841   0.2905   0.2924   0.2934   0.3071   0.3146   0.3162   0.3252
  0.3321   0.3350   0.3384   0.3397   0.3464   0.3477   0.3529   0.3554
  0.3618   0.3657   0.3752   0.3807   0.3819   0.3895   0.3909   0.3981
  0.4068   0.4113   0.4130   0.4180   0.4235   0.4246   0.4305   0.4401
  0.4435   0.4518   0.4554   0.4585   0.4624   0.4660   0.4705   0.4760
  0.4885   0.4943   0.4985   0.5015   0.5054   0.5152   0.5235   0.5257
  0.5342   0.5411   0.5472   0.5500   0.5522   0.5590   0.5606   0.5659
  0.5726   0.5822   0.5848   0.5923   0.6080   0.6147   0.6184   0.6276
  0.6375   0.6405   0.6456   0.6542   0.6561   0.6594   0.6793   0.6824
  0.6878   0.6949   0.6995   0.7040   0.7062   0.7174   0.7246   0.7288
  0.7354   0.7438   0.7491   0.7546   0.7614   0.7665   0.7712   0.7781
  0.7804   0.7839   0.7879   0.7929   0.7991   0.8038   0.8114   0.8122
  0.8200   0.8260   0.8355   0.8403   0.8406   0.8505   0.8526   0.8553
  0.8612   0.8677   0.8820   0.9010   0.9047   0.9079   0.9186   0.9307
  0.9432   0.9533   0.9743   0.9801   0.9944   1.0086   1.0123   1.0219
  1.0317   1.0440   1.0496   1.0587   1.0693   1.0776   1.0884   1.1015
  1.1088   1.1191   1.1332   1.1454   1.1529   1.1700   1.1925   1.2151
  1.2255   1.2559   1.2630   1.2727   1.2939   1.3067   1.3203   1.3435
  1.3516   1.3842   1.3967   1.3996   1.4144   1.4333   1.4494   1.4645
  1.4969   1.5243   1.5398   1.5608   1.5728   1.5856   1.6092   1.6201
  1.6374   1.6585   1.6710   1.6993   1.7076   1.7266   1.7365   1.7571
  1.7727   1.7963   1.8232   1.8456   1.8501   1.8681   1.8763   1.8844
  1.8940   1.9042   1.9249   1.9343   1.9539   1.9586   1.9754   1.9785
  1.9985   2.0014   2.0042   2.0145   2.0313   2.0371   2.0666   2.0723
  2.0882   2.1007   2.1270   2.1365   2.1758   2.1921   2.1989   2.2100
  2.2343   2.2612   2.3011   2.3137   2.3218   2.3354   2.3485   2.3648
  2.4020   2.4058   2.4366   2.4514   2.4715   2.4984   2.5083   2.5221
  2.5484   2.5795   2.5915   2.6034   2.6200   2.6305   2.6552   2.6773
  2.6919   2.7022   2.7303   2.7621   2.7683   2.7789   2.7904   2.7972
  2.8164   2.8297   2.8346   2.8579   2.8617   2.8862   2.9012   2.9066
  2.9196   2.9291   2.9481   2.9651   2.9769   2.9942   3.0192   3.0337
  3.0449   3.0494   3.0742   3.0762   3.1151   3.1250   3.1307   3.1487
  3.1598   3.1752   3.1826   3.2161   3.2263   3.2412   3.2452   3.2784
  3.2922   3.3001   3.3078   3.3206   3.3368   3.3495   3.3683   3.3813
  3.3957   3.4043   3.4274   3.4361   3.4454   3.4508   3.4581   3.4735
  3.4842   3.4908   3.5101   3.5193   3.5206   3.5360   3.5499   3.5561
  3.5823   3.5890   3.6020   3.6202   3.6332   3.6410   3.6669   3.6744
  3.6790   3.7133   3.7190   3.7253   3.7421   3.7565   3.7697   3.7809
  3.7940   3.8246   3.8858   3.8964   3.9202   3.9401   3.9529   3.9758
  4.0414   4.0513   4.0643   4.1237   4.1494   4.1786   4.1996   4.2226
  4.2407   4.2525   4.2803   4.2889   4.2985   4.3174   4.3572   4.3747
  4.3765   4.4167   4.4336   4.4574   4.4730   4.4979   4.5132   4.5526
  4.6178   4.6388   4.6523   4.6811   4.7547   4.7809   4.8354   4.8464
  4.9324   4.9485   4.9659   4.9869   4.9998   5.0258   5.0725   5.0799
  5.1222   5.1325   5.1591   5.2089   5.2317   5.2645   5.3956   5.4155
  5.4611   5.5070   5.5661   5.6006   5.6579   5.7126   5.8199   5.8280
  5.9661   5.9843   6.2877   6.3526  22.6933  22.7578  22.9446  22.9529
 22.9914  23.2061  23.2677  23.4845  23.8060  32.8482
 --------------------------------------------------------------

          Ground-State Mulliken Net Atomic Charges

     Atom                 Charge (a.u.)
  ----------------------------------------
      1 C                    -0.892551
      2 C                     0.719091
      3 C                     0.608862
      4 C                    -0.202862
      5 C                    -0.956992
      6 C                    -0.392521
      7 C                    -0.731824
      8 C                    -0.454722
      9 C                    -0.838615
     10 N                     0.124118
     11 H                     0.422865
     12 H                     0.421419
     13 H                     0.404013
     14 H                     0.300828
     15 H                     0.266306
     16 H                     0.318754
     17 H                     0.212404
     18 H                     0.430888
     19 H                     0.240538
  ----------------------------------------
  Sum of atomic charges =     0.000000

 -----------------------------------------------------------------
                    Cartesian Multipole Moments
 -----------------------------------------------------------------
    Charge (ESU x 10^10)
                 0.0000
    Dipole Moment (Debye)
         X       0.9014      Y       2.8486      Z       0.2068
       Tot       2.9949
    Quadrupole Moments (Debye-Ang)
        XX     -59.0631     XY      11.5802     YY     -41.1367
        XZ       4.3420     YZ       2.6621     ZZ     -52.5428
    Octopole Moments (Debye-Ang^2)
       XXX    -308.3430    XXY     -45.2525    XYY     -47.4912
       YYY    -152.8680    XXZ     -12.5452    XYZ      15.6134
       YYZ      -9.8120    XZZ     -80.7268    YZZ     -62.6409
       ZZZ     -57.3502
    Hexadecapole Moments (Debye-Ang^3)
      XXXX   -1216.1024   XXXY    -381.3058   XXYY    -282.9670
      XYYY    -220.4134   YYYY    -981.3305   XXXZ    -162.9687
      XXYZ      78.8642   XYYZ      -7.1815   YYYZ     104.1836
      XXZZ    -328.1232   XYZZ    -106.3109   YYZZ    -326.1510
      XZZZ    -137.3603   YZZZ      76.2945   ZZZZ    -968.1435
 -----------------------------------------------------------------
Archival summary:
1\1\compute-0-7.local\SP\ProcedureUnspecified\BasisUnspecified\199\meili\WedSep2916:54:392021WedSep2916:54:392021\0\\#,ProcedureUnspecified,BasisUnspecified,\\0,1\C\C,1,1.40175\H,2,1.08145,1,120.429\C,2,1.39242,1,119.047,3,-179.529,0\H,4,1.07588,2,120.088,1,-179.455,0\C,4,1.40191,2,120.972,1,0.914231,0\H,6,1.08112,4,119.319,2,-179.633,0\C,6,1.38449,4,120.941,2,0.499739,0\H,8,1.06758,6,121.173,4,-178.557,0\C,8,1.3851,6,118.177,4,-1.22447,0\N,10,1.36987,8,131.061,6,178.95,0\H,11,1.01432,10,126.096,8,2.49199,0\C,11,1.37779,10,109.521,8,-177.642,0\H,13,1.08602,11,125.175,10,-179.93,0\C,13,1.35847,11,109.951,10,0.892922,0\C,15,1.48226,13,127.008,11,-179.913,0\H,16,1.08731,15,107.102,13,-131.764,0\H,16,1.09157,15,109.653,13,-15.3716,0\H,16,1.1,15,113.586,13,107.996,0\\\@

 Total job time:  28800.76s(wall), 184652.45s(cpu) 
 Wed Sep 29 16:54:39 2021

        *************************************************************
        *                                                           *
        *  Thank you very much for using Q-Chem.  Have a nice day.  *
        *                                                           *
        *************************************************************


Done Job For Fragment 0
calling putenv with: QCSCRATCH=/home/meili/scratch 
calling putenv with: QCTHREADS=8 
Creating input file /home/meili/scratch/qchem49721/Frg2.input
using default PutDataFrgm: nothing
calling putenv with: QCSCRATCH=/home/meili/scratch/qchem49721/ 
Spawning Job For Fragment 1
                  Welcome to Q-Chem
     A Quantum Leap Into The Future Of Chemistry


 Q-Chem 5.2 (devel), Q-Chem, Inc., Pleasanton, CA (2019)

 Yihan Shao,  Zhengting Gan,  E. Epifanovsky,  A. T. B. Gilbert,  M. Wormit,  
 J. Kussmann,  A. W. Lange,  A. Behn,  Jia Deng,  Xintian Feng,  D. Ghosh,  
 M. Goldey,  P. R. Horn,  L. D. Jacobson,  I. Kaliman,  T. Kus,  A. Landau,  
 Jie Liu,  E. I. Proynov,  R. M. Richard,  R. P. Steele,  E. J. Sundstrom,  
 H. L. Woodcock III,  P. M. Zimmerman,  D. Zuev,  B. Albrecht,  E. Alguire,  
 S. A. Baeppler,  D. Barton,  Z. Benda,  Y. A. Bernard,  E. J. Berquist,  
 K. B. Bravaya,  H. Burton,  D. Casanova,  Chun-Min Chang,  Yunqing Chen,  
 A. Chien,  K. D. Closser,  M. P. Coons,  S. Coriani,  S. Dasgupta,  
 A. L. Dempwolff,  M. Diedenhofen,  Hainam Do,  R. G. Edgar,  Po-Tung Fang,  
 S. Faraji,  S. Fatehi,  Qingguo Feng,  K. D. Fenk,  J. Fosso-Tande,  
 J. Gayvert,  Qinghui Ge,  A. Ghysels,  G. Gidofalvi,  J. Gomes,  
 J. Gonthier,  A. Gunina,  D. Hait,  M. W. D. Hanson-Heine,  
 P. H. P. Harbach,  A. W. Hauser,  M. F. Herbst,  J. E. Herr,  
 E. G. Hohenstein,  Z. C. Holden,  Kerwin Hui,  B. C. Huynh,  T.-C. Jagau,  
 Hyunjun Ji,  B. Kaduk,  K. Khistyaev,  Jaehoon Kim,  P. Klunzinger,  K. Koh,  
 D. Kosenkov,  L. Koulias,  T. Kowalczyk,  C. M. Krauter,  A. Kunitsa,  
 Ka Un Lao,  A. Laurent,  K. V. Lawler,  Joonho Lee,  D. Lefrancois,  
 S. Lehtola,  D. S. Levine,  Yi-Pei Li,  You-Sheng Lin,  Fenglai Liu,  
 E. Livshits,  A. Luenser,  P. Manohar,  E. Mansoor,  S. F. Manzer,  
 Shan-Ping Mao,  Yuezhi Mao,  N. Mardirossian,  A. V. Marenich,  
 T. Markovich,  L. A. Martinez-Martinez,  S. A. Maurer,  N. J. Mayhall,  
 S. C. McKenzie,  J.-M. Mewes,  P. Morgante,  A. F. Morrison,  
 J. W. Mullinax,  K. Nanda,  T. S. Nguyen-Beck,  R. Olivares-Amaya,  
 J. A. Parkhill,  Zheng Pei,  T. M. Perrine,  F. Plasser,  P. Pokhilko,  
 S. Prager,  A. Prociuk,  E. Ramos,  D. R. Rehn,  F. Rob,  M. Scheurer,  
 M. Schneider,  N. Sergueev,  S. M. Sharada,  S. Sharma,  D. W. Small,  
 T. Stauch,  T. Stein,  Yu-Chuan Su,  A. J. W. Thom,  A. Tkatchenko,  
 T. Tsuchimochi,  N. M. Tubman,  L. Vogt,  M. L. Vidal,  O. Vydrov,  
 M. A. Watson,  J. Wenzel,  M. de Wergifosse,  T. A. Wesolowski,  A. White,  
 J. Witte,  A. Yamada,  Jun Yang,  K. Yao,  S. Yeganeh,  S. R. Yost,  
 Zhi-Qiang You,  A. Zech,  Igor Ying Zhang,  Xing Zhang,  Yan Zhao,  
 Ying Zhu,  B. R. Brooks,  G. K. L. Chan,  C. J. Cramer,  M. S. Gordon,  
 W. J. Hehre,  A. Klamt,  M. W. Schmidt,  C. D. Sherrill,  D. G. Truhlar,  
 A. Aspuru-Guzik,  R. Baer,  A. T. Bell,  N. A. Besley,  Jeng-Da Chai,  
 A. E. DePrince, III,  R. A. DiStasio Jr.,  A. Dreuw,  B. D. Dunietz,  
 T. R. Furlani,  Chao-Ping Hsu,  Yousung Jung,  Jing Kong,  D. S. Lambrecht,  
 WanZhen Liang,  C. Ochsenfeld,  V. A. Rassolov,  L. V. Slipchenko,  
 J. E. Subotnik,  T. Van Voorhis,  J. M. Herbert,  A. I. Krylov,  
 P. M. W. Gill,  M. Head-Gordon

 Contributors to earlier versions of Q-Chem not listed above: 
 R. D. Adamson,  B. Austin,  J. Baker,  G. J. O. Beran,  K. Brandhorst,  
 S. T. Brown,  E. F. C. Byrd,  A. K. Chakraborty,  C.-L. Cheng,  
 Siu Hung Chien,  D. M. Chipman,  D. L. Crittenden,  H. Dachsel,  
 R. J. Doerksen,  A. D. Dutoi,  L. Fusti-Molnar,  W. A. Goddard III,  
 A. Golubeva-Zadorozhnaya,  S. R. Gwaltney,  G. Hawkins,  A. Heyden,  
 S. Hirata,  G. Kedziora,  F. J. Keil,  C. Kelley,  Jihan Kim,  R. A. King,  
 R. Z. Khaliullin,  P. P. Korambath,  W. Kurlancheek,  A. M. Lee,  M. S. Lee,  
 S. V. Levchenko,  Ching Yeh Lin,  D. Liotard,  R. C. Lochan,  I. Lotan,  
 P. E. Maslen,  N. Nair,  D. P. O'Neill,  D. Neuhauser,  E. Neuscamman,  
 C. M. Oana,  R. Olson,  B. Peters,  R. Peverati,  P. A. Pieniazek,  
 Y. M. Rhee,  J. Ritchie,  M. A. Rohrdanz,  E. Rosta,  N. J. Russ,  
 H. F. Schaefer III,  N. E. Schultz,  N. Shenvi,  A. C. Simmonett,  A. Sodt,  
 D. Stuck,  K. S. Thanthiriwatte,  V. Vanovschi,  Tao Wang,  A. Warshel,  
 C. F. Williams,  Q. Wu,  X. Xu,  W. Zhang

 Please cite Q-Chem as follows:
 Y. Shao et al., Mol. Phys. 113, 184-215 (2015)
 DOI: 10.1080/00268976.2014.952696

 Q-Chem 5.2.1 for Intel X86 EM64T Linux

 Parts of Q-Chem use Armadillo 8.300.2 (Tropical Shenanigans).
 http://arma.sourceforge.net/

 Q-Chem begins on Wed Sep 29 16:54:40 2021  

compute-0-7.local
Host: 0

     Scratch files written to /home/meili/scratch/qchem49721//Frg2//
NAlpha2: 50
NElect   50
Mult     1
Symmetry turned off for PCM/SM12/SMD calculation

Checking the input file for inconsistencies... 	...done.

--------------------------------------------------------------
User input:
--------------------------------------------------------------
$molecule
0 1
 6	-2.9712755168	-3.7727187941	0.8460618957
 6	-2.4762755168	-1.3477187941	0.4600618957
 6	-2.6152755168	-2.6287187941	-0.0579381043
 6	-2.1722755168	-0.2807187941	-0.3729381043
 6	-2.0392755168	-0.4857187941	-1.7369381043
 6	-2.5532755168	-2.8147187941	-1.4339381043
 6	-2.2182755168	-1.7547187941	-2.2679381043
 1	-2.5732755168	-1.1787187941	1.5240618957
 1	-2.0472755168	0.7112812059	0.0390618957
 1	-2.2832755168	-3.7847187941	1.6910618957
 1	-2.8562755168	-4.7097187941	0.3060618957
 1	-1.8312755168	0.3452812059	-2.3939381043
 1	-2.7242755168	-3.7937187941	-1.8589381043
 1	-2.1412755168	-1.9097187941	-3.3359381043
 1	-4.0022885168	-3.7193987941	1.2257568957
$end
$rem
EDA2		1
METHOD		WB97X-V
BASIS		DEF2-TZVPD
XC_GRID		000099000590
NL_GRID		1
UNRESTRICTED		FALSE
MAX_SCF_CYCLES		200
SYMMETRY		FALSE
SYM_IGNORE		TRUE
BASIS_LIN_DEP_THRESH		6
THRESH		14
SCF_CONVERGENCE		8
SCF_PRINT_FRGM		TRUE
SOLVENT_METHOD		SMD
!required keywords
JOBTYPE		SP
SYM_IGNORE		TRUE
SUBSYSTEM		TRUE
GEN_SCFMAN		TRUE
CHILD_INSTRUCTION		2
SYM_IGNORE		TRUE
SCFMI		0
RI_K 0		
PARI_K 0		
MIN_PARI_K 0		
IARI_K 0		
OCC_RI_K 0		
PURECART		1111
MEM_STATIC		2000
MEM_TOTAL		2000
GUI		0
CHILD_MP		1
CHILD_MP_ORDERS		232
FRZ_RELAX		0
FRZ_RELAX_METHOD		0
EDA_CLS_ELEC		1
EDA_CLS_DISP		0
FRZ_ORTHO_DECOMP		1
EDA2		FALSE
FRGM_METHOD		FALSE
CIS_N_ROOTS  0
LOCAL_CIS    0
CIS_RLX_DNS  1
$end
$smx
SOLVENT			WATER
$end
--------------------------------------------------------------
 ----------------------------------------------------------------
             Standard Nuclear Orientation (Angstroms)
    I     Atom           X                Y                Z
 ----------------------------------------------------------------
    1      C      -2.9712755168    -3.7727187941     0.8460618957
    2      C      -2.4762755168    -1.3477187941     0.4600618957
    3      C      -2.6152755168    -2.6287187941    -0.0579381043
    4      C      -2.1722755168    -0.2807187941    -0.3729381043
    5      C      -2.0392755168    -0.4857187941    -1.7369381043
    6      C      -2.5532755168    -2.8147187941    -1.4339381043
    7      C      -2.2182755168    -1.7547187941    -2.2679381043
    8      H      -2.5732755168    -1.1787187941     1.5240618957
    9      H      -2.0472755168     0.7112812059     0.0390618957
   10      H      -2.2832755168    -3.7847187941     1.6910618957
   11      H      -2.8562755168    -4.7097187941     0.3060618957
   12      H      -1.8312755168     0.3452812059    -2.3939381043
   13      H      -2.7242755168    -3.7937187941    -1.8589381043
   14      H      -2.1412755168    -1.9097187941    -3.3359381043
   15      H      -4.0022885168    -3.7193987941     1.2257568957
 ----------------------------------------------------------------
 Nuclear Repulsion Energy =         270.62840259 hartrees
 There are       25 alpha and       25 beta electrons
 Requested basis set is def2-TZVPD
 There are 131 shells and 331 basis functions

 Total QAlloc Memory Limit   2000 MB
 Mega-Array Size      1956 MB
 MEM_STATIC part      2000 MB

 Citation of the SMD model:
 Marenich, A.V.; Cramer, C.J.; Truhlar, D.G.
 J. Phys. Chem. B 2009, 113, 6378-6396.
 iSolventCode=           1
 Solvent: water                                                           

 vradii
            1           2           3           4           5           6
    1   1.8500000   1.8500000   1.8500000   1.8500000   1.8500000   1.8500000
            7           8           9          10          11          12
    1   1.8500000   1.2000000   1.2000000   1.2000000   1.2000000   1.2000000
           13          14          15
    1   1.2000000   1.2000000   1.2000000
 Changing PCM_VDW_RADII to SMD_RADIUS
 Discretize the solute cavity surface with Lebedev spheres
	Using 110 Lebedev grid points for each H atom
	Using 194 Lebedev grid points for other atoms
	Atomic van der Waals radii will be scaled by 1.20
 Remove points where switching function is < 1.0e-08
 Keep 1089 surface tesserae and discard 1149 interior tesserae
 Molecular Surface Area = 131.677 Angst**2

                       Distance Matrix (Angstroms)
             C (  1)   C (  2)   C (  3)   C (  4)   C (  5)   C (  6)
   C (  2)  2.504924
   C (  3)  1.500896  1.388743
   C (  4)  3.783970  1.387369  2.410099
   C (  5)  4.283093  2.400171  2.782672  1.385716
   C (  6)  2.508164  2.396926  1.389898  2.773452  2.404214
   C (  7)  3.786335  2.770234  2.409478  2.401212  1.387214  1.389741
   H (  8)  2.710521  1.081696  2.146390  2.136777  3.376318  3.380334
   H (  9)  4.648793  2.144939  3.389341  1.081403  2.141740  3.854665
   H ( 10)  1.089731  2.737075  2.122631  4.068222  4.763835  3.283203
   H ( 11)  1.087563  3.386910  2.126297  4.532652  4.762721  2.590451
   H ( 12)  5.362380  3.380472  3.862153  2.143035  1.079571  3.380604
   H ( 13)  2.716335  3.379672  2.147721  3.854098  3.380381  1.080883
   H ( 14)  4.652826  3.851972  3.389236  3.381416  2.143591  2.146246
   H ( 15)  1.100000  2.922306  2.182031  4.210617  4.804963  3.161022
             C (  7)   H (  8)   H (  9)   H ( 10)   H ( 11)   H ( 12)
   H (  8)  3.851891
   H (  9)  3.381220  2.460488
   H ( 10)  4.449585  2.627399  4.795708
   H ( 11)  3.970459  3.745874  5.487532  1.761300
   H ( 12)  2.139076  4.268942  2.469838  5.826528  5.821825
   H ( 13)  2.140289  4.278518  4.935155  3.577298  2.354507  4.267903
   H ( 14)  1.081933  4.933618  4.274237  5.367170  4.649235  2.463430
   H ( 15)  4.387320  2.930208  4.986105  1.782072  1.771981  5.859788
             H ( 13)   H ( 14)
   H ( 14)  2.463914
   H ( 15)  3.339788  5.248559

 A cutoff of  1.0D-14 yielded   8361 shell pairs
 There are     54505 function pairs (     69459 Cartesian)
 Smallest overlap matrix eigenvalue = 6.15E-07
 Linear dependence detected in AO basis
 Tighter screening thresholds may be required for diffuse basis sets
 Use S2THRESH > 14 and THRESH = 14 in case of SCF convergence issues
 Number of orthogonalized atomic orbitals = 330
 Maximum deviation from orthogonality = 1.487E-10

 Scale SEOQF with 1.000000e-01/1.000000e-01/1.000000e-01

 Standard Electronic Orientation quadrupole field applied
 Nucleus-field energy     =     0.0000000206 hartrees
 Guess from superposition of atomic densities
 Warning:  Energy on first SCF cycle will be non-variational
 SAD guess density has 50.000000 electrons

 -----------------------------------------------------------------------
  General SCF calculation program by
  Eric Jon Sundstrom, Paul Horn, Yuezhi Mao, Dmitri Zuev, Alec White,
  David Stuck, Shaama M.S., Shane Yost, Joonho Lee, David Small,
  Daniel Levine, Susi Lehtola, Hugh Burton, Evgeny Epifanovsky,
  Bang C. Huynh
 -----------------------------------------------------------------------
 Exchange:     0.1670 Hartree-Fock + 1.0000 wB97X-V + LR-HF
 Correlation:  1.0000 wB97X-V
 Using Euler-Maclaurin-Lebedev (99,590) quadrature formula
 Nonlocal Correlation:  VV10 with C = 0.0100 and b = 6.00 and scale = 1.00000
 Grid used for NLC:  SG-1 standard quadrature
Energy prior to optimization (guess energy) = -271.525991873321
Begin Timing: Total SCF Calculation
begin iterations for algorithm: DIIS         
the SCF tolerance is set to 1.00e-08
    1    -271.5259918733      1.86e-03     00000 
    2    -271.5640975921      1.18e-03     00000 
    3    -271.5844347586      1.55e-04     00000 
    4    -271.5851025289      4.39e-05     00000 
    5    -271.5851481232      2.07e-05     00000 
    6    -271.5851553463      5.49e-06     00000 
    7    -271.5851560695      1.79e-06     00000 
    8    -271.5851561250      3.88e-07     00000 
    9    -271.5851561302      9.84e-08     00000 
   10    -271.5851561305      3.62e-08     00000 
   11    -271.5851561306      1.75e-08     00000 
   12    -271.5851561306      5.88e-09     00000 Convergence criterion met
Timing for Total SCF: 544.00s (wall), 3316.24s (cpu)
(3)  G-ENP(liq) elect-nuc-pol free energy of system     -271.585156131 a.u.
(4)  G-CDS(liq) cavity-dispersion-solvent structure 
     free energy                                                3.1375 kcal/mol
(6)  G-S(liq) free energy of system                     -271.580156280 a.u.
E_pcm = -0.0073296716
E_cds = 0.0049998508
Multipole orders to be included
        2
        3
computing dipole RHS
computing quadrupole RHS
total number of RHS in solve_reponses: 8
RHS batch sizes
        8
Beginning Block Conjugate Gradient Iterations. Batch Number: 0
computing hessian-vector products by finite difference
              1      6.29e-01     00000 Conjugate Gradient Iteration
computing hessian-vector products by finite difference
              2      1.96e-01     00000 Conjugate Gradient Iteration
computing hessian-vector products by finite difference
              3      4.69e-02     00000 Conjugate Gradient Iteration
computing hessian-vector products by finite difference
              4      1.16e-02     00000 Conjugate Gradient Iteration
computing hessian-vector products by finite difference
              5      2.03e-03     00000 Conjugate Gradient Iteration
computing hessian-vector products by finite difference
              6      5.71e-04     00000 Conjugate Gradient Iteration
computing hessian-vector products by finite difference
              7      1.35e-04     00000 Conjugate Gradient Iteration
computing hessian-vector products by finite difference
              8      2.25e-05     00000 Conjugate Gradient Iteration
computing hessian-vector products by finite difference
              9      3.10e-06     00000 Conjugate Gradient Iteration
computing hessian-vector products by finite difference
             10      4.58e-07     00000 Conjugate Gradient Iteration
computing hessian-vector products by finite difference
             11      8.58e-08     00000 Conjugate Gradient Iteration
computing hessian-vector products by finite difference
             12      1.76e-08     00000 Conjugate Gradient Iteration
computing hessian-vector products by finite difference
             13      2.64e-09     00000 CG Converged
batch 0 complete
Done Calculating Responses
TESTING ORTHOGONALIZATION OF MULTIPOLE BASIS
Multipole virts passed orthogonality test
Virts Per Order
           75
          125

 --------------------------------------------------------------

                    Orbital Energies (a.u.)
 --------------------------------------------------------------

 Alpha MOs
 -- Occupied --
-10.2754 -10.2665 -10.2664 -10.2632 -10.2632 -10.2627 -10.2524  -0.9954
 -0.9028  -0.8754  -0.8073  -0.7253  -0.7005  -0.6248  -0.5695  -0.5594
 -0.5292  -0.5244  -0.5081  -0.4803  -0.4703  -0.4355  -0.4338  -0.3468
 -0.3349
 -- Virtual --
  0.0672   0.0679   0.0740   0.0849   0.0898   0.1096   0.1158   0.1178
  0.1387   0.1545   0.1705   0.1744   0.1894   0.1931   0.2001   0.2097
  0.2266   0.2325   0.2400   0.2421   0.2496   0.2623   0.2657   0.2739
  0.2817   0.2874   0.2915   0.2975   0.3018   0.3069   0.3103   0.3177
  0.3227   0.3314   0.3356   0.3438   0.3569   0.3585   0.3727   0.3799
  0.3821   0.3858   0.3924   0.3954   0.3982   0.4037   0.4051   0.4096
  0.4210   0.4328   0.4373   0.4435   0.4466   0.4528   0.4574   0.4598
  0.4694   0.4775   0.4816   0.4887   0.4952   0.5027   0.5173   0.5209
  0.5240   0.5300   0.5384   0.5453   0.5495   0.5556   0.5598   0.5719
  0.5772   0.5888   0.5963   0.5974   0.6044   0.6297   0.6390   0.6450
  0.6638   0.6748   0.6788   0.6844   0.6903   0.7067   0.7214   0.7291
  0.7317   0.7354   0.7485   0.7677   0.7695   0.7718   0.7797   0.7876
  0.7977   0.7988   0.8030   0.8079   0.8143   0.8282   0.8324   0.8366
  0.8420   0.8422   0.8469   0.8639   0.8701   0.8716   0.8873   0.9037
  0.9139   0.9268   0.9376   0.9448   0.9617   1.0142   1.0357   1.0381
  1.0494   1.0647   1.0739   1.0774   1.0924   1.0988   1.1095   1.1496
  1.1698   1.1778   1.2679   1.2767   1.3186   1.3346   1.3544   1.3618
  1.3824   1.4463   1.4558   1.4663   1.4810   1.4845   1.5365   1.5484
  1.6009   1.6148   1.6276   1.6310   1.6734   1.7043   1.7413   1.7756
  1.7871   1.8032   1.8050   1.8135   1.8499   1.8634   1.8695   1.9111
  1.9252   1.9391   1.9495   1.9758   1.9931   2.0001   2.0178   2.0314
  2.0410   2.0474   2.0752   2.0985   2.1142   2.1304   2.1783   2.1951
  2.2026   2.2418   2.2567   2.2774   2.2945   2.3202   2.3895   2.4068
  2.4155   2.4239   2.4696   2.5179   2.5510   2.5573   2.5767   2.6119
  2.6353   2.6488   2.6658   2.6823   2.7010   2.7140   2.7698   2.7839
  2.7897   2.8180   2.8243   2.8538   2.8701   2.9015   2.9126   2.9227
  2.9406   2.9499   2.9851   2.9873   3.0023   3.0149   3.0232   3.0586
  3.0720   3.0921   3.1067   3.1429   3.1644   3.1922   3.2033   3.2175
  3.2286   3.2559   3.2959   3.2999   3.3585   3.3627   3.3782   3.3838
  3.4101   3.4338   3.4463   3.4583   3.4674   3.4796   3.4884   3.5029
  3.5194   3.5401   3.5504   3.5518   3.5657   3.5762   3.5923   3.6121
  3.6247   3.6334   3.6723   3.7001   3.7337   3.7490   3.7801   3.8176
  3.8608   3.9077   3.9329   3.9658   3.9805   4.0019   4.0466   4.0630
  4.1245   4.2102   4.2763   4.2835   4.3036   4.3164   4.3328   4.3516
  4.3741   4.3897   4.3963   4.4088   4.4352   4.4676   4.5106   4.5477
  4.6141   4.6361   4.7764   4.7977   4.8407   4.8752   4.9164   4.9601
  5.0388   5.0579   5.1795   5.2672   5.3885   5.3977   5.4928   5.5249
  5.6704   5.8340  22.5869  22.6980  22.9050  22.9180  23.0332  23.0995
 23.4422
 --------------------------------------------------------------

          Ground-State Mulliken Net Atomic Charges

     Atom                 Charge (a.u.)
  ----------------------------------------
      1 C                    -1.052312
      2 C                    -0.387386
      3 C                     0.828752
      4 C                    -0.520396
      5 C                    -0.527764
      6 C                    -0.469065
      7 C                    -0.555718
      8 H                     0.391533
      9 H                     0.370116
     10 H                     0.273341
     11 H                     0.292476
     12 H                     0.392470
     13 H                     0.355989
     14 H                     0.364605
     15 H                     0.243359
  ----------------------------------------
  Sum of atomic charges =     0.000000

 -----------------------------------------------------------------
                    Cartesian Multipole Moments
 -----------------------------------------------------------------
    Charge (ESU x 10^10)
                -0.0000
    Dipole Moment (Debye)
         X      -0.2226      Y      -0.3749      Z       0.3296
       Tot       0.5466
    Quadrupole Moments (Debye-Ang)
        XX     -44.8881     XY       2.9841     YY     -36.4068
        XZ      -1.6057     YZ      -0.2585     ZZ     -37.9843
    Octopole Moments (Debye-Ang^2)
       XXX     331.2188    XXY      73.7910    XYY      83.6320
       YYY     218.3146    XXZ      36.4729    XYZ       0.1227
       YYZ      21.3874    XZZ      95.2633    YZZ      73.9827
       ZZZ      65.8947
    Hexadecapole Moments (Debye-Ang^3)
      XXXX   -1704.5803   XXXY    -635.6009   XXYY    -453.0814
      XYYY    -563.7625   YYYY   -1313.5698   XXXZ    -208.9168
      XXYZ     -35.4115   XYYZ     -38.1313   YYYZ     -51.1268
      XXZZ    -347.1586   XYZZ    -197.2764   YYZZ    -299.1223
      XZZZ    -134.6970   YZZZ     -58.9448   ZZZZ    -463.1631
 -----------------------------------------------------------------
Archival summary:
1\1\compute-0-7.local\SP\ProcedureUnspecified\BasisUnspecified\78\meili\WedSep2920:31:082021WedSep2920:31:082021\0\\#,ProcedureUnspecified,BasisUnspecified,\\0,1\C\C,1,1.38874\H,2,1.0817,1,120.135\C,2,1.38737,1,120.49,3,178.036,0\H,4,1.0814,2,120.137,1,-178.866,0\C,4,1.38572,2,119.885,1,1.64973,0\H,6,1.07957,4,120.242,2,178.214,0\C,6,1.38721,4,119.982,2,0.398235,0\H,8,1.08193,6,119.982,4,178.32,0\C,8,1.38974,6,119.942,4,1.09621,0\H,10,1.08088,8,119.539,6,177.922,0\C,1,1.5009,2,120.143,3,3.18945,0\H,12,1.08756,1,109.424,2,-169.672,0\H,12,1.08973,1,109.007,2,-51.7837,0\H,12,1.1,1,113.158,2,69.601,0\\\@

 Total job time:  12987.99s(wall), 76734.81s(cpu) 
 Wed Sep 29 20:31:08 2021

        *************************************************************
        *                                                           *
        *  Thank you very much for using Q-Chem.  Have a nice day.  *
        *                                                           *
        *************************************************************


Done Job For Fragment 1
calling putenv with: QCSCRATCH=/home/meili/scratch 
calling putenv with: QCTHREADS=8 
Doing General SCFMI
 Exchange:     0.1670 Hartree-Fock + 1.0000 wB97X-V + LR-HF
 Correlation:  1.0000 wB97X-V
 Using Euler-Maclaurin-Lebedev (99,590) quadrature formula
 Nonlocal Correlation:  VV10 with C = 0.0100 and b = 6.00 and scale = 1.00000
 Grid used for NLC:  SG-1 standard quadrature
performing fock build before subrot guess so that all methods have access
Printing subrot_rss_gen Method Specification:
Occupied Subspace Method is 0
Virtual Subspace Method is 0
Energy of the unrelaxed supersystem initial determinant -674.740962723140
performing fock build before subrot guess so that all methods have access
Printing subrot_rss_gen Method Specification:
Occupied Subspace Method is 0
Virtual Subspace Method is 0
Energy of the unrelaxed supersystem initial determinant w/ solvent -674.764006634250
write pseudocanon occs and virts to disk
write pseudocanon orbital energies to disk
Tolerance of ortho_decomp_scf: 1.00e-06
GDM subspace size: 20
Beginning the Orthogonal Decomposition of the Initial Supersystem Wavefunction
    1    -674.7180545213      1.81e-02     ortho_decomp Preconditoned Steepest Descent
    2    -674.7200756428      4.53e-04     ortho_decomp BFGS Step
    3    -674.7200821920      3.58e-05     ortho_decomp BFGS Step
    4    -674.7200822052      1.48e-06     ortho_decomp BFGS Step
    5    -674.7200822053      4.94e-08     ortho_decomp 00000 Convergence criterion met
 Hartree-Fock
 Hartree-Fock
 Hartree-Fock
Doing General SCFMI
 Exchange:     0.1670 Hartree-Fock + 1.0000 wB97X-V + LR-HF
 Correlation:  1.0000 wB97X-V
 Using Euler-Maclaurin-Lebedev (99,590) quadrature formula
 Nonlocal Correlation:  VV10 with C = 0.0100 and b = 6.00 and scale = 1.00000
 Grid used for NLC:  SG-1 standard quadrature
performing fock build at end of subrot_r(subrot) constructor so that all methods have access
<S^2> of initial wavefunction before polarization iterations 0.0000000000
Beginning iterations for the determination of the polarized wavefunction
Energy prior to optimization (guess energy) = -674.764006634250
Begin Timing: Total SCF Calculation
begin iterations for algorithm: DIIS         
the SCF tolerance is set to 1.00e-08
    1    -674.7640066343      3.58e-05     00000 
    2    -674.7641774987      1.84e-05     00000 
    3    -674.7642055202      7.92e-06     00000 
    4    -674.7642132413      2.58e-06     00000 
    5    -674.7642141075      1.29e-06     00000 
    6    -674.7642143243      5.38e-07     00000 
    7    -674.7642143472      2.77e-07     00000 
    8    -674.7642143525      1.16e-07     00000 
    9    -674.7642143534      4.73e-08     00000 
   10    -674.7642143535      2.19e-08     00000 
   11    -674.7642143535      6.79e-09     00000 Convergence criterion met
write pseudocanon occs and virts to disk
write pseudocanon orbital energies to disk
Timing for Total SCF: 6209.00s (wall), 40554.37s (cpu)
<S^2> of polarized wavefunction after polarization iterations 0.0000000000
relaxing scfmi constraint to allow all rotations in the entire AO span
Doing General SCFMI
 Exchange:     0.1670 Hartree-Fock + 1.0000 wB97X-V + LR-HF
 Correlation:  1.0000 wB97X-V
 Using Euler-Maclaurin-Lebedev (99,590) quadrature formula
 Nonlocal Correlation:  VV10 with C = 0.0100 and b = 6.00 and scale = 1.00000
 Grid used for NLC:  SG-1 standard quadrature
performing fock build at end of subrot_r(subrot) constructor so that all methods have access
<S^2> of polarized wavefunction before ct-allowed iterations 0.0000000000
Beginning iterations for the determination of the CT-Allowed wavefunction
Energy prior to optimization (guess energy) = -674.764214353540
Begin Timing: Total SCF Calculation
begin iterations for algorithm: DIIS         
the SCF tolerance is set to 1.00e-08
    1    -674.7642143535      5.24e-05     00000 
    2    -674.7651231006      5.79e-06     00000 
    3    -674.7651555410      9.92e-07     00000 
    4    -674.7651568339      2.97e-07     00000 
    5    -674.7651568784      1.51e-07     00000 
    6    -674.7651568898      2.93e-08     00000 
    7    -674.7651568903      1.41e-08     00000 
    8    -674.7651568905      4.56e-09     00000 Convergence criterion met
write pseudocanon occs and virts to disk
write pseudocanon orbital energies to disk
Timing for Total SCF: 4225.00s (wall), 27646.40s (cpu)
<S^2> of ct_allowed wavefunction after ct-allowed iterations 0.0000000000

================================
        Results of EDA2         
================================
Basic EDA Quantities
--------------------
Fragment Energies (Ha):
1 -403.1708995649
2 -271.5801562798
--------------------
  E_prp (kJ/mol) = 0.0000
  E_sol (kJ/mol) = -1.5582
  E_frz (kJ/mol) = -5.9326
  E_pol (kJ/mol) = -0.5454
  E_vct (kJ/mol) = -2.4747
  E_int (kJ/mol) = -10.5109
--------------------


Initial Wavefunction Decomposition
--------------------
  --------------------
  Orthogonal Fragment Subspace Decomposition:
  --------------------
     E_elec   (ELEC)   (kJ/mol) = -22.8237
     E_pauli  (PAULI)  (kJ/mol) = 37.9790
     E_disp   (DISP)   (kJ/mol) = -21.0880
     --------------------
     Terms summing to E_pauli:
     --------------------
        E_kep_pauli       (kJ/mol) = 48.8898
        E_disp_free_pauli (kJ/mol) = -10.9108
  --------------------
  Classical Frozen Decomposition:
  --------------------
     E_cls_elec  (CLS ELEC)  (kJ/mol) = -7.0498
     E_cls_pauli (CLS PAULI) (kJ/mol) = 1.1171
    [E_mod_pauli (MOD PAULI) (kJ/mol) = 22.2051 (CLS PAULI - DISP from orthogonal decomposition) ]
  --------------------
--------------------

Simplified EDA Summary (kJ/mol)
--------------------
 PREPARATION     0.0000
 SOLVATION       -1.5582
 FROZEN          15.1554      (does not include dispersion)
[PAULI           37.9790]     (if this is negligible, then frozen describes electrostatics)
 DISPERSION      -21.0880
 POLARIZATION    -0.5454
 CHARGE TRANSFER -2.4747
 TOTAL           -10.5109     (PRP + SOL + FRZ + DISP + POL + CT)
--------------------

 --------------------------------------------------------------

                    Orbital Energies (a.u.)
 --------------------------------------------------------------

 Alpha MOs
 -- Occupied --
-14.4421 -10.2979 -10.2897 -10.2752 -10.2669 -10.2663 -10.2657 -10.2650
-10.2642 -10.2629 -10.2627 -10.2623 -10.2620 -10.2594 -10.2557 -10.2524
-10.2522  -1.1101  -0.9950  -0.9760  -0.9285  -0.9025  -0.8750  -0.8656
 -0.8576  -0.8119  -0.8068  -0.7418  -0.7250  -0.7100  -0.7002  -0.6719
 -0.6448  -0.6248  -0.5950  -0.5795  -0.5692  -0.5592  -0.5524  -0.5447
 -0.5355  -0.5281  -0.5241  -0.5135  -0.5098  -0.5044  -0.4883  -0.4801
 -0.4762  -0.4702  -0.4499  -0.4474  -0.4351  -0.4331  -0.4269  -0.3757
 -0.3458  -0.3343  -0.3134  -0.2881
 -- Virtual --
  0.0541   0.0617   0.0665   0.0696   0.0729   0.0768   0.0880   0.0894
  0.0929   0.0946   0.0998   0.1078   0.1125   0.1149   0.1198   0.1281
  0.1351   0.1367   0.1455   0.1503   0.1514   0.1586   0.1637   0.1674
  0.1750   0.1837   0.1887   0.1916   0.1936   0.1983   0.2045   0.2080
  0.2098   0.2140   0.2166   0.2211   0.2244   0.2286   0.2361   0.2412
  0.2459   0.2492   0.2502   0.2580   0.2603   0.2636   0.2688   0.2736
  0.2745   0.2776   0.2793   0.2803   0.2840   0.2857   0.2901   0.2953
  0.2971   0.3006   0.3023   0.3064   0.3071   0.3125   0.3166   0.3184
  0.3204   0.3252   0.3268   0.3286   0.3330   0.3370   0.3417   0.3444
  0.3472   0.3484   0.3498   0.3531   0.3545   0.3573   0.3586   0.3627
  0.3691   0.3706   0.3711   0.3754   0.3771   0.3802   0.3837   0.3877
  0.3902   0.3913   0.3932   0.3986   0.4028   0.4043   0.4085   0.4096
  0.4170   0.4175   0.4200   0.4227   0.4296   0.4321   0.4357   0.4373
  0.4386   0.4412   0.4425   0.4483   0.4526   0.4537   0.4565   0.4628
  0.4643   0.4648   0.4670   0.4709   0.4735   0.4778   0.4791   0.4817
  0.4857   0.4871   0.4916   0.4919   0.4958   0.5002   0.5031   0.5080
  0.5124   0.5157   0.5176   0.5199   0.5250   0.5271   0.5326   0.5337
  0.5354   0.5416   0.5462   0.5517   0.5550   0.5594   0.5606   0.5656
  0.5684   0.5709   0.5740   0.5768   0.5798   0.5842   0.5893   0.5901
  0.5947   0.5967   0.5991   0.6092   0.6159   0.6188   0.6217   0.6245
  0.6285   0.6330   0.6390   0.6409   0.6438   0.6517   0.6558   0.6577
  0.6615   0.6659   0.6710   0.6737   0.6787   0.6810   0.6817   0.6895
  0.6899   0.6972   0.6995   0.7019   0.7024   0.7081   0.7156   0.7167
  0.7211   0.7291   0.7323   0.7349   0.7394   0.7433   0.7455   0.7477
  0.7558   0.7584   0.7610   0.7631   0.7651   0.7686   0.7741   0.7763
  0.7775   0.7798   0.7833   0.7850   0.7885   0.7913   0.7956   0.7974
  0.7993   0.8033   0.8074   0.8106   0.8134   0.8152   0.8159   0.8232
  0.8250   0.8296   0.8302   0.8322   0.8375   0.8387   0.8448   0.8508
  0.8541   0.8571   0.8601   0.8646   0.8703   0.8742   0.8754   0.8817
  0.8833   0.8851   0.8937   0.8980   0.9010   0.9022   0.9075   0.9134
  0.9164   0.9204   0.9246   0.9276   0.9338   0.9362   0.9402   0.9425
  0.9498   0.9586   0.9633   0.9649   0.9725   0.9765   0.9806   0.9855
  0.9949   0.9970   1.0133   1.0158   1.0250   1.0294   1.0324   1.0354
  1.0426   1.0469   1.0540   1.0573   1.0708   1.0816   1.0859   1.0923
  1.1012   1.1087   1.1123   1.1193   1.1206   1.1314   1.1339   1.1398
  1.1507   1.1561   1.1656   1.1794   1.1849   1.1935   1.1993   1.2082
  1.2115   1.2274   1.2296   1.2355   1.2563   1.2619   1.2692   1.2831
  1.2847   1.2989   1.3074   1.3254   1.3335   1.3439   1.3549   1.3576
  1.3663   1.3768   1.3870   1.3928   1.4095   1.4114   1.4144   1.4229
  1.4327   1.4462   1.4520   1.4702   1.4748   1.4869   1.4911   1.5009
  1.5101   1.5138   1.5349   1.5392   1.5507   1.5553   1.5663   1.5745
  1.5929   1.6005   1.6136   1.6151   1.6260   1.6381   1.6427   1.6512
  1.6566   1.6644   1.6680   1.6872   1.6964   1.7085   1.7130   1.7219
  1.7455   1.7580   1.7830   1.7953   1.8030   1.8086   1.8196   1.8241
  1.8272   1.8408   1.8571   1.8626   1.8739   1.8798   1.8909   1.9019
  1.9045   1.9088   1.9218   1.9289   1.9394   1.9476   1.9545   1.9624
  1.9637   1.9716   1.9747   1.9828   1.9891   2.0030   2.0102   2.0121
  2.0200   2.0233   2.0276   2.0345   2.0474   2.0488   2.0525   2.0595
  2.0649   2.0726   2.0785   2.0880   2.0949   2.1128   2.1150   2.1215
  2.1409   2.1456   2.1519   2.1702   2.1748   2.1924   2.1957   2.2069
  2.2336   2.2357   2.2427   2.2495   2.2552   2.2681   2.2692   2.2808
  2.2931   2.3045   2.3090   2.3271   2.3282   2.3447   2.3600   2.3648
  2.3751   2.3815   2.4073   2.4133   2.4215   2.4296   2.4426   2.4476
  2.4495   2.4695   2.4814   2.4937   2.5024   2.5066   2.5230   2.5360
  2.5423   2.5635   2.5742   2.5954   2.6048   2.6082   2.6272   2.6298
  2.6388   2.6399   2.6625   2.6711   2.6801   2.6874   2.6960   2.7070
  2.7115   2.7205   2.7294   2.7330   2.7370   2.7525   2.7787   2.7831
  2.7854   2.7964   2.7972   2.8073   2.8175   2.8240   2.8275   2.8317
  2.8409   2.8493   2.8570   2.8667   2.8697   2.8825   2.8848   2.9054
  2.9197   2.9281   2.9302   2.9388   2.9463   2.9528   2.9560   2.9625
  2.9750   2.9807   2.9878   2.9977   3.0040   3.0123   3.0192   3.0240
  3.0385   3.0465   3.0510   3.0524   3.0624   3.0650   3.0860   3.0920
  3.1032   3.1103   3.1135   3.1232   3.1275   3.1437   3.1541   3.1685
  3.1752   3.1872   3.1910   3.1958   3.2135   3.2370   3.2453   3.2504
  3.2515   3.2610   3.2710   3.2758   3.2889   3.2910   3.3000   3.3120
  3.3247   3.3330   3.3367   3.3433   3.3632   3.3660   3.3746   3.3814
  3.3895   3.3990   3.4095   3.4188   3.4225   3.4271   3.4374   3.4383
  3.4489   3.4541   3.4613   3.4667   3.4695   3.4766   3.4826   3.4935
  3.4967   3.4981   3.5021   3.5119   3.5206   3.5263   3.5304   3.5336
  3.5439   3.5487   3.5518   3.5560   3.5612   3.5706   3.5734   3.5798
  3.5872   3.5944   3.6043   3.6056   3.6102   3.6165   3.6294   3.6418
  3.6439   3.6481   3.6536   3.6608   3.6687   3.6766   3.6891   3.6957
  3.7095   3.7119   3.7279   3.7334   3.7411   3.7460   3.7496   3.7620
  3.7710   3.7848   3.7948   3.8005   3.8174   3.8367   3.8403   3.8785
  3.8922   3.9036   3.9222   3.9331   3.9446   3.9509   3.9811   3.9842
  3.9952   4.0078   4.0186   4.0510   4.0618   4.0691   4.0882   4.1031
  4.1246   4.1430   4.1684   4.1868   4.2108   4.2328   4.2388   4.2508
  4.2670   4.2887   4.2924   4.2955   4.3046   4.3162   4.3177   4.3254
  4.3348   4.3595   4.3606   4.3670   4.3851   4.3886   4.3939   4.4066
  4.4129   4.4233   4.4302   4.4454   4.4583   4.4717   4.4821   4.4891
  4.5060   4.5222   4.5276   4.5608   4.5807   4.6263   4.6272   4.6465
  4.6483   4.6606   4.7002   4.7592   4.7836   4.7875   4.8103   4.8433
  4.8497   4.8575   4.8839   4.9338   4.9406   4.9600   4.9750   4.9801
  4.9961   5.0129   5.0419   5.0588   5.0786   5.0812   5.0992   5.1302
  5.1410   5.1760   5.1928   5.2120   5.2393   5.2726   5.2835   5.3940
  5.3999   5.4118   5.4191   5.4717   5.5026   5.5158   5.5354   5.5624
  5.6152   5.6547   5.6909   5.7233   5.8154   5.8225   5.8324   5.9727
  5.9773   6.2940   6.3495  22.6515  22.7165  22.7196  22.7989  22.9583
 22.9692  22.9699  22.9787  23.0273  23.0669  23.1380  23.2305  23.2866
 23.4617  23.4946  23.7984  32.8644
 --------------------------------------------------------------

          Ground-State Mulliken Net Atomic Charges

     Atom                 Charge (a.u.)
  ----------------------------------------
      1 C                    -0.706351
      2 C                     0.344479
      3 C                     0.476774
      4 C                    -0.121228
      5 C                    -0.516223
      6 C                    -0.559664
      7 C                    -0.720222
      8 C                    -0.403180
      9 C                    -0.740717
     10 N                     0.130528
     11 H                     0.479727
     12 H                     0.470291
     13 H                     0.416133
     14 H                     0.272782
     15 H                    -0.047229
     16 H                     0.307630
     17 H                     0.210822
     18 H                     0.437247
     19 H                     0.249333
     20 C                    -1.206336
     21 C                    -0.501213
     22 C                     0.720299
     23 C                    -0.500424
     24 C                    -0.461013
     25 C                    -0.382203
     26 C                    -0.431782
     27 H                     0.446129
     28 H                     0.348929
     29 H                     0.274555
     30 H                     0.305382
     31 H                     0.366147
     32 H                     0.391882
     33 H                     0.386244
     34 H                     0.262471
  ----------------------------------------
  Sum of atomic charges =     0.000000

 -----------------------------------------------------------------
                    Cartesian Multipole Moments
 -----------------------------------------------------------------
    Charge (ESU x 10^10)
                 0.0000
    Dipole Moment (Debye)
         X       0.6458      Y       2.4643      Z       0.5027
       Tot       2.5967
    Quadrupole Moments (Debye-Ang)
        XX    -104.4168     XY      14.4315     YY     -77.8959
        XZ       2.6331     YZ       2.3824     ZZ     -90.7899
    Octopole Moments (Debye-Ang^2)
       XXX      23.3456    XXY      28.6215    XYY      36.0478
       YYY      65.4879    XXZ      23.9972    XYZ      15.8326
       YYZ      11.7210    XZZ      14.3603    YZZ      11.2776
       ZZZ       8.3119
    Hexadecapole Moments (Debye-Ang^3)
      XXXX   -2927.0555   XXXY   -1018.0106   XXYY    -737.7632
      XYYY    -785.7792   YYYY   -2299.2109   XXXZ    -373.2861
      XXYZ      43.2469   XYYZ     -45.5706   YYYZ      53.0513
      XXZZ    -677.1197   XYZZ    -304.4121   YYZZ    -626.6303
      XZZZ    -272.8381   YZZZ      17.1038   ZZZZ   -1434.0521
 -----------------------------------------------------------------
Archival summary:
1\1\compute-0-7.local\SP\ProcedureUnspecified\BasisUnspecified\11617\meili\ThuSep3002:19:342021ThuSep3002:19:342021\0\\#,ProcedureUnspecified,BasisUnspecified,\\0,1\C\C,1,1.40175\H,2,1.08145,1,120.429\C,2,1.39242,1,119.047,3,-179.529,0\H,4,1.07588,2,120.088,1,-179.455,0\C,4,1.40191,2,120.972,1,0.914231,0\H,6,1.08112,4,119.319,2,-179.633,0\C,6,1.38449,4,120.941,2,0.499739,0\H,8,1.06758,6,121.173,4,-178.557,0\C,8,1.3851,6,118.177,4,-1.22447,0\N,10,1.36987,8,131.061,6,178.95,0\H,11,1.01432,10,126.096,8,2.49199,0\C,11,1.37779,10,109.521,8,-177.642,0\H,13,1.08602,11,125.175,10,-179.93,0\C,13,1.35847,11,109.951,10,0.892922,0\C,15,1.48226,13,127.008,11,-179.913,0\H,16,1.08731,15,107.102,13,-131.764,0\H,16,1.09157,15,109.653,13,-15.3716,0\H,16,1.1,15,113.586,13,107.996,0\H,17,2.20429,16,175.474,15,-166.073,0\C,20,1.07957,17,120.494,16,120.335,0\C,21,1.38572,20,120.242,17,69.9352,0\H,22,1.0814,21,119.975,20,-1.27148,0\C,21,1.38721,20,119.74,17,-112.244,0\H,24,1.08193,21,119.982,20,0.493008,0\C,22,1.38737,21,119.885,20,178.214,0\H,26,1.0817,22,119.346,21,179.701,0\C,26,1.38874,22,120.49,21,1.64973,0\C,24,1.38974,21,119.942,20,-176.73,0\H,29,1.08088,24,119.539,21,177.922,0\C,28,1.5009,26,120.143,22,-178.775,0\H,31,1.08756,28,109.424,26,-169.672,0\H,31,1.08973,28,109.007,26,-51.7837,0\H,31,1.1,28,113.158,26,69.601,0\\\@

 Total job time:  62704.11s(wall), 138556.17s(cpu) 
 Thu Sep 30 02:19:34 2021

        *************************************************************
        *                                                           *
        *  Thank you very much for using Q-Chem.  Have a nice day.  *
        *                                                           *
        *************************************************************


