
Running Job 1 of 1 SSI-099TRP-272GLU-1_PCM_TZVPD.in
qchem SSI-099TRP-272GLU-1_PCM_TZVPD.in_24060.0 /tmp/qchem24060/ 0
/global/common/cori/software/qchem/5.2/exe/qcprog.exe_s SSI-099TRP-272GLU-1_PCM_TZVPD.in_24060.0 /tmp/qchem24060/
                  Welcome to Q-Chem
     A Quantum Leap Into The Future Of Chemistry


 Q-Chem 5.2, Q-Chem, Inc., Pleasanton, CA (2019)

 License issued to: National Energy Research Scientific Computing Center

 Yihan Shao,  Zhengting Gan,  E. Epifanovsky,  A. T. B. Gilbert,  M. Wormit,  
 J. Kussmann,  A. W. Lange,  A. Behn,  Jia Deng,  Xintian Feng,  D. Ghosh,  
 M. Goldey,  P. R. Horn,  L. D. Jacobson,  I. Kaliman,  T. Kus,  A. Landau,  
 Jie Liu,  E. I. Proynov,  R. M. Richard,  R. P. Steele,  E. J. Sundstrom,  
 H. L. Woodcock III,  P. M. Zimmerman,  D. Zuev,  B. Albrecht,  E. Alguire,  
 S. A. Baeppler,  D. Barton,  Z. Benda,  Y. A. Bernard,  E. J. Berquist,  
 K. B. Bravaya,  H. Burton,  D. Casanova,  Chun-Min Chang,  Yunqing Chen,  
 A. Chien,  K. D. Closser,  M. P. Coons,  S. Coriani,  S. Dasgupta,  
 A. L. Dempwolff,  M. Diedenhofen,  Hainam Do,  R. G. Edgar,  Po-Tung Fang,  
 S. Faraji,  S. Fatehi,  Qingguo Feng,  K. D. Fenk,  J. Fosso-Tande,  
 J. Gayvert,  Qinghui Ge,  A. Ghysels,  G. Gidofalvi,  J. Gomes,  
 J. Gonthier,  A. Gunina,  D. Hait,  M. W. D. Hanson-Heine,  
 P. H. P. Harbach,  A. W. Hauser,  M. F. Herbst,  J. E. Herr,  
 E. G. Hohenstein,  Z. C. Holden,  Kerwin Hui,  B. C. Huynh,  T.-C. Jagau,  
 Hyunjun Ji,  B. Kaduk,  K. Khistyaev,  Jaehoon Kim,  P. Klunzinger,  K. Koh,  
 D. Kosenkov,  L. Koulias,  T. Kowalczyk,  C. M. Krauter,  A. Kunitsa,  
 Ka Un Lao,  A. Laurent,  K. V. Lawler,  Joonho Lee,  D. Lefrancois,  
 S. Lehtola,  D. S. Levine,  Yi-Pei Li,  You-Sheng Lin,  Fenglai Liu,  
 E. Livshits,  A. Luenser,  P. Manohar,  E. Mansoor,  S. F. Manzer,  
 Shan-Ping Mao,  Yuezhi Mao,  N. Mardirossian,  A. V. Marenich,  
 T. Markovich,  L. A. Martinez-Martinez,  S. A. Maurer,  N. J. Mayhall,  
 S. C. McKenzie,  J.-M. Mewes,  P. Morgante,  A. F. Morrison,  
 J. W. Mullinax,  K. Nanda,  T. S. Nguyen-Beck,  R. Olivares-Amaya,  
 J. A. Parkhill,  Zheng Pei,  T. M. Perrine,  F. Plasser,  P. Pokhilko,  
 S. Prager,  A. Prociuk,  E. Ramos,  D. R. Rehn,  F. Rob,  M. Scheurer,  
 M. Schneider,  N. Sergueev,  S. M. Sharada,  S. Sharma,  D. W. Small,  
 T. Stauch,  T. Stein,  Yu-Chuan Su,  A. J. W. Thom,  A. Tkatchenko,  
 T. Tsuchimochi,  N. M. Tubman,  L. Vogt,  M. L. Vidal,  O. Vydrov,  
 M. A. Watson,  J. Wenzel,  M. de Wergifosse,  T. A. Wesolowski,  A. White,  
 J. Witte,  A. Yamada,  Jun Yang,  K. Yao,  S. Yeganeh,  S. R. Yost,  
 Zhi-Qiang You,  A. Zech,  Igor Ying Zhang,  Xing Zhang,  Yan Zhao,  
 Ying Zhu,  B. R. Brooks,  G. K. L. Chan,  C. J. Cramer,  M. S. Gordon,  
 W. J. Hehre,  A. Klamt,  M. W. Schmidt,  C. D. Sherrill,  D. G. Truhlar,  
 A. Aspuru-Guzik,  R. Baer,  A. T. Bell,  N. A. Besley,  Jeng-Da Chai,  
 A. E. DePrince, III,  R. A. DiStasio Jr.,  A. Dreuw,  B. D. Dunietz,  
 T. R. Furlani,  Chao-Ping Hsu,  Yousung Jung,  Jing Kong,  D. S. Lambrecht,  
 WanZhen Liang,  C. Ochsenfeld,  V. A. Rassolov,  L. V. Slipchenko,  
 J. E. Subotnik,  T. Van Voorhis,  J. M. Herbert,  A. I. Krylov,  
 P. M. W. Gill,  M. Head-Gordon

 Contributors to earlier versions of Q-Chem not listed above: 
 R. D. Adamson,  B. Austin,  J. Baker,  G. J. O. Beran,  K. Brandhorst,  
 S. T. Brown,  E. F. C. Byrd,  A. K. Chakraborty,  C.-L. Cheng,  
 Siu Hung Chien,  D. M. Chipman,  D. L. Crittenden,  H. Dachsel,  
 R. J. Doerksen,  A. D. Dutoi,  L. Fusti-Molnar,  W. A. Goddard III,  
 A. Golubeva-Zadorozhnaya,  S. R. Gwaltney,  G. Hawkins,  A. Heyden,  
 S. Hirata,  G. Kedziora,  F. J. Keil,  C. Kelley,  Jihan Kim,  R. A. King,  
 R. Z. Khaliullin,  P. P. Korambath,  W. Kurlancheek,  A. M. Lee,  M. S. Lee,  
 S. V. Levchenko,  Ching Yeh Lin,  D. Liotard,  R. C. Lochan,  I. Lotan,  
 P. E. Maslen,  N. Nair,  D. P. O'Neill,  D. Neuhauser,  E. Neuscamman,  
 C. M. Oana,  R. Olson,  B. Peters,  R. Peverati,  P. A. Pieniazek,  
 Y. M. Rhee,  J. Ritchie,  M. A. Rohrdanz,  E. Rosta,  N. J. Russ,  
 H. F. Schaefer III,  N. E. Schultz,  N. Shenvi,  A. C. Simmonett,  A. Sodt,  
 D. Stuck,  K. S. Thanthiriwatte,  V. Vanovschi,  Tao Wang,  A. Warshel,  
 C. F. Williams,  Q. Wu,  X. Xu,  W. Zhang

 Please cite Q-Chem as follows:
 Y. Shao et al., Mol. Phys. 113, 184-215 (2015)
 DOI: 10.1080/00268976.2014.952696

 Q-Chem 5.2.0 for Intel X86 EM64T Linux

 Parts of Q-Chem use Armadillo 8.300.2 (Tropical Shenanigans).
 http://arma.sourceforge.net/

 Q-Chem begins on Sun Sep 26 12:54:27 2021  

Host: cori01
0

     Scratch files written to /tmp/qchem24060//
 May1019 |scratch|qcdevops|jenkins|workspace|build_RNUM -1
Processing $rem in /global/common/cori/software/qchem/5.2/config/preferences:
	 MEM_TOTAL  96000 
NAlpha2: 102
NElect   102
Mult     1
Symmetry turned off for PCM/SM12/SMD calculation

 Q-Chem warning in module libgen/rem_setup.C, line 2803:

 Neither GIA nor STOLL is specified by user. Use STOLL as the default


Checking the input file for inconsistencies... 	...done.

--------------------------------------------------------------
User input:
--------------------------------------------------------------
$comment
SSI-099TRP-272GLU-1.pdb
$end

$molecule
-1 1
--
0 1
C   -2.164028711837   -1.957001044050    2.697238535838
C    0.351971288163   -0.002001044050    0.666238535838
C    0.084971288163   -0.977001044050    1.657238535838
C   -1.350028711837   -0.988001044050    1.866238535838
C   -1.857028711837   -0.026001044050    1.063238535838
C    1.629971288163    0.263998955950    0.205238535838
C    2.681971288163   -0.499001044050    0.704238535838
C    2.471971288163   -1.487001044050    1.683238535838
C    1.169971288163   -1.753001044050    2.140238535838
N   -0.836028711837    0.586998955950    0.361238535838
H    1.801971288163    1.034998955950   -0.526761464162
H    3.686971288163   -0.313001044050    0.348238535838
H   -1.005028711837    1.199998955950   -0.443761464162
H    3.308971288163   -2.065001044050    2.055238535838
H   -2.913028711837    0.189998955950    0.941238535838
H    0.995971288163   -2.541001044050    2.860238535838
H   -1.933028711837   -2.962001044050    2.340238535838
H   -3.223028711837   -1.774001044050    2.510238535838
H   -1.971388711837   -1.916601044050    3.779488535838
--
-1 1
C   -0.306028711837    0.850998955950   -4.165761464162
C   -0.404028711837    1.554998955950   -2.824761464162
O   -1.484028711837    1.530998955950   -2.198761464162
O    0.612971288163    2.170998955950   -2.411761464162
H   -0.297028711837   -0.223001044050   -4.010761464162
H    0.634971288163    1.107998955950   -4.656761464162
H   -1.146948711837    1.112758955950   -4.824801464162
$end

$rem
JOBTYPE			EDA
EDA2			1
method			wB97X-V
BASIS			def2-TZVPD
XC_GRID			000099000590
NL_GRID			1
UNRESTRICTED		FALSE
MAX_SCF_CYCLES		200
SYMMETRY		FALSE
SYM_IGNORE		TRUE
MEM_STATIC		2000
BASIS_LIN_DEP_THRESH 	6
THRESH 			14
SCF_CONVERGENCE 	8
SCF_PRINT_FRGM 		TRUE
SOLVENT_METHOD          PCM
$end

$PCM
THEORY                  CPCM
METHOD                  SWIG
SOLVER                  INVERSION
RADII                   UFF
HPOINTS                 302
HEAVYPOINTS             302
PRINTLEVEL              0
$END

$SOLVENT
DIELECTRIC              78.390000 ! water
$END
--------------------------------------------------------------
 ----------------------------------------------------------------
             Standard Nuclear Orientation (Angstroms)
    I     Atom           X                Y                Z
 ----------------------------------------------------------------
    1      C      -2.1640287118    -1.9570010441     2.6972385358
    2      C       0.3519712882    -0.0020010440     0.6662385358
    3      C       0.0849712882    -0.9770010440     1.6572385358
    4      C      -1.3500287118    -0.9880010440     1.8662385358
    5      C      -1.8570287118    -0.0260010441     1.0632385358
    6      C       1.6299712882     0.2639989560     0.2052385358
    7      C       2.6819712882    -0.4990010441     0.7042385358
    8      C       2.4719712882    -1.4870010441     1.6832385358
    9      C       1.1699712882    -1.7530010441     2.1402385358
   10      N      -0.8360287118     0.5869989559     0.3612385358
   11      H       1.8019712882     1.0349989559    -0.5267614642
   12      H       3.6869712882    -0.3130010441     0.3482385358
   13      H      -1.0050287118     1.1999989559    -0.4437614642
   14      H       3.3089712882    -2.0650010441     2.0552385358
   15      H      -2.9130287118     0.1899989560     0.9412385358
   16      H       0.9959712882    -2.5410010441     2.8602385358
   17      H      -1.9330287118    -2.9620010440     2.3402385358
   18      H      -3.2230287118    -1.7740010441     2.5102385358
   19      H      -1.9713887118    -1.9166010441     3.7794885358
   20      C      -0.3060287118     0.8509989559    -4.1657614642
   21      C      -0.4040287118     1.5549989559    -2.8247614642
   22      O      -1.4840287118     1.5309989560    -2.1987614642
   23      O       0.6129712882     2.1709989560    -2.4117614642
   24      H      -0.2970287118    -0.2230010441    -4.0107614642
   25      H       0.6349712882     1.1079989560    -4.6567614642
   26      H      -1.1469487118     1.1127589559    -4.8248014642
 ----------------------------------------------------------------
 Nuclear Repulsion Energy =         827.81943507 hartrees
 There are       51 alpha and       51 beta electrons
 Requested basis set is def2-TZVPD
 There are 244 shells and 632 basis functions

 Total QAlloc Memory Limit  96000 MB
 Mega-Array Size      1956 MB
 MEM_STATIC part      2000 MB
 Discretize the solute cavity surface with Lebedev spheres
	Using 302 Lebedev grid points for each H atom
	Using 302 Lebedev grid points for other atoms
	Atomic van der Waals radii will be scaled by 1.20
 Remove points where switching function is < 1.0e-08
 Keep 2924 surface tesserae and discard 4928 interior tesserae
 Molecular Surface Area = 296.764 Angst**2
 A cutoff of  1.0D-14 yielded  25851 shell pairs
 There are    175201 function pairs (    223722 Cartesian)
 Smallest overlap matrix eigenvalue = 4.87E-07
 Linear dependence detected in AO basis
 Tighter screening thresholds may be required for diffuse basis sets
 Use S2THRESH > 14 and THRESH = 14 in case of SCF convergence issues
 Number of orthogonalized atomic orbitals = 628
 Maximum deviation from orthogonality = 1.297E-10

 Scale SEOQF with 1.000000e-01/1.000000e-01/1.000000e-01

 Standard Electronic Orientation quadrupole field applied
 Nucleus-field energy     =    -0.0000000296 hartrees

 -----------------------------------------------------------------------
  General SCF calculation program by
  Eric Jon Sundstrom, Paul Horn, Yuezhi Mao, Dmitri Zuev, Alec White,
  David Stuck, Shaama M.S., Shane Yost, Joonho Lee, David Small,
  Daniel Levine, Susi Lehtola, Hugh Burton, Evgeny Epifanovsky
 -----------------------------------------------------------------------
================================================================
                 ALMO-EDA with the EDA2 driver                  
================================================================
 The second-generation ALMO-EDA (for DFT):                      
 P. R. Horn, Y. Mao and M. Head-Gordon, PCCP, 18, 23067 (2016)  
 Decomposition of the frozen energy:                            
 P. R. Horn, Y. Mao and M. Head-Gordon, JCP, 144, 114107 (2016) 
 FERF model for polarization:                                   
 P. R. Horn and M. Head-Gordon, JCP, 143, 114111 (2015)         
Using eda2 option set 1
Option set summary: Frozen orbital wavefunction, initial wavefunction decomposition, and nDQ polarization.
--------------------------------
Printing EDA Options
--------------------------------
eda_child_super_basis      0
fragmo_guess_mode          0
child_mp                   1
child_mp_orders            232
cls_elec                   1
cls_disp                   0
scfmi_mode                 1
scfmi_occs                 0
scfmi_virts                0
frz_relax                  0
frz_relax_method           0
dc_pen_start               0
dc_pen_conv                0
dc_pen_increment           0
dc_pen_steps               0
dc_pen_thresh_factor       0
dc_pen_pre_newton_thresh   0
frz_ortho_decomp           1
frz_ortho_decomp_conv      6
frgm_method                2
scfmi_freeze_ss            0
separate_rehyb             0
plot_diff_den              0
eda_nocv                   0
eda_vct_relax              1
disp_free_x                0
disp_free_c                0
eda_bsse                   0
eda_pct_a                  0
eda_covp                   0
--------------------------------
Attempting to make child job directory: /tmp/qchem24060//Frg1/
Attempting to make child job directory: /tmp/qchem24060//Frg2/
Creating input file /tmp/qchem24060/Frg1.input
using default PutDataFrgm: nothing
calling putenv with: QCSCRATCH=/tmp/qchem24060/ 
calling putenv with: QCLOCALSCR=/tmp/qchem24060/ 
Spawning Job For Fragment 0
                  Welcome to Q-Chem
     A Quantum Leap Into The Future Of Chemistry


 Q-Chem 5.2, Q-Chem, Inc., Pleasanton, CA (2019)

 License issued to: National Energy Research Scientific Computing Center

 Yihan Shao,  Zhengting Gan,  E. Epifanovsky,  A. T. B. Gilbert,  M. Wormit,  
 J. Kussmann,  A. W. Lange,  A. Behn,  Jia Deng,  Xintian Feng,  D. Ghosh,  
 M. Goldey,  P. R. Horn,  L. D. Jacobson,  I. Kaliman,  T. Kus,  A. Landau,  
 Jie Liu,  E. I. Proynov,  R. M. Richard,  R. P. Steele,  E. J. Sundstrom,  
 H. L. Woodcock III,  P. M. Zimmerman,  D. Zuev,  B. Albrecht,  E. Alguire,  
 S. A. Baeppler,  D. Barton,  Z. Benda,  Y. A. Bernard,  E. J. Berquist,  
 K. B. Bravaya,  H. Burton,  D. Casanova,  Chun-Min Chang,  Yunqing Chen,  
 A. Chien,  K. D. Closser,  M. P. Coons,  S. Coriani,  S. Dasgupta,  
 A. L. Dempwolff,  M. Diedenhofen,  Hainam Do,  R. G. Edgar,  Po-Tung Fang,  
 S. Faraji,  S. Fatehi,  Qingguo Feng,  K. D. Fenk,  J. Fosso-Tande,  
 J. Gayvert,  Qinghui Ge,  A. Ghysels,  G. Gidofalvi,  J. Gomes,  
 J. Gonthier,  A. Gunina,  D. Hait,  M. W. D. Hanson-Heine,  
 P. H. P. Harbach,  A. W. Hauser,  M. F. Herbst,  J. E. Herr,  
 E. G. Hohenstein,  Z. C. Holden,  Kerwin Hui,  B. C. Huynh,  T.-C. Jagau,  
 Hyunjun Ji,  B. Kaduk,  K. Khistyaev,  Jaehoon Kim,  P. Klunzinger,  K. Koh,  
 D. Kosenkov,  L. Koulias,  T. Kowalczyk,  C. M. Krauter,  A. Kunitsa,  
 Ka Un Lao,  A. Laurent,  K. V. Lawler,  Joonho Lee,  D. Lefrancois,  
 S. Lehtola,  D. S. Levine,  Yi-Pei Li,  You-Sheng Lin,  Fenglai Liu,  
 E. Livshits,  A. Luenser,  P. Manohar,  E. Mansoor,  S. F. Manzer,  
 Shan-Ping Mao,  Yuezhi Mao,  N. Mardirossian,  A. V. Marenich,  
 T. Markovich,  L. A. Martinez-Martinez,  S. A. Maurer,  N. J. Mayhall,  
 S. C. McKenzie,  J.-M. Mewes,  P. Morgante,  A. F. Morrison,  
 J. W. Mullinax,  K. Nanda,  T. S. Nguyen-Beck,  R. Olivares-Amaya,  
 J. A. Parkhill,  Zheng Pei,  T. M. Perrine,  F. Plasser,  P. Pokhilko,  
 S. Prager,  A. Prociuk,  E. Ramos,  D. R. Rehn,  F. Rob,  M. Scheurer,  
 M. Schneider,  N. Sergueev,  S. M. Sharada,  S. Sharma,  D. W. Small,  
 T. Stauch,  T. Stein,  Yu-Chuan Su,  A. J. W. Thom,  A. Tkatchenko,  
 T. Tsuchimochi,  N. M. Tubman,  L. Vogt,  M. L. Vidal,  O. Vydrov,  
 M. A. Watson,  J. Wenzel,  M. de Wergifosse,  T. A. Wesolowski,  A. White,  
 J. Witte,  A. Yamada,  Jun Yang,  K. Yao,  S. Yeganeh,  S. R. Yost,  
 Zhi-Qiang You,  A. Zech,  Igor Ying Zhang,  Xing Zhang,  Yan Zhao,  
 Ying Zhu,  B. R. Brooks,  G. K. L. Chan,  C. J. Cramer,  M. S. Gordon,  
 W. J. Hehre,  A. Klamt,  M. W. Schmidt,  C. D. Sherrill,  D. G. Truhlar,  
 A. Aspuru-Guzik,  R. Baer,  A. T. Bell,  N. A. Besley,  Jeng-Da Chai,  
 A. E. DePrince, III,  R. A. DiStasio Jr.,  A. Dreuw,  B. D. Dunietz,  
 T. R. Furlani,  Chao-Ping Hsu,  Yousung Jung,  Jing Kong,  D. S. Lambrecht,  
 WanZhen Liang,  C. Ochsenfeld,  V. A. Rassolov,  L. V. Slipchenko,  
 J. E. Subotnik,  T. Van Voorhis,  J. M. Herbert,  A. I. Krylov,  
 P. M. W. Gill,  M. Head-Gordon

 Contributors to earlier versions of Q-Chem not listed above: 
 R. D. Adamson,  B. Austin,  J. Baker,  G. J. O. Beran,  K. Brandhorst,  
 S. T. Brown,  E. F. C. Byrd,  A. K. Chakraborty,  C.-L. Cheng,  
 Siu Hung Chien,  D. M. Chipman,  D. L. Crittenden,  H. Dachsel,  
 R. J. Doerksen,  A. D. Dutoi,  L. Fusti-Molnar,  W. A. Goddard III,  
 A. Golubeva-Zadorozhnaya,  S. R. Gwaltney,  G. Hawkins,  A. Heyden,  
 S. Hirata,  G. Kedziora,  F. J. Keil,  C. Kelley,  Jihan Kim,  R. A. King,  
 R. Z. Khaliullin,  P. P. Korambath,  W. Kurlancheek,  A. M. Lee,  M. S. Lee,  
 S. V. Levchenko,  Ching Yeh Lin,  D. Liotard,  R. C. Lochan,  I. Lotan,  
 P. E. Maslen,  N. Nair,  D. P. O'Neill,  D. Neuhauser,  E. Neuscamman,  
 C. M. Oana,  R. Olson,  B. Peters,  R. Peverati,  P. A. Pieniazek,  
 Y. M. Rhee,  J. Ritchie,  M. A. Rohrdanz,  E. Rosta,  N. J. Russ,  
 H. F. Schaefer III,  N. E. Schultz,  N. Shenvi,  A. C. Simmonett,  A. Sodt,  
 D. Stuck,  K. S. Thanthiriwatte,  V. Vanovschi,  Tao Wang,  A. Warshel,  
 C. F. Williams,  Q. Wu,  X. Xu,  W. Zhang

 Please cite Q-Chem as follows:
 Y. Shao et al., Mol. Phys. 113, 184-215 (2015)
 DOI: 10.1080/00268976.2014.952696

 Q-Chem 5.2.0 for Intel X86 EM64T Linux

 Parts of Q-Chem use Armadillo 8.300.2 (Tropical Shenanigans).
 http://arma.sourceforge.net/

 Q-Chem begins on Sun Sep 26 12:54:35 2021  

Host: cori01
0

     Scratch files written to /tmp/qchem24060//Frg1//
 May1019 |scratch|qcdevops|jenkins|workspace|build_RNUM -1
Processing $rem in /global/common/cori/software/qchem/5.2/config/preferences:
	 MEM_TOTAL  96000 
NAlpha2: 70
NElect   70
Mult     1
Symmetry turned off for PCM/SM12/SMD calculation

Checking the input file for inconsistencies... 	...done.

--------------------------------------------------------------
User input:
--------------------------------------------------------------
$molecule
0 1
 6	-2.1640287118	-1.9570010441	2.6972385358
 6	0.3519712882	-0.0020010440	0.6662385358
 6	0.0849712882	-0.9770010440	1.6572385358
 6	-1.3500287118	-0.9880010440	1.8662385358
 6	-1.8570287118	-0.0260010441	1.0632385358
 6	1.6299712882	0.2639989560	0.2052385358
 6	2.6819712882	-0.4990010441	0.7042385358
 6	2.4719712882	-1.4870010441	1.6832385358
 6	1.1699712882	-1.7530010441	2.1402385358
 7	-0.8360287118	0.5869989559	0.3612385358
 1	1.8019712882	1.0349989559	-0.5267614642
 1	3.6869712882	-0.3130010441	0.3482385358
 1	-1.0050287118	1.1999989559	-0.4437614642
 1	3.3089712882	-2.0650010441	2.0552385358
 1	-2.9130287118	0.1899989560	0.9412385358
 1	0.9959712882	-2.5410010441	2.8602385358
 1	-1.9330287118	-2.9620010440	2.3402385358
 1	-3.2230287118	-1.7740010441	2.5102385358
 1	-1.9713887118	-1.9166010441	3.7794885358
$end
$rem
EDA2		1
METHOD		WB97X-V
BASIS		DEF2-TZVPD
XC_GRID		000099000590
NL_GRID		1
UNRESTRICTED		FALSE
MAX_SCF_CYCLES		200
SYMMETRY		FALSE
SYM_IGNORE		TRUE
BASIS_LIN_DEP_THRESH		6
THRESH		14
SCF_CONVERGENCE		8
SCF_PRINT_FRGM		TRUE
SOLVENT_METHOD		PCM
!required keywords
JOBTYPE		SP
SYM_IGNORE		TRUE
SUBSYSTEM		TRUE
GEN_SCFMAN		TRUE
CHILD_INSTRUCTION		2
SYM_IGNORE		TRUE
SCFMI		0
RI_K 0		
PARI_K 0		
MIN_PARI_K 0		
IARI_K 0		
OCC_RI_K 0		
PURECART		1111
MEM_STATIC		2000
MEM_TOTAL		96000
GUI		0
CHILD_MP		1
CHILD_MP_ORDERS		232
FRZ_RELAX		0
FRZ_RELAX_METHOD		0
EDA_CLS_ELEC		1
EDA_CLS_DISP		0
FRZ_ORTHO_DECOMP		1
EDA2		FALSE
FRGM_METHOD		FALSE
CIS_N_ROOTS  0
LOCAL_CIS    0
CIS_RLX_DNS  1
$end
$pcm
THEORY                  CPCM
METHOD                  SWIG
SOLVER                  INVERSION
RADII                   UFF
HPOINTS                 302
HEAVYPOINTS             302
PRINTLEVEL              0
$end
$solvent
DIELECTRIC              78.390000 ! water
$end
--------------------------------------------------------------
 ----------------------------------------------------------------
             Standard Nuclear Orientation (Angstroms)
    I     Atom           X                Y                Z
 ----------------------------------------------------------------
    1      C      -2.1640287118    -1.9570010441     2.6972385358
    2      C       0.3519712882    -0.0020010440     0.6662385358
    3      C       0.0849712882    -0.9770010440     1.6572385358
    4      C      -1.3500287118    -0.9880010440     1.8662385358
    5      C      -1.8570287118    -0.0260010441     1.0632385358
    6      C       1.6299712882     0.2639989560     0.2052385358
    7      C       2.6819712882    -0.4990010441     0.7042385358
    8      C       2.4719712882    -1.4870010441     1.6832385358
    9      C       1.1699712882    -1.7530010441     2.1402385358
   10      N      -0.8360287118     0.5869989559     0.3612385358
   11      H       1.8019712882     1.0349989559    -0.5267614642
   12      H       3.6869712882    -0.3130010441     0.3482385358
   13      H      -1.0050287118     1.1999989559    -0.4437614642
   14      H       3.3089712882    -2.0650010441     2.0552385358
   15      H      -2.9130287118     0.1899989560     0.9412385358
   16      H       0.9959712882    -2.5410010441     2.8602385358
   17      H      -1.9330287118    -2.9620010440     2.3402385358
   18      H      -3.2230287118    -1.7740010441     2.5102385358
   19      H      -1.9713887118    -1.9166010441     3.7794885358
 ----------------------------------------------------------------
 Nuclear Repulsion Energy =         483.25295107 hartrees
 There are       35 alpha and       35 beta electrons
 Requested basis set is def2-TZVPD
 There are 175 shells and 451 basis functions

 Total QAlloc Memory Limit  96000 MB
 Mega-Array Size      1956 MB
 MEM_STATIC part      2000 MB
 Discretize the solute cavity surface with Lebedev spheres
	Using 302 Lebedev grid points for each H atom
	Using 302 Lebedev grid points for other atoms
	Atomic van der Waals radii will be scaled by 1.20
 Remove points where switching function is < 1.0e-08
 Keep 2187 surface tesserae and discard 3551 interior tesserae
 Molecular Surface Area = 216.940 Angst**2
 A cutoff of  1.0D-14 yielded  14459 shell pairs
 There are     98173 function pairs (    126322 Cartesian)
 Smallest overlap matrix eigenvalue = 6.00E-07
 Linear dependence detected in AO basis
 Tighter screening thresholds may be required for diffuse basis sets
 Use S2THRESH > 14 and THRESH = 14 in case of SCF convergence issues
 Number of orthogonalized atomic orbitals = 449
 Maximum deviation from orthogonality = 1.595E-10

 Scale SEOQF with 1.000000e-01/1.000000e-01/1.000000e-01

 Standard Electronic Orientation quadrupole field applied
 Nucleus-field energy     =    -0.0000000040 hartrees
 Guess from superposition of atomic densities
 Warning:  Energy on first SCF cycle will be non-variational
 SAD guess density has 69.692991 electrons

 -----------------------------------------------------------------------
  General SCF calculation program by
  Eric Jon Sundstrom, Paul Horn, Yuezhi Mao, Dmitri Zuev, Alec White,
  David Stuck, Shaama M.S., Shane Yost, Joonho Lee, David Small,
  Daniel Levine, Susi Lehtola, Hugh Burton, Evgeny Epifanovsky
 -----------------------------------------------------------------------
 Exchange:     0.1670 Hartree-Fock + 1.0000 wB97X-V + LR-HF
 Correlation:  1.0000 wB97X-V
 Using Euler-Maclaurin-Lebedev (99,590) quadrature formula
 Nonlocal Correlation:  VV10 with C = 0.0100 and b = 6.00 and scale = 1.00000
 Grid used for NLC:  SG-1 standard quadrature
Energy prior to optimization (guess energy) = -402.923230543472
Begin Timing: Total SCF Calculation
begin iterations for algorithm: DIIS         
the SCF tolerance is set to 1.00e-08
    1    -402.9232305435      3.30e-03     00000 
    2    -402.9507500068      3.14e-03     00000 
    3    -403.1635685651      3.69e-04     00000 
    4    -403.1667915866      1.52e-04     00000 
    5    -403.1674226737      2.56e-05     00000 
    6    -403.1674454422      1.49e-05     00000 
    7    -403.1674523918      2.88e-06     00000 
    8    -403.1674532423      1.59e-06     00000 
    9    -403.1674534230      6.78e-07     00000 
   10    -403.1674534934      2.72e-07     00000 
   11    -403.1674535047      9.20e-08     00000 
   12    -403.1674535056      4.33e-08     00000 
   13    -403.1674535057      1.15e-08     00000 
   14    -403.1674535057      5.25e-09     00000 Convergence criterion met
Timing for Total SCF: 4015.00s (wall), 7996.94s (cpu)

************** Final PCM Free Energy Summary **************
 G_electrostatic  =      -0.00646794 hartree =      -4.05869428 kcal/mol
 G_cavitation     =       0.00000000 hartree =       0.00000000 kcal/mol
 G_dispersion     =       0.00000000 hartree =       0.00000000 kcal/mol
 G_repulsion      =       0.00000000 hartree =       0.00000000 kcal/mol
 --------------------------------------------------
 Non-electrostatic Free Energy =       0.00000000 hartree =       0.00000000 kcal/mol
 Total                         =      -0.00646794 hartree =      -4.05869428 kcal/mol
 --------------------------------------------------
 SCF Energy (H0 + V/2)                       =    -403.16745351 
 Solute Internal Energy (H0)                 =    -403.16098556 
 Total Free Energy (H0 + V/2 + non-elec)     =    -403.16745351 hartree
                                             = -252991.39547378 kcal/mol
***********************************************************

E_pcm = -0.0064679411
Multipole orders to be included
        2
        3
computing dipole RHS
computing quadrupole RHS
total number of RHS in solve_reponses: 8
RHS batch sizes
        8
Beginning Block Conjugate Gradient Iterations. Batch Number: 0
computing hessian-vector products by finite difference
              1      6.02e-01     00000 Conjugate Gradient Iteration
computing hessian-vector products by finite difference
              2      2.05e-01     00000 Conjugate Gradient Iteration
computing hessian-vector products by finite difference
              3      5.90e-02     00000 Conjugate Gradient Iteration
computing hessian-vector products by finite difference
              4      1.87e-02     00000 Conjugate Gradient Iteration
computing hessian-vector products by finite difference
              5      6.20e-03     00000 Conjugate Gradient Iteration
computing hessian-vector products by finite difference
              6      2.00e-03     00000 Conjugate Gradient Iteration
computing hessian-vector products by finite difference
              7      5.07e-04     00000 Conjugate Gradient Iteration
computing hessian-vector products by finite difference
              8      1.07e-04     00000 Conjugate Gradient Iteration
computing hessian-vector products by finite difference
              9      1.81e-05     00000 Conjugate Gradient Iteration
computing hessian-vector products by finite difference
             10      2.50e-06     00000 Conjugate Gradient Iteration
computing hessian-vector products by finite difference
             11      4.08e-07     00000 Conjugate Gradient Iteration
computing hessian-vector products by finite difference
             12      8.58e-08     00000 Conjugate Gradient Iteration
computing hessian-vector products by finite difference
             13      1.40e-08     00000 Conjugate Gradient Iteration
computing hessian-vector products by finite difference
             14      3.24e-09     00000 CG Converged
batch 0 complete
Done Calculating Responses
TESTING ORTHOGONALIZATION OF MULTIPOLE BASIS
Multipole virts passed orthogonality test
Virts Per Order
          105
          175
 
 --------------------------------------------------------------
 
                    Orbital Energies (a.u.)
 --------------------------------------------------------------
 
 Alpha MOs
 -- Occupied --
-14.4493 -10.3022 -10.2962 -10.2761 -10.2722 -10.2714 -10.2710 -10.2683
-10.2658 -10.2649  -1.1174  -0.9765  -0.9308  -0.8684  -0.8621  -0.8169
 -0.7475  -0.7134  -0.6778  -0.6501  -0.6024  -0.5845  -0.5560  -0.5479
 -0.5376  -0.5177  -0.5131  -0.4920  -0.4841  -0.4557  -0.4512  -0.4340
 -0.3775  -0.3171  -0.2946
 -- Virtual --
  0.0513   0.0595   0.0749   0.0764   0.0887   0.0967   0.0987   0.1056
  0.1263   0.1314   0.1351   0.1443   0.1491   0.1611   0.1677   0.1767
  0.1848   0.1894   0.1984   0.2049   0.2106   0.2156   0.2217   0.2380
  0.2443   0.2527   0.2559   0.2593   0.2630   0.2714   0.2744   0.2747
  0.2784   0.2831   0.2871   0.2905   0.3005   0.3060   0.3081   0.3140
  0.3275   0.3303   0.3319   0.3386   0.3412   0.3435   0.3440   0.3501
  0.3557   0.3575   0.3690   0.3725   0.3751   0.3815   0.3854   0.3914
  0.4014   0.4049   0.4054   0.4087   0.4133   0.4212   0.4244   0.4289
  0.4368   0.4434   0.4494   0.4523   0.4571   0.4593   0.4636   0.4667
  0.4857   0.4859   0.4906   0.4931   0.4985   0.5005   0.5165   0.5201
  0.5290   0.5334   0.5408   0.5426   0.5443   0.5516   0.5567   0.5583
  0.5675   0.5744   0.5768   0.5856   0.5996   0.6036   0.6111   0.6155
  0.6254   0.6335   0.6420   0.6435   0.6489   0.6517   0.6680   0.6769
  0.6820   0.6869   0.6925   0.7029   0.7072   0.7115   0.7144   0.7205
  0.7316   0.7350   0.7423   0.7478   0.7586   0.7609   0.7660   0.7696
  0.7732   0.7761   0.7822   0.7878   0.7936   0.8006   0.8046   0.8120
  0.8144   0.8160   0.8266   0.8286   0.8338   0.8410   0.8431   0.8522
  0.8579   0.8604   0.8762   0.8943   0.8960   0.9066   0.9141   0.9242
  0.9367   0.9396   0.9648   0.9711   0.9856   0.9906   1.0104   1.0202
  1.0235   1.0381   1.0420   1.0546   1.0590   1.0606   1.0880   1.0903
  1.1081   1.1121   1.1238   1.1360   1.1515   1.1573   1.1816   1.1958
  1.2143   1.2441   1.2604   1.2680   1.2957   1.3033   1.3202   1.3289
  1.3411   1.3666   1.3825   1.4031   1.4075   1.4268   1.4472   1.4576
  1.4923   1.5130   1.5223   1.5465   1.5626   1.5763   1.6019   1.6153
  1.6275   1.6472   1.6625   1.6862   1.7018   1.7148   1.7357   1.7410
  1.7552   1.7848   1.8126   1.8158   1.8427   1.8533   1.8644   1.8775
  1.8850   1.8898   1.9093   1.9238   1.9444   1.9449   1.9652   1.9724
  1.9918   1.9971   2.0013   2.0082   2.0246   2.0377   2.0538   2.0661
  2.0895   2.0990   2.1195   2.1260   2.1672   2.1799   2.1823   2.2001
  2.2234   2.2522   2.2835   2.2992   2.3000   2.3139   2.3286   2.3746
  2.3908   2.3983   2.4240   2.4281   2.4575   2.4811   2.4859   2.5104
  2.5380   2.5632   2.5794   2.5989   2.6164   2.6224   2.6401   2.6594
  2.6739   2.6821   2.7203   2.7396   2.7566   2.7584   2.7706   2.7905
  2.8070   2.8133   2.8260   2.8368   2.8499   2.8626   2.8821   2.9002
  2.9036   2.9276   2.9370   2.9557   2.9642   2.9815   3.0080   3.0176
  3.0335   3.0389   3.0476   3.0767   3.0859   3.0969   3.1076   3.1161
  3.1457   3.1641   3.1825   3.1855   3.2089   3.2264   3.2475   3.2759
  3.2771   3.2934   3.3061   3.3246   3.3273   3.3428   3.3630   3.3731
  3.3812   3.4026   3.4112   3.4248   3.4392   3.4418   3.4518   3.4569
  3.4650   3.4802   3.4860   3.4999   3.5104   3.5281   3.5355   3.5552
  3.5636   3.5780   3.5911   3.6028   3.6282   3.6336   3.6426   3.6603
  3.6718   3.7028   3.7051   3.7113   3.7307   3.7368   3.7605   3.7666
  3.7817   3.8011   3.8707   3.8863   3.8977   3.9114   3.9390   3.9699
  4.0230   4.0269   4.0480   4.0955   4.1501   4.1553   4.1696   4.1957
  4.2243   4.2348   4.2571   4.2797   4.2914   4.3041   4.3385   4.3435
  4.3709   4.4064   4.4129   4.4362   4.4573   4.4871   4.4928   4.5032
  4.5860   4.6069   4.6349   4.6418   4.7288   4.7504   4.7846   4.8343
  4.8747   4.9206   4.9596   4.9698   4.9836   5.0133   5.0485   5.0751
  5.1109   5.1391   5.1554   5.1928   5.2261   5.2646   5.3578   5.4093
  5.4554   5.4762   5.5275   5.5936   5.6378   5.6904   5.7961   5.8069
  5.9212   5.9787   6.2306   6.3284  22.6372  22.7413  22.9057  22.9227
 22.9477  23.1593  23.2524  23.4224  23.7858  32.8379
 --------------------------------------------------------------
 
          Ground-State Mulliken Net Atomic Charges

     Atom                 Charge (a.u.)
  ----------------------------------------
      1 C                    -0.802785
      2 C                    -0.104069
      3 C                     0.660249
      4 C                     0.626866
      5 C                    -0.961216
      6 C                    -0.761290
      7 C                    -0.367745
      8 C                    -0.730047
      9 C                    -0.245890
     10 N                     0.107282
     11 H                     0.329731
     12 H                     0.334331
     13 H                     0.245377
     14 H                     0.335973
     15 H                     0.255394
     16 H                     0.368768
     17 H                     0.212603
     18 H                     0.259080
     19 H                     0.237389
  ----------------------------------------
  Sum of atomic charges =     0.000000

 -----------------------------------------------------------------
                    Cartesian Multipole Moments
 -----------------------------------------------------------------
    Charge (ESU x 10^10)
                 0.0000
    Dipole Moment (Debye)
         X      -1.8550      Y       1.1734      Z      -1.6012
       Tot       2.7170
    Quadrupole Moments (Debye-Ang)
        XX     -53.2580     XY      -0.6447     YY     -58.1842
        XZ      -1.6466     YZ      -5.4592     ZZ     -61.0309
    Octopole Moments (Debye-Ang^2)
       XXX     -36.4070    XXY      41.4595    XYY     -12.4095
       YYY     129.5738    XXZ     -77.0855    XYZ      -1.7374
       YYZ     -74.5411    XZZ     -16.0867    YZZ      32.9660
       ZZZ    -241.9830
    Hexadecapole Moments (Debye-Ang^3)
      XXXX   -1088.2493   XXXY      -5.1024   XXYY    -290.4225
      XYYY      13.4311   YYYY    -561.4658   XXXZ      37.5587
      XXYZ      80.5370   XYYZ      25.8726   YYYZ     286.0388
      XXZZ    -368.2118   XYZZ       1.6153   YYZZ    -232.5905
      XZZZ      35.6182   YZZZ     277.0270   ZZZZ    -983.6199
 -----------------------------------------------------------------
Archival summary:
1\1\nid00568\SP\ProcedureUnspecified\BasisUnspecified\199\meili\MonSep2709:21:462021MonSep2709:21:462021\0\\#,ProcedureUnspecified,BasisUnspecified,\\0,1\C\C,1,1.41563\N,2,1.36062,1,106.881\H,3,1.02584,2,125.34,1,-167.425,0\C,3,1.38239,2,109.821,1,-3.35845,0\H,5,1.08475,3,125.001,2,-174.379,0\C,5,1.35178,3,109.89,2,2.05523,0\C,2,1.3844,1,122.654,3,177.485,0\H,8,1.07696,2,120.752,1,-177.995,0\C,8,1.39208,2,118.226,1,2.56434,0\H,10,1.08229,8,119.317,2,179.362,0\C,10,1.40666,8,121.442,2,-2.06356,0\H,12,1.08307,10,119.901,8,-179.892,0\C,12,1.40528,10,119.841,8,2.37169,0\H,14,1.08149,12,120.231,10,177.278,0\C,7,1.51397,5,125.443,3,-174.337,0\H,16,1.09084,7,108.693,5,2.13419,0\H,16,1.09125,7,107.222,5,118.288,0\H,16,1.1,7,114.984,5,-120.885,0\\\@

 Total job time:  73633.90s(wall), 146520.39s(cpu) 
 Mon Sep 27 09:21:48 2021

        *************************************************************
        *                                                           *
        *  Thank you very much for using Q-Chem.  Have a nice day.  *
        *                                                           *
        *************************************************************


Done Job For Fragment 0
calling putenv with: QCSCRATCH=/global/cscratch1/sd/meili 
calling putenv with: QCLOCALSCR=/tmp 
calling putenv with: QCTHREADS=32 
Creating input file /tmp/qchem24060/Frg2.input
using default PutDataFrgm: nothing
calling putenv with: QCSCRATCH=/tmp/qchem24060/ 
calling putenv with: QCLOCALSCR=/tmp/qchem24060/ 
Spawning Job For Fragment 1
                  Welcome to Q-Chem
     A Quantum Leap Into The Future Of Chemistry


 Q-Chem 5.2, Q-Chem, Inc., Pleasanton, CA (2019)

 License issued to: National Energy Research Scientific Computing Center

 Yihan Shao,  Zhengting Gan,  E. Epifanovsky,  A. T. B. Gilbert,  M. Wormit,  
 J. Kussmann,  A. W. Lange,  A. Behn,  Jia Deng,  Xintian Feng,  D. Ghosh,  
 M. Goldey,  P. R. Horn,  L. D. Jacobson,  I. Kaliman,  T. Kus,  A. Landau,  
 Jie Liu,  E. I. Proynov,  R. M. Richard,  R. P. Steele,  E. J. Sundstrom,  
 H. L. Woodcock III,  P. M. Zimmerman,  D. Zuev,  B. Albrecht,  E. Alguire,  
 S. A. Baeppler,  D. Barton,  Z. Benda,  Y. A. Bernard,  E. J. Berquist,  
 K. B. Bravaya,  H. Burton,  D. Casanova,  Chun-Min Chang,  Yunqing Chen,  
 A. Chien,  K. D. Closser,  M. P. Coons,  S. Coriani,  S. Dasgupta,  
 A. L. Dempwolff,  M. Diedenhofen,  Hainam Do,  R. G. Edgar,  Po-Tung Fang,  
 S. Faraji,  S. Fatehi,  Qingguo Feng,  K. D. Fenk,  J. Fosso-Tande,  
 J. Gayvert,  Qinghui Ge,  A. Ghysels,  G. Gidofalvi,  J. Gomes,  
 J. Gonthier,  A. Gunina,  D. Hait,  M. W. D. Hanson-Heine,  
 P. H. P. Harbach,  A. W. Hauser,  M. F. Herbst,  J. E. Herr,  
 E. G. Hohenstein,  Z. C. Holden,  Kerwin Hui,  B. C. Huynh,  T.-C. Jagau,  
 Hyunjun Ji,  B. Kaduk,  K. Khistyaev,  Jaehoon Kim,  P. Klunzinger,  K. Koh,  
 D. Kosenkov,  L. Koulias,  T. Kowalczyk,  C. M. Krauter,  A. Kunitsa,  
 Ka Un Lao,  A. Laurent,  K. V. Lawler,  Joonho Lee,  D. Lefrancois,  
 S. Lehtola,  D. S. Levine,  Yi-Pei Li,  You-Sheng Lin,  Fenglai Liu,  
 E. Livshits,  A. Luenser,  P. Manohar,  E. Mansoor,  S. F. Manzer,  
 Shan-Ping Mao,  Yuezhi Mao,  N. Mardirossian,  A. V. Marenich,  
 T. Markovich,  L. A. Martinez-Martinez,  S. A. Maurer,  N. J. Mayhall,  
 S. C. McKenzie,  J.-M. Mewes,  P. Morgante,  A. F. Morrison,  
 J. W. Mullinax,  K. Nanda,  T. S. Nguyen-Beck,  R. Olivares-Amaya,  
 J. A. Parkhill,  Zheng Pei,  T. M. Perrine,  F. Plasser,  P. Pokhilko,  
 S. Prager,  A. Prociuk,  E. Ramos,  D. R. Rehn,  F. Rob,  M. Scheurer,  
 M. Schneider,  N. Sergueev,  S. M. Sharada,  S. Sharma,  D. W. Small,  
 T. Stauch,  T. Stein,  Yu-Chuan Su,  A. J. W. Thom,  A. Tkatchenko,  
 T. Tsuchimochi,  N. M. Tubman,  L. Vogt,  M. L. Vidal,  O. Vydrov,  
 M. A. Watson,  J. Wenzel,  M. de Wergifosse,  T. A. Wesolowski,  A. White,  
 J. Witte,  A. Yamada,  Jun Yang,  K. Yao,  S. Yeganeh,  S. R. Yost,  
 Zhi-Qiang You,  A. Zech,  Igor Ying Zhang,  Xing Zhang,  Yan Zhao,  
 Ying Zhu,  B. R. Brooks,  G. K. L. Chan,  C. J. Cramer,  M. S. Gordon,  
 W. J. Hehre,  A. Klamt,  M. W. Schmidt,  C. D. Sherrill,  D. G. Truhlar,  
 A. Aspuru-Guzik,  R. Baer,  A. T. Bell,  N. A. Besley,  Jeng-Da Chai,  
 A. E. DePrince, III,  R. A. DiStasio Jr.,  A. Dreuw,  B. D. Dunietz,  
 T. R. Furlani,  Chao-Ping Hsu,  Yousung Jung,  Jing Kong,  D. S. Lambrecht,  
 WanZhen Liang,  C. Ochsenfeld,  V. A. Rassolov,  L. V. Slipchenko,  
 J. E. Subotnik,  T. Van Voorhis,  J. M. Herbert,  A. I. Krylov,  
 P. M. W. Gill,  M. Head-Gordon

 Contributors to earlier versions of Q-Chem not listed above: 
 R. D. Adamson,  B. Austin,  J. Baker,  G. J. O. Beran,  K. Brandhorst,  
 S. T. Brown,  E. F. C. Byrd,  A. K. Chakraborty,  C.-L. Cheng,  
 Siu Hung Chien,  D. M. Chipman,  D. L. Crittenden,  H. Dachsel,  
 R. J. Doerksen,  A. D. Dutoi,  L. Fusti-Molnar,  W. A. Goddard III,  
 A. Golubeva-Zadorozhnaya,  S. R. Gwaltney,  G. Hawkins,  A. Heyden,  
 S. Hirata,  G. Kedziora,  F. J. Keil,  C. Kelley,  Jihan Kim,  R. A. King,  
 R. Z. Khaliullin,  P. P. Korambath,  W. Kurlancheek,  A. M. Lee,  M. S. Lee,  
 S. V. Levchenko,  Ching Yeh Lin,  D. Liotard,  R. C. Lochan,  I. Lotan,  
 P. E. Maslen,  N. Nair,  D. P. O'Neill,  D. Neuhauser,  E. Neuscamman,  
 C. M. Oana,  R. Olson,  B. Peters,  R. Peverati,  P. A. Pieniazek,  
 Y. M. Rhee,  J. Ritchie,  M. A. Rohrdanz,  E. Rosta,  N. J. Russ,  
 H. F. Schaefer III,  N. E. Schultz,  N. Shenvi,  A. C. Simmonett,  A. Sodt,  
 D. Stuck,  K. S. Thanthiriwatte,  V. Vanovschi,  Tao Wang,  A. Warshel,  
 C. F. Williams,  Q. Wu,  X. Xu,  W. Zhang

 Please cite Q-Chem as follows:
 Y. Shao et al., Mol. Phys. 113, 184-215 (2015)
 DOI: 10.1080/00268976.2014.952696

 Q-Chem 5.2.0 for Intel X86 EM64T Linux

 Parts of Q-Chem use Armadillo 8.300.2 (Tropical Shenanigans).
 http://arma.sourceforge.net/

 Q-Chem begins on Mon Sep 27 09:21:50 2021  

Host: cori01
0

     Scratch files written to /tmp/qchem24060//Frg2//
 May1019 |scratch|qcdevops|jenkins|workspace|build_RNUM -1
Processing $rem in /global/common/cori/software/qchem/5.2/config/preferences:
	 MEM_TOTAL  96000 
NAlpha2: 32
NElect   32
Mult     1
Symmetry turned off for PCM/SM12/SMD calculation

Checking the input file for inconsistencies... 	...done.

--------------------------------------------------------------
User input:
--------------------------------------------------------------
$molecule
-1 1
 6	-0.3060287118	0.8509989559	-4.1657614642
 6	-0.4040287118	1.5549989559	-2.8247614642
 8	-1.4840287118	1.5309989560	-2.1987614642
 8	0.6129712882	2.1709989560	-2.4117614642
 1	-0.2970287118	-0.2230010441	-4.0107614642
 1	0.6349712882	1.1079989560	-4.6567614642
 1	-1.1469487118	1.1127589559	-4.8248014642
$end
$rem
EDA2		1
METHOD		WB97X-V
BASIS		DEF2-TZVPD
XC_GRID		000099000590
NL_GRID		1
UNRESTRICTED		FALSE
MAX_SCF_CYCLES		200
SYMMETRY		FALSE
SYM_IGNORE		TRUE
BASIS_LIN_DEP_THRESH		6
THRESH		14
SCF_CONVERGENCE		8
SCF_PRINT_FRGM		TRUE
SOLVENT_METHOD		PCM
!required keywords
JOBTYPE		SP
SYM_IGNORE		TRUE
SUBSYSTEM		TRUE
GEN_SCFMAN		TRUE
CHILD_INSTRUCTION		2
SYM_IGNORE		TRUE
SCFMI		0
RI_K 0		
PARI_K 0		
MIN_PARI_K 0		
IARI_K 0		
OCC_RI_K 0		
PURECART		1111
MEM_STATIC		2000
MEM_TOTAL		96000
GUI		0
CHILD_MP		1
CHILD_MP_ORDERS		232
FRZ_RELAX		0
FRZ_RELAX_METHOD		0
EDA_CLS_ELEC		1
EDA_CLS_DISP		0
FRZ_ORTHO_DECOMP		1
EDA2		FALSE
FRGM_METHOD		FALSE
CIS_N_ROOTS  0
LOCAL_CIS    0
CIS_RLX_DNS  1
$end
$pcm
THEORY                  CPCM
METHOD                  SWIG
SOLVER                  INVERSION
RADII                   UFF
HPOINTS                 302
HEAVYPOINTS             302
PRINTLEVEL              0
$end
$solvent
DIELECTRIC              78.390000 ! water
$end
--------------------------------------------------------------
 ----------------------------------------------------------------
             Standard Nuclear Orientation (Angstroms)
    I     Atom           X                Y                Z
 ----------------------------------------------------------------
    1      C      -0.3060287118     0.8509989559    -4.1657614642
    2      C      -0.4040287118     1.5549989559    -2.8247614642
    3      O      -1.4840287118     1.5309989560    -2.1987614642
    4      O       0.6129712882     2.1709989560    -2.4117614642
    5      H      -0.2970287118    -0.2230010441    -4.0107614642
    6      H       0.6349712882     1.1079989560    -4.6567614642
    7      H      -1.1469487118     1.1127589559    -4.8248014642
 ----------------------------------------------------------------
 Nuclear Repulsion Energy =         112.61031179 hartrees
 There are       16 alpha and       16 beta electrons
 Requested basis set is def2-TZVPD
 There are 69 shells and 181 basis functions

 Total QAlloc Memory Limit  96000 MB
 Mega-Array Size      1956 MB
 MEM_STATIC part      2000 MB
 Discretize the solute cavity surface with Lebedev spheres
	Using 302 Lebedev grid points for each H atom
	Using 302 Lebedev grid points for other atoms
	Atomic van der Waals radii will be scaled by 1.20
 Remove points where switching function is < 1.0e-08
 Keep 1018 surface tesserae and discard 1096 interior tesserae
 Molecular Surface Area = 119.874 Angst**2

                       Distance Matrix (Angstroms)
             C (  1)   C (  2)   O (  3)   O (  4)   H (  5)   H (  6)
   C (  2)  1.517729
   O (  3)  2.391479  1.248540
   O (  4)  2.379806  1.258695  2.202811
   H (  5)  1.085165  2.139937  2.787262  3.019294
   H (  6)  1.092067  2.153034  3.272744  2.484045  1.748571
   H (  7)  1.099999  2.178914  2.680417  3.168588  1.780247  1.789832

 
 A cutoff of  1.0D-14 yielded   2391 shell pairs
 There are     16695 function pairs (     21491 Cartesian)
 Smallest overlap matrix eigenvalue = 1.62E-05

 Scale SEOQF with 1.000000e-01/1.000000e-01/1.000000e-01

 Standard Electronic Orientation quadrupole field applied
 Nucleus-field energy     =    -0.0000000255 hartrees
 Guess from superposition of atomic densities
 Warning:  Energy on first SCF cycle will be non-variational
 SAD guess density has 30.625312 electrons

 -----------------------------------------------------------------------
  General SCF calculation program by
  Eric Jon Sundstrom, Paul Horn, Yuezhi Mao, Dmitri Zuev, Alec White,
  David Stuck, Shaama M.S., Shane Yost, Joonho Lee, David Small,
  Daniel Levine, Susi Lehtola, Hugh Burton, Evgeny Epifanovsky
 -----------------------------------------------------------------------
 Exchange:     0.1670 Hartree-Fock + 1.0000 wB97X-V + LR-HF
 Correlation:  1.0000 wB97X-V
 Using Euler-Maclaurin-Lebedev (99,590) quadrature formula
 Nonlocal Correlation:  VV10 with C = 0.0100 and b = 6.00 and scale = 1.00000
 Grid used for NLC:  SG-1 standard quadrature
Energy prior to optimization (guess energy) = -227.761380293698
Begin Timing: Total SCF Calculation
begin iterations for algorithm: DIIS         
the SCF tolerance is set to 1.00e-08
    1    -227.7613802937      1.66e-02     00000 
    2    -225.5768455110      2.55e-02     00000 
    3    -228.5750740723      4.22e-03     00000 
    4    -228.6339408420      1.65e-03     00000 
    5    -228.6414902453      5.61e-04     00000 
    6    -228.6423263712      2.32e-04     00000 
    7    -228.6424987827      4.34e-05     00000 
    8    -228.6425084375      1.37e-05     00000 
    9    -228.6425096956      2.86e-06     00000 
   10    -228.6425097957      5.52e-07     00000 
   11    -228.6425097988      2.49e-07     00000 
   12    -228.6425097994      5.80e-08     00000 
   13    -228.6425097995      1.63e-08     00000 
   14    -228.6425097995      2.61e-09     00000 Convergence criterion met
Timing for Total SCF: 275.00s (wall), 542.88s (cpu)

************** Final PCM Free Energy Summary **************
 G_electrostatic  =      -0.10191275 hartree =     -63.95121355 kcal/mol
 G_cavitation     =       0.00000000 hartree =       0.00000000 kcal/mol
 G_dispersion     =       0.00000000 hartree =       0.00000000 kcal/mol
 G_repulsion      =       0.00000000 hartree =       0.00000000 kcal/mol
 --------------------------------------------------
 Non-electrostatic Free Energy =       0.00000000 hartree =       0.00000000 kcal/mol
 Total                         =      -0.10191275 hartree =     -63.95121355 kcal/mol
 --------------------------------------------------
 SCF Energy (H0 + V/2)                       =    -228.64250980 
 Solute Internal Energy (H0)                 =    -228.54059705 
 Total Free Energy (H0 + V/2 + non-elec)     =    -228.64250980 hartree
                                             = -143475.34037238 kcal/mol
***********************************************************

E_pcm = -0.1019127463
Multipole orders to be included
        2
        3
computing dipole RHS
computing quadrupole RHS
total number of RHS in solve_reponses: 8
RHS batch sizes
        8
Beginning Block Conjugate Gradient Iterations. Batch Number: 0
computing hessian-vector products by finite difference
              1      7.20e-01     00000 Conjugate Gradient Iteration
computing hessian-vector products by finite difference
              2      2.55e-01     00000 Conjugate Gradient Iteration
computing hessian-vector products by finite difference
              3      6.82e-02     00000 Conjugate Gradient Iteration
computing hessian-vector products by finite difference
              4      1.84e-02     00000 Conjugate Gradient Iteration
computing hessian-vector products by finite difference
              5      3.27e-03     00000 Conjugate Gradient Iteration
computing hessian-vector products by finite difference
              6      7.93e-04     00000 Conjugate Gradient Iteration
computing hessian-vector products by finite difference
              7      1.30e-04     00000 Conjugate Gradient Iteration
computing hessian-vector products by finite difference
              8      1.59e-05     00000 Conjugate Gradient Iteration
computing hessian-vector products by finite difference
              9      2.49e-06     00000 Conjugate Gradient Iteration
computing hessian-vector products by finite difference
             10      2.79e-07     00000 Conjugate Gradient Iteration
computing hessian-vector products by finite difference
             11      8.77e-08     00000 Conjugate Gradient Iteration
computing hessian-vector products by finite difference
             12      2.26e-08     00000 Conjugate Gradient Iteration
computing hessian-vector products by finite difference
             13      2.53e-09     00000 CG Converged
batch 0 complete
Done Calculating Responses
TESTING ORTHOGONALIZATION OF MULTIPOLE BASIS
Multipole virts passed orthogonality test
Virts Per Order
        48
        80
 
 --------------------------------------------------------------
 
                    Orbital Energies (a.u.)
 --------------------------------------------------------------
 
 Alpha MOs
 -- Occupied --
-19.1227 -19.1210 -10.3252 -10.2389  -1.1310  -1.0305  -0.8297  -0.5931
 -0.5297  -0.5180  -0.5149  -0.4620  -0.4432  -0.3288  -0.3262  -0.3083
 -- Virtual --
  0.0633   0.0955   0.0958   0.1052   0.1304   0.1407   0.1435   0.1453
  0.1675   0.1899   0.1988   0.2225   0.2318   0.2364   0.2642   0.2690
  0.2984   0.3132   0.3343   0.3473   0.3551   0.3605   0.3738   0.3839
  0.3918   0.4062   0.4258   0.4277   0.4325   0.4606   0.4727   0.4780
  0.4945   0.4994   0.5063   0.5193   0.5597   0.5813   0.5958   0.6124
  0.6219   0.6404   0.6459   0.6593   0.6743   0.6818   0.6969   0.7103
  0.7247   0.7350   0.7774   0.8014   0.8102   0.8179   0.8501   0.8584
  0.8656   0.9773   0.9914   0.9957   1.0060   1.0498   1.0628   1.1274
  1.1754   1.2195   1.2627   1.2844   1.2913   1.3168   1.3496   1.3555
  1.4526   1.5745   1.6077   1.7421   1.8253   1.8634   1.8720   1.9227
  1.9326   1.9530   1.9661   1.9757   2.0160   2.1157   2.1348   2.1825
  2.2133   2.2199   2.3246   2.3555   2.4166   2.4517   2.4861   2.5023
  2.5777   2.5824   2.6394   2.6591   2.8038   2.8110   2.8851   2.9254
  2.9522   3.0072   3.0503   3.1834   3.2098   3.2551   3.2847   3.3113
  3.3440   3.3557   3.4064   3.4106   3.4256   3.5524   3.5770   3.5935
  3.6199   3.6594   3.6996   3.7331   3.7800   3.8816   3.9616   4.0607
  4.0956   4.2044   4.3516   4.5363   4.6471   4.6715   4.8120   4.8496
  4.9939   5.3337   5.3598   5.3696   5.3770   5.5022   5.7145   5.7690
  5.8185   6.0214   6.2385   6.3402   6.3531   6.6196   6.6314   6.7203
  6.7455   6.7611   6.9543   6.9799   7.0434   7.2482   7.3536   7.3865
  7.4157  22.5993  23.7258  44.2193  44.3473
 --------------------------------------------------------------
 
          Ground-State Mulliken Net Atomic Charges

     Atom                 Charge (a.u.)
  ----------------------------------------
      1 C                    -0.403527
      2 C                     0.294018
      3 O                    -0.674523
      4 O                    -0.680383
      5 H                     0.141969
      6 H                     0.158573
      7 H                     0.163873
  ----------------------------------------
  Sum of atomic charges =    -1.000000

 -----------------------------------------------------------------
                    Cartesian Multipole Moments
 -----------------------------------------------------------------
    Charge (ESU x 10^10)
                -4.8032
    Dipole Moment (Debye)
         X       2.1492      Y      -9.7295      Z       9.6177
       Tot      13.8486
    Quadrupole Moments (Debye-Ang)
        XX     -36.1686     XY       1.3207     YY     -46.0243
        XZ      -3.3066     YZ      19.8758     ZZ     -44.8411
    Octopole Moments (Debye-Ang^2)
       XXX      42.6809    XXY     -54.3335    XYY       8.2884
       YYY    -158.8689    XXZ      99.5992    XYZ       0.2279
       YYZ     119.2543    XZZ      13.3092    YZZ     -77.8675
       ZZZ     268.3283
    Hexadecapole Moments (Debye-Ang^3)
      XXXX    -175.4217   XXXY      50.0924   XXYY    -121.7877
      XYYY      22.2886   YYYY    -514.3739   XXXZ    -108.8711
      XXYZ     139.0773   XYYZ     -16.5840   YYYZ     408.5235
      XXZZ    -326.6380   XYZZ       1.4162   YYZZ    -412.1246
      XZZZ     -75.5222   YZZZ     386.1672   ZZZZ   -1605.7073
 -----------------------------------------------------------------
Archival summary:
1\1\nid00568\SP\ProcedureUnspecified\BasisUnspecified\223(1-,1)\meili\MonSep2710:38:222021MonSep2710:38:222021\0\\#,ProcedureUnspecified,BasisUnspecified,\\-1,1\C\O,1,1.24854\O,1,1.2587,2,122.943\C,1,1.51773,2,119.337,3,-178.081,0\H,4,1.08516,1,109.476,2,-72.5238,0\H,4,1.09207,1,110.104,2,170.283,0\H,4,1.1,1,111.692,2,48.4371,0\\\@

 Total job time:  4593.50s(wall), 9038.33s(cpu) 
 Mon Sep 27 10:38:23 2021

        *************************************************************
        *                                                           *
        *  Thank you very much for using Q-Chem.  Have a nice day.  *
        *                                                           *
        *************************************************************


Done Job For Fragment 1
calling putenv with: QCSCRATCH=/global/cscratch1/sd/meili 
calling putenv with: QCLOCALSCR=/tmp 
calling putenv with: QCTHREADS=32 
Doing General SCFMI
 Exchange:     0.1670 Hartree-Fock + 1.0000 wB97X-V + LR-HF
 Correlation:  1.0000 wB97X-V
 Using Euler-Maclaurin-Lebedev (99,590) quadrature formula
 Nonlocal Correlation:  VV10 with C = 0.0100 and b = 6.00 and scale = 1.00000
 Grid used for NLC:  SG-1 standard quadrature
performing fock build before subrot guess so that all methods have access
Printing subrot_rss_gen Method Specification:
Occupied Subspace Method is 0
Virtual Subspace Method is 0
Energy of the unrelaxed supersystem initial determinant -631.723303077635
performing fock build before subrot guess so that all methods have access
Printing subrot_rss_gen Method Specification:
Occupied Subspace Method is 0
Virtual Subspace Method is 0
Energy of the unrelaxed supersystem initial determinant w/ solvent -631.812699510162
write pseudocanon occs and virts to disk
write pseudocanon orbital energies to disk
Tolerance of ortho_decomp_scf: 1.00e-06
GDM subspace size: 20
Beginning the Orthogonal Decomposition of the Initial Supersystem Wavefunction
    1    -631.6245790064      6.85e-02     ortho_decomp Preconditoned Steepest Descent
    2    -631.6385332718      1.98e-03     ortho_decomp BFGS Step
    3    -631.6385964212      1.70e-04     ortho_decomp BFGS Step
    4    -631.6385965373      7.54e-06     ortho_decomp BFGS Step
    5    -631.6385965379      3.05e-07     ortho_decomp 00000 Convergence criterion met
 Hartree-Fock
 Hartree-Fock
 Hartree-Fock
Doing General SCFMI
 Exchange:     0.1670 Hartree-Fock + 1.0000 wB97X-V + LR-HF
 Correlation:  1.0000 wB97X-V
 Using Euler-Maclaurin-Lebedev (99,590) quadrature formula
 Nonlocal Correlation:  VV10 with C = 0.0100 and b = 6.00 and scale = 1.00000
 Grid used for NLC:  SG-1 standard quadrature
performing fock build at end of subrot_r(subrot) constructor so that all methods have access
<S^2> of initial wavefunction before polarization iterations 0.0000000000
Beginning iterations for the determination of the polarized wavefunction
Energy prior to optimization (guess energy) = -631.812699510162
Begin Timing: Total SCF Calculation
begin iterations for algorithm: DIIS         
the SCF tolerance is set to 1.00e-08
    1    -631.8126995102      1.77e-04     00000 
    2    -631.8164225471      8.39e-05     00000 
    3    -631.8168621281      5.41e-05     00000 
    4    -631.8170735281      1.22e-05     00000 
    5    -631.8170979705      5.61e-06     00000 
    6    -631.8171039198      2.67e-06     00000 
    7    -631.8171053081      1.41e-06     00000 
    8    -631.8171055470      6.98e-07     00000 
    9    -631.8171055997      2.59e-07     00000 
   10    -631.8171056053      9.81e-08     00000 
   11    -631.8171056067      4.01e-08     00000 
   12    -631.8171056069      2.19e-08     00000 
   13    -631.8171056069      8.48e-09     00000 Convergence criterion met
write pseudocanon occs and virts to disk
write pseudocanon orbital energies to disk
Timing for Total SCF: 8020.00s (wall), 15964.42s (cpu)
<S^2> of polarized wavefunction after polarization iterations 0.0000000000
relaxing scfmi constraint to allow all rotations in the entire AO span
Doing General SCFMI
 Exchange:     0.1670 Hartree-Fock + 1.0000 wB97X-V + LR-HF
 Correlation:  1.0000 wB97X-V
 Using Euler-Maclaurin-Lebedev (99,590) quadrature formula
 Nonlocal Correlation:  VV10 with C = 0.0100 and b = 6.00 and scale = 1.00000
 Grid used for NLC:  SG-1 standard quadrature
performing fock build at end of subrot_r(subrot) constructor so that all methods have access
<S^2> of polarized wavefunction before ct-allowed iterations 0.0000000000
Beginning iterations for the determination of the CT-Allowed wavefunction
Energy prior to optimization (guess energy) = -631.817105606938
Begin Timing: Total SCF Calculation
begin iterations for algorithm: DIIS         
the SCF tolerance is set to 1.00e-08
    1    -631.8171056069      1.51e-04     00000 
    2    -631.8228327450      2.58e-05     00000 
    3    -631.8230902189      1.39e-05     00000 
    4    -631.8231170678      5.99e-06     00000 
    5    -631.8231242009      1.72e-06     00000 
    6    -631.8231247473      5.95e-07     00000 
    7    -631.8231248562      2.39e-07     00000 
    8    -631.8231248737      5.34e-08     00000 
    9    -631.8231248757      2.17e-08     00000 
   10    -631.8231248760      9.65e-09     00000 Convergence criterion met
write pseudocanon occs and virts to disk
write pseudocanon orbital energies to disk
Timing for Total SCF: 6803.00s (wall), 13547.10s (cpu)
<S^2> of ct_allowed wavefunction after ct-allowed iterations 0.0000000000

================================
        Results of EDA2         
================================
Basic EDA Quantities
--------------------
Fragment Energies (Ha):
1 -403.1674535057
2 -228.6425097995
--------------------
  E_prp (kJ/mol) = -0.0000
  E_sol (kJ/mol) = 49.8438
  E_frz (kJ/mol) = -57.0277
  E_pol (kJ/mol) = -11.5683
  E_vct (kJ/mol) = -15.8038
  E_int (kJ/mol) = -34.5561
--------------------


Initial Wavefunction Decomposition
--------------------
  --------------------
  Orthogonal Fragment Subspace Decomposition:
  --------------------
     E_elec   (ELEC)   (kJ/mol) = -168.6505
     E_pauli  (PAULI)  (kJ/mol) = 135.6074
     E_disp   (DISP)   (kJ/mol) = -23.9847
     --------------------
     Terms summing to E_pauli:
     --------------------
        E_kep_pauli       (kJ/mol) = 165.3719
        E_disp_free_pauli (kJ/mol) = -29.7645
  --------------------
  Classical Frozen Decomposition:
  --------------------
     E_cls_elec  (CLS ELEC)  (kJ/mol) = -113.4430
     E_cls_pauli (CLS PAULI) (kJ/mol) = 56.4153
    [E_mod_pauli (MOD PAULI) (kJ/mol) = 80.4000 (CLS PAULI - DISP from orthogonal decomposition) ]
  --------------------
--------------------

Simplified EDA Summary (kJ/mol)
--------------------
 PREPARATION     -0.0000
 SOLVATION       49.8438
 FROZEN          -33.0430      (does not include dispersion)
[PAULI           135.6074]     (if this is negligible, then frozen describes electrostatics)
 DISPERSION      -23.9847
 POLARIZATION    -11.5683
 CHARGE TRANSFER -15.8038
 TOTAL           -34.5561     (PRP + SOL + FRZ + DISP + POL + CT)
--------------------
 
 --------------------------------------------------------------
 
                    Orbital Energies (a.u.)
 --------------------------------------------------------------
 
 Alpha MOs
 -- Occupied --
-19.1342 -19.1279 -14.4212 -10.3333 -10.2881 -10.2846 -10.2682 -10.2623
-10.2606 -10.2603 -10.2600 -10.2584 -10.2550 -10.2421  -1.1425  -1.0986
 -1.0408  -0.9659  -0.9191  -0.8576  -0.8523  -0.8341  -0.8063  -0.7357
 -0.7020  -0.6664  -0.6369  -0.6003  -0.5901  -0.5755  -0.5462  -0.5398
 -0.5322  -0.5308  -0.5257  -0.5162  -0.5087  -0.5054  -0.4835  -0.4764
 -0.4674  -0.4502  -0.4464  -0.4400  -0.4226  -0.3673  -0.3393  -0.3352
 -0.3179  -0.3059  -0.2825
 -- Virtual --
  0.0571   0.0597   0.0705   0.0750   0.0917   0.0921   0.0942   0.0960
  0.1016   0.1168   0.1206   0.1250   0.1282   0.1349   0.1428   0.1460
  0.1483   0.1547   0.1593   0.1624   0.1687   0.1851   0.1871   0.1900
  0.1910   0.1949   0.2029   0.2058   0.2176   0.2225   0.2232   0.2262
  0.2378   0.2429   0.2441   0.2501   0.2544   0.2582   0.2628   0.2690
  0.2728   0.2766   0.2807   0.2825   0.2878   0.2894   0.2952   0.2991
  0.3066   0.3086   0.3117   0.3180   0.3206   0.3236   0.3291   0.3298
  0.3344   0.3367   0.3424   0.3450   0.3479   0.3530   0.3538   0.3564
  0.3639   0.3661   0.3720   0.3745   0.3793   0.3826   0.3830   0.3871
  0.3888   0.3915   0.3974   0.3998   0.4042   0.4058   0.4086   0.4121
  0.4150   0.4199   0.4226   0.4260   0.4390   0.4392   0.4437   0.4475
  0.4520   0.4538   0.4573   0.4609   0.4622   0.4696   0.4731   0.4747
  0.4811   0.4886   0.4915   0.4989   0.4994   0.5032   0.5052   0.5094
  0.5160   0.5179   0.5206   0.5222   0.5304   0.5331   0.5373   0.5436
  0.5454   0.5478   0.5522   0.5559   0.5590   0.5664   0.5697   0.5725
  0.5848   0.5884   0.5944   0.5973   0.6027   0.6069   0.6115   0.6195
  0.6208   0.6229   0.6265   0.6381   0.6417   0.6545   0.6607   0.6641
  0.6674   0.6714   0.6743   0.6832   0.6844   0.6912   0.6975   0.6993
  0.7072   0.7109   0.7172   0.7218   0.7314   0.7331   0.7363   0.7460
  0.7531   0.7552   0.7568   0.7610   0.7635   0.7675   0.7713   0.7772
  0.7791   0.7851   0.7887   0.7923   0.7950   0.7998   0.8057   0.8092
  0.8096   0.8152   0.8199   0.8245   0.8296   0.8305   0.8318   0.8411
  0.8433   0.8466   0.8500   0.8563   0.8605   0.8654   0.8695   0.8739
  0.8837   0.8900   0.8976   0.8997   0.9061   0.9115   0.9172   0.9291
  0.9347   0.9378   0.9477   0.9489   0.9604   0.9674   0.9843   0.9878
  0.9931   1.0039   1.0104   1.0110   1.0155   1.0298   1.0367   1.0534
  1.0579   1.0654   1.0692   1.0769   1.0839   1.0863   1.0945   1.1025
  1.1141   1.1209   1.1334   1.1376   1.1513   1.1580   1.1613   1.1759
  1.1864   1.1929   1.2106   1.2152   1.2337   1.2347   1.2560   1.2632
  1.2759   1.2882   1.2943   1.3088   1.3209   1.3238   1.3372   1.3411
  1.3522   1.3662   1.3726   1.3756   1.3947   1.4044   1.4150   1.4217
  1.4412   1.4457   1.4545   1.4695   1.4754   1.4858   1.5005   1.5168
  1.5390   1.5619   1.5669   1.5834   1.5995   1.6081   1.6196   1.6413
  1.6517   1.6682   1.6766   1.6931   1.7091   1.7148   1.7344   1.7460
  1.7572   1.7638   1.7748   1.8121   1.8351   1.8445   1.8614   1.8782
  1.8827   1.8901   1.8930   1.9045   1.9085   1.9235   1.9340   1.9387
  1.9496   1.9640   1.9657   1.9796   1.9874   1.9954   2.0035   2.0079
  2.0140   2.0171   2.0215   2.0266   2.0367   2.0482   2.0605   2.0754
  2.0834   2.0950   2.1075   2.1249   2.1266   2.1405   2.1446   2.1523
  2.1871   2.1971   2.2022   2.2119   2.2214   2.2384   2.2444   2.2615
  2.2804   2.3048   2.3218   2.3221   2.3323   2.3532   2.3617   2.3859
  2.3919   2.4031   2.4271   2.4344   2.4510   2.4657   2.4734   2.4897
  2.4946   2.5118   2.5148   2.5277   2.5418   2.5464   2.5672   2.5887
  2.5968   2.6088   2.6217   2.6239   2.6420   2.6563   2.6694   2.6739
  2.6784   2.7008   2.7057   2.7267   2.7468   2.7601   2.7802   2.7898
  2.7927   2.8073   2.8200   2.8321   2.8407   2.8502   2.8534   2.8698
  2.8762   2.8893   2.8990   2.9047   2.9141   2.9409   2.9418   2.9591
  2.9688   2.9734   2.9830   3.0043   3.0115   3.0216   3.0412   3.0525
  3.0563   3.0719   3.0947   3.1015   3.1088   3.1235   3.1308   3.1456
  3.1667   3.1888   3.1911   3.2070   3.2169   3.2268   3.2399   3.2573
  3.2608   3.2721   3.2859   3.2944   3.3063   3.3166   3.3208   3.3299
  3.3435   3.3478   3.3524   3.3580   3.3722   3.3950   3.4006   3.4048
  3.4133   3.4211   3.4256   3.4332   3.4386   3.4541   3.4610   3.4650
  3.4724   3.4867   3.4933   3.4991   3.5078   3.5164   3.5221   3.5335
  3.5349   3.5645   3.5735   3.5772   3.6038   3.6071   3.6136   3.6237
  3.6299   3.6432   3.6524   3.6564   3.6578   3.6691   3.6854   3.6925
  3.6976   3.7152   3.7221   3.7283   3.7473   3.7516   3.7627   3.7777
  3.7805   3.7844   3.8055   3.8148   3.8214   3.8907   3.8958   3.9081
  3.9115   3.9282   3.9537   3.9874   3.9943   4.0428   4.0520   4.0678
  4.0802   4.1062   4.1119   4.1646   4.1764   4.1952   4.2113   4.2155
  4.2487   4.2561   4.2775   4.3020   4.3128   4.3268   4.3498   4.3640
  4.3738   4.3927   4.4226   4.4336   4.4561   4.4689   4.5027   4.5072
  4.5249   4.5625   4.6095   4.6239   4.6505   4.6602   4.6670   4.6862
  4.7409   4.7667   4.8041   4.8451   4.8522   4.8881   4.8996   4.9421
  4.9891   4.9961   5.0053   5.0296   5.0417   5.0693   5.1184   5.1336
  5.1518   5.1791   5.2208   5.2573   5.2846   5.3412   5.3711   5.3753
  5.3882   5.4078   5.4356   5.4893   5.5070   5.5288   5.5491   5.6182
  5.6434   5.7142   5.7279   5.7760   5.8154   5.8376   5.8775   5.9691
  5.9896   6.0246   6.2665   6.2932   6.3442   6.3561   6.3740   6.6364
  6.7219   6.7689   6.7988   6.8216   6.9748   7.0619   7.0739   7.2669
  7.3678   7.4097   7.4452  22.6159  22.6347  22.7706  22.9229  22.9502
 22.9666  23.1903  23.2710  23.4449  23.7543  23.7943  32.9523  44.3584
 44.4174
 --------------------------------------------------------------
 
          Ground-State Mulliken Net Atomic Charges

     Atom                 Charge (a.u.)
  ----------------------------------------
      1 C                    -0.998711
      2 C                    -0.221647
      3 C                     0.237321
      4 C                     0.512152
      5 C                    -0.496474
      6 C                    -0.468002
      7 C                    -0.418338
      8 C                    -0.483157
      9 C                    -0.510777
     10 N                     0.235959
     11 H                     0.395130
     12 H                     0.338203
     13 H                     0.210348
     14 H                     0.342203
     15 H                     0.239426
     16 H                     0.369206
     17 H                     0.225674
     18 H                     0.251686
     19 H                     0.237341
     20 C                    -0.662972
     21 C                     0.566802
     22 O                    -0.767207
     23 O                    -0.681948
     24 H                     0.153841
     25 H                     0.187667
     26 H                     0.206275
  ----------------------------------------
  Sum of atomic charges =    -1.000000

 -----------------------------------------------------------------
                    Cartesian Multipole Moments
 -----------------------------------------------------------------
    Charge (ESU x 10^10)
                -4.8032
    Dipole Moment (Debye)
         X       0.0006      Y      -7.5331      Z       6.5073
       Tot       9.9545
    Quadrupole Moments (Debye-Ang)
        XX     -91.1042     XY       0.9107     YY    -104.4655
        XZ      -4.7902     YZ      14.4950     ZZ    -105.7200
    Octopole Moments (Debye-Ang^2)
       XXX       2.4519    XXY      -8.9427    XYY      -4.5170
       YYY     -23.1761    XXZ      16.6832    XYZ      -1.4216
       YYZ      39.5048    XZZ      -3.2932    YZZ     -39.0107
       ZZZ      11.2858
    Hexadecapole Moments (Debye-Ang^3)
      XXXX   -1289.4028   XXXY      46.6526   XXYY    -416.6794
      XYYY      36.5964   YYYY   -1078.2380   XXXZ     -70.2498
      XXYZ     222.1861   XYYZ       9.4315   YYYZ     695.9212
      XXZZ    -699.4269   XYZZ       2.1666   YYZZ    -645.9192
      XZZZ     -35.0885   YZZZ     662.3725   ZZZZ   -2570.4205
 -----------------------------------------------------------------
Archival summary:
1\1\nid00568\SP\ProcedureUnspecified\BasisUnspecified\211112(1-,1)\meili\MonSep2717:47:512021MonSep2717:47:512021\0\\#,ProcedureUnspecified,BasisUnspecified,\\-1,1\N\H,1,1.02584\C,1,1.36062,2,125.34\C,1,1.38239,2,122.806,3,-162.105,0\H,4,1.08475,1,125.001,2,-9.831,0\C,4,1.35178,1,109.89,2,166.603,0\C,3,1.3844,1,130.406,2,15.3564,0\H,7,1.07696,3,120.752,1,-1.15661,0\C,7,1.39208,3,118.226,1,179.403,0\H,9,1.08229,7,119.317,3,179.362,0\C,9,1.40666,7,121.442,3,-2.06356,0\H,11,1.08307,9,119.901,7,-179.892,0\C,11,1.40528,9,119.841,7,2.37169,0\H,13,1.08149,11,120.231,9,177.278,0\C,3,1.41563,1,106.881,2,-167.425,0\C,6,1.51397,4,125.443,1,-174.337,0\H,16,1.09084,6,108.693,4,2.13419,0\H,16,1.09125,6,107.222,4,118.288,0\H,16,1.1,6,114.984,4,-120.885,0\O,2,1.84906,1,153.437,3,89.8535,0\C,20,1.24854,2,104.788,1,-94.5277,0\O,21,1.2587,20,122.943,2,-45.1824,0\C,21,1.51773,20,119.337,2,136.737,0\H,23,1.08516,21,109.476,20,-72.5238,0\H,23,1.09207,21,110.104,20,170.283,0\H,23,1.1,21,111.692,20,48.4371,0\\\@

 Total job time:  104006.06s(wall), 51340.99s(cpu) 
 Mon Sep 27 17:47:53 2021

        *************************************************************
        *                                                           *
        *  Thank you very much for using Q-Chem.  Have a nice day.  *
        *                                                           *
        *************************************************************


