
Running Job 1 of 1 SSI-097GLU-101ARG-1_SMD_TZVPD.in
qchem SSI-097GLU-101ARG-1_SMD_TZVPD.in_51336.0 /tmp/qchem51336/ 0
/global/common/cori/software/qchem/5.2/exe/qcprog.exe_s SSI-097GLU-101ARG-1_SMD_TZVPD.in_51336.0 /tmp/qchem51336/
                  Welcome to Q-Chem
     A Quantum Leap Into The Future Of Chemistry


 Q-Chem 5.2, Q-Chem, Inc., Pleasanton, CA (2019)

 License issued to: National Energy Research Scientific Computing Center

 Yihan Shao,  Zhengting Gan,  E. Epifanovsky,  A. T. B. Gilbert,  M. Wormit,  
 J. Kussmann,  A. W. Lange,  A. Behn,  Jia Deng,  Xintian Feng,  D. Ghosh,  
 M. Goldey,  P. R. Horn,  L. D. Jacobson,  I. Kaliman,  T. Kus,  A. Landau,  
 Jie Liu,  E. I. Proynov,  R. M. Richard,  R. P. Steele,  E. J. Sundstrom,  
 H. L. Woodcock III,  P. M. Zimmerman,  D. Zuev,  B. Albrecht,  E. Alguire,  
 S. A. Baeppler,  D. Barton,  Z. Benda,  Y. A. Bernard,  E. J. Berquist,  
 K. B. Bravaya,  H. Burton,  D. Casanova,  Chun-Min Chang,  Yunqing Chen,  
 A. Chien,  K. D. Closser,  M. P. Coons,  S. Coriani,  S. Dasgupta,  
 A. L. Dempwolff,  M. Diedenhofen,  Hainam Do,  R. G. Edgar,  Po-Tung Fang,  
 S. Faraji,  S. Fatehi,  Qingguo Feng,  K. D. Fenk,  J. Fosso-Tande,  
 J. Gayvert,  Qinghui Ge,  A. Ghysels,  G. Gidofalvi,  J. Gomes,  
 J. Gonthier,  A. Gunina,  D. Hait,  M. W. D. Hanson-Heine,  
 P. H. P. Harbach,  A. W. Hauser,  M. F. Herbst,  J. E. Herr,  
 E. G. Hohenstein,  Z. C. Holden,  Kerwin Hui,  B. C. Huynh,  T.-C. Jagau,  
 Hyunjun Ji,  B. Kaduk,  K. Khistyaev,  Jaehoon Kim,  P. Klunzinger,  K. Koh,  
 D. Kosenkov,  L. Koulias,  T. Kowalczyk,  C. M. Krauter,  A. Kunitsa,  
 Ka Un Lao,  A. Laurent,  K. V. Lawler,  Joonho Lee,  D. Lefrancois,  
 S. Lehtola,  D. S. Levine,  Yi-Pei Li,  You-Sheng Lin,  Fenglai Liu,  
 E. Livshits,  A. Luenser,  P. Manohar,  E. Mansoor,  S. F. Manzer,  
 Shan-Ping Mao,  Yuezhi Mao,  N. Mardirossian,  A. V. Marenich,  
 T. Markovich,  L. A. Martinez-Martinez,  S. A. Maurer,  N. J. Mayhall,  
 S. C. McKenzie,  J.-M. Mewes,  P. Morgante,  A. F. Morrison,  
 J. W. Mullinax,  K. Nanda,  T. S. Nguyen-Beck,  R. Olivares-Amaya,  
 J. A. Parkhill,  Zheng Pei,  T. M. Perrine,  F. Plasser,  P. Pokhilko,  
 S. Prager,  A. Prociuk,  E. Ramos,  D. R. Rehn,  F. Rob,  M. Scheurer,  
 M. Schneider,  N. Sergueev,  S. M. Sharada,  S. Sharma,  D. W. Small,  
 T. Stauch,  T. Stein,  Yu-Chuan Su,  A. J. W. Thom,  A. Tkatchenko,  
 T. Tsuchimochi,  N. M. Tubman,  L. Vogt,  M. L. Vidal,  O. Vydrov,  
 M. A. Watson,  J. Wenzel,  M. de Wergifosse,  T. A. Wesolowski,  A. White,  
 J. Witte,  A. Yamada,  Jun Yang,  K. Yao,  S. Yeganeh,  S. R. Yost,  
 Zhi-Qiang You,  A. Zech,  Igor Ying Zhang,  Xing Zhang,  Yan Zhao,  
 Ying Zhu,  B. R. Brooks,  G. K. L. Chan,  C. J. Cramer,  M. S. Gordon,  
 W. J. Hehre,  A. Klamt,  M. W. Schmidt,  C. D. Sherrill,  D. G. Truhlar,  
 A. Aspuru-Guzik,  R. Baer,  A. T. Bell,  N. A. Besley,  Jeng-Da Chai,  
 A. E. DePrince, III,  R. A. DiStasio Jr.,  A. Dreuw,  B. D. Dunietz,  
 T. R. Furlani,  Chao-Ping Hsu,  Yousung Jung,  Jing Kong,  D. S. Lambrecht,  
 WanZhen Liang,  C. Ochsenfeld,  V. A. Rassolov,  L. V. Slipchenko,  
 J. E. Subotnik,  T. Van Voorhis,  J. M. Herbert,  A. I. Krylov,  
 P. M. W. Gill,  M. Head-Gordon

 Contributors to earlier versions of Q-Chem not listed above: 
 R. D. Adamson,  B. Austin,  J. Baker,  G. J. O. Beran,  K. Brandhorst,  
 S. T. Brown,  E. F. C. Byrd,  A. K. Chakraborty,  C.-L. Cheng,  
 Siu Hung Chien,  D. M. Chipman,  D. L. Crittenden,  H. Dachsel,  
 R. J. Doerksen,  A. D. Dutoi,  L. Fusti-Molnar,  W. A. Goddard III,  
 A. Golubeva-Zadorozhnaya,  S. R. Gwaltney,  G. Hawkins,  A. Heyden,  
 S. Hirata,  G. Kedziora,  F. J. Keil,  C. Kelley,  Jihan Kim,  R. A. King,  
 R. Z. Khaliullin,  P. P. Korambath,  W. Kurlancheek,  A. M. Lee,  M. S. Lee,  
 S. V. Levchenko,  Ching Yeh Lin,  D. Liotard,  R. C. Lochan,  I. Lotan,  
 P. E. Maslen,  N. Nair,  D. P. O'Neill,  D. Neuhauser,  E. Neuscamman,  
 C. M. Oana,  R. Olson,  B. Peters,  R. Peverati,  P. A. Pieniazek,  
 Y. M. Rhee,  J. Ritchie,  M. A. Rohrdanz,  E. Rosta,  N. J. Russ,  
 H. F. Schaefer III,  N. E. Schultz,  N. Shenvi,  A. C. Simmonett,  A. Sodt,  
 D. Stuck,  K. S. Thanthiriwatte,  V. Vanovschi,  Tao Wang,  A. Warshel,  
 C. F. Williams,  Q. Wu,  X. Xu,  W. Zhang

 Please cite Q-Chem as follows:
 Y. Shao et al., Mol. Phys. 113, 184-215 (2015)
 DOI: 10.1080/00268976.2014.952696

 Q-Chem 5.2.0 for Intel X86 EM64T Linux

 Parts of Q-Chem use Armadillo 8.300.2 (Tropical Shenanigans).
 http://arma.sourceforge.net/

 Q-Chem begins on Sun Sep 26 12:40:43 2021  

Host: cori01
0

     Scratch files written to /tmp/qchem51336//
 May1019 |scratch|qcdevops|jenkins|workspace|build_RNUM -1
Processing $rem in /global/common/cori/software/qchem/5.2/config/preferences:
	 MEM_TOTAL  96000 
NAlpha2: 72
NElect   72
Mult     1
Symmetry turned off for PCM/SM12/SMD calculation

 Q-Chem warning in module libgen/rem_setup.C, line 2803:

 Neither GIA nor STOLL is specified by user. Use STOLL as the default


Checking the input file for inconsistencies... 	...done.

--------------------------------------------------------------
User input:
--------------------------------------------------------------
$comment
SSI-097GLU-101ARG-1.pdb
$end

$molecule
0 1
--
-1 1
C   -2.385736770039    1.237836819079   -0.746379502140
C   -1.899736770039    1.295836819079    0.689620497860
O   -0.985736770039    0.510836819079    1.031620497860
O   -2.423736770039    2.118836819079    1.473620497860
H   -1.794736770039    0.494836819079   -1.284379502140
H   -2.216736770039    2.194836819079   -1.235379502140
H   -3.450826770039    0.971563819079   -0.814749502140
--
1 1
C    0.400263229961   -2.087163180921   -1.739379502140
C    1.804263229961   -0.771163180921   -0.172379502140
N    0.620263229961   -1.184163180921   -0.601379502140
N    2.913263229961   -1.180163180921   -0.759379502140
N    1.874263229961    0.077836819079    0.832620497860
H   -0.185736770039   -0.797163180921   -0.113379502140
H    2.869263229961   -1.861163180921   -1.499379502140
H    3.811263229961   -0.880163180921   -0.415379502140
H    0.986263229961    0.384836819079    1.230620497860
H    2.755263229961    0.368836819079    1.220620497860
H   -0.591736770039   -2.535163180921   -1.639379502140
H    1.129263229961   -2.901163180921   -1.739379502140
H    0.439033229961   -1.540053180921   -2.692879502140
$end

$rem
JOBTYPE			EDA
EDA2			1
method			wB97X-V
BASIS			def2-TZVPD
XC_GRID			000099000590
NL_GRID			1
UNRESTRICTED		FALSE
MAX_SCF_CYCLES		200
SYMMETRY		FALSE
SYM_IGNORE		TRUE
MEM_STATIC		2000
BASIS_LIN_DEP_THRESH 	6
THRESH 			14
SCF_CONVERGENCE 	8
SCF_PRINT_FRGM 		TRUE
SOLVENT_METHOD          SMD
$end

$SMX
SOLVENT			WATER
$END
--------------------------------------------------------------
 ----------------------------------------------------------------
             Standard Nuclear Orientation (Angstroms)
    I     Atom           X                Y                Z
 ----------------------------------------------------------------
    1      C      -2.3857367700     1.2378368191    -0.7463795021
    2      C      -1.8997367700     1.2958368191     0.6896204979
    3      O      -0.9857367700     0.5108368191     1.0316204979
    4      O      -2.4237367700     2.1188368191     1.4736204979
    5      H      -1.7947367700     0.4948368191    -1.2843795021
    6      H      -2.2167367700     2.1948368191    -1.2353795021
    7      H      -3.4508267700     0.9715638191    -0.8147495021
    8      C       0.4002632300    -2.0871631809    -1.7393795021
    9      C       1.8042632300    -0.7711631809    -0.1723795021
   10      N       0.6202632300    -1.1841631809    -0.6013795021
   11      N       2.9132632300    -1.1801631809    -0.7593795021
   12      N       1.8742632300     0.0778368191     0.8326204979
   13      H      -0.1857367700    -0.7971631809    -0.1133795021
   14      H       2.8692632300    -1.8611631809    -1.4993795021
   15      H       3.8112632300    -0.8801631809    -0.4153795021
   16      H       0.9862632300     0.3848368191     1.2306204979
   17      H       2.7552632300     0.3688368191     1.2206204979
   18      H      -0.5917367700    -2.5351631809    -1.6393795021
   19      H       1.1292632300    -2.9011631809    -1.7393795021
   20      H       0.4390332300    -1.5400531809    -2.6928795021
 ----------------------------------------------------------------
 Nuclear Repulsion Energy =         461.09833628 hartrees
 There are       36 alpha and       36 beta electrons
 Requested basis set is def2-TZVPD
 There are 174 shells and 438 basis functions

 Total QAlloc Memory Limit  96000 MB
 Mega-Array Size      1956 MB
 MEM_STATIC part      2000 MB
 
 Citation of the SMD model:
 Marenich, A.V.; Cramer, C.J.; Truhlar, D.G.
 J. Phys. Chem. B 2009, 113, 6378-6396.
 iSolventCode=           1
 Solvent: water                                                           
 
 vradii
            1           2           3           4           5           6
    1   1.8500000   1.8500000   1.5200000   1.5200000   1.2000000   1.2000000
            7           8           9          10          11          12
    1   1.2000000   1.8500000   1.8500000   1.8900000   1.8900000   1.8900000
           13          14          15          16          17          18
    1   1.2000000   1.2000000   1.2000000   1.2000000   1.2000000   1.2000000
           19          20
    1   1.2000000   1.2000000
 Changing PCM_VDW_RADII to SMD_RADIUS
 Discretize the solute cavity surface with Lebedev spheres
	Using 110 Lebedev grid points for each H atom
	Using 194 Lebedev grid points for other atoms
	Atomic van der Waals radii will be scaled by 1.20
 Remove points where switching function is < 1.0e-08
 Keep 1501 surface tesserae and discard 1455 interior tesserae
 Molecular Surface Area = 180.489 Angst**2
 A cutoff of  1.0D-14 yielded  13711 shell pairs
 There are     87531 function pairs (    110027 Cartesian)
 Smallest overlap matrix eigenvalue = 7.95E-06

 Scale SEOQF with 1.000000e-01/1.000000e-01/1.000000e-01

 Standard Electronic Orientation quadrupole field applied
 Nucleus-field energy     =     0.0000000103 hartrees

 -----------------------------------------------------------------------
  General SCF calculation program by
  Eric Jon Sundstrom, Paul Horn, Yuezhi Mao, Dmitri Zuev, Alec White,
  David Stuck, Shaama M.S., Shane Yost, Joonho Lee, David Small,
  Daniel Levine, Susi Lehtola, Hugh Burton, Evgeny Epifanovsky
 -----------------------------------------------------------------------
================================================================
                 ALMO-EDA with the EDA2 driver                  
================================================================
 The second-generation ALMO-EDA (for DFT):                      
 P. R. Horn, Y. Mao and M. Head-Gordon, PCCP, 18, 23067 (2016)  
 Decomposition of the frozen energy:                            
 P. R. Horn, Y. Mao and M. Head-Gordon, JCP, 144, 114107 (2016) 
 FERF model for polarization:                                   
 P. R. Horn and M. Head-Gordon, JCP, 143, 114111 (2015)         
Using eda2 option set 1
Option set summary: Frozen orbital wavefunction, initial wavefunction decomposition, and nDQ polarization.
--------------------------------
Printing EDA Options
--------------------------------
eda_child_super_basis      0
fragmo_guess_mode          0
child_mp                   1
child_mp_orders            232
cls_elec                   1
cls_disp                   0
scfmi_mode                 1
scfmi_occs                 0
scfmi_virts                0
frz_relax                  0
frz_relax_method           0
dc_pen_start               0
dc_pen_conv                0
dc_pen_increment           0
dc_pen_steps               0
dc_pen_thresh_factor       0
dc_pen_pre_newton_thresh   0
frz_ortho_decomp           1
frz_ortho_decomp_conv      6
frgm_method                2
scfmi_freeze_ss            0
separate_rehyb             0
plot_diff_den              0
eda_nocv                   0
eda_vct_relax              1
disp_free_x                0
disp_free_c                0
eda_bsse                   0
eda_pct_a                  0
eda_covp                   0
--------------------------------
Attempting to make child job directory: /tmp/qchem51336//Frg1/
Attempting to make child job directory: /tmp/qchem51336//Frg2/
Creating input file /tmp/qchem51336/Frg1.input
using default PutDataFrgm: nothing
calling putenv with: QCSCRATCH=/tmp/qchem51336/ 
calling putenv with: QCLOCALSCR=/tmp/qchem51336/ 
Spawning Job For Fragment 0
                  Welcome to Q-Chem
     A Quantum Leap Into The Future Of Chemistry


 Q-Chem 5.2, Q-Chem, Inc., Pleasanton, CA (2019)

 License issued to: National Energy Research Scientific Computing Center

 Yihan Shao,  Zhengting Gan,  E. Epifanovsky,  A. T. B. Gilbert,  M. Wormit,  
 J. Kussmann,  A. W. Lange,  A. Behn,  Jia Deng,  Xintian Feng,  D. Ghosh,  
 M. Goldey,  P. R. Horn,  L. D. Jacobson,  I. Kaliman,  T. Kus,  A. Landau,  
 Jie Liu,  E. I. Proynov,  R. M. Richard,  R. P. Steele,  E. J. Sundstrom,  
 H. L. Woodcock III,  P. M. Zimmerman,  D. Zuev,  B. Albrecht,  E. Alguire,  
 S. A. Baeppler,  D. Barton,  Z. Benda,  Y. A. Bernard,  E. J. Berquist,  
 K. B. Bravaya,  H. Burton,  D. Casanova,  Chun-Min Chang,  Yunqing Chen,  
 A. Chien,  K. D. Closser,  M. P. Coons,  S. Coriani,  S. Dasgupta,  
 A. L. Dempwolff,  M. Diedenhofen,  Hainam Do,  R. G. Edgar,  Po-Tung Fang,  
 S. Faraji,  S. Fatehi,  Qingguo Feng,  K. D. Fenk,  J. Fosso-Tande,  
 J. Gayvert,  Qinghui Ge,  A. Ghysels,  G. Gidofalvi,  J. Gomes,  
 J. Gonthier,  A. Gunina,  D. Hait,  M. W. D. Hanson-Heine,  
 P. H. P. Harbach,  A. W. Hauser,  M. F. Herbst,  J. E. Herr,  
 E. G. Hohenstein,  Z. C. Holden,  Kerwin Hui,  B. C. Huynh,  T.-C. Jagau,  
 Hyunjun Ji,  B. Kaduk,  K. Khistyaev,  Jaehoon Kim,  P. Klunzinger,  K. Koh,  
 D. Kosenkov,  L. Koulias,  T. Kowalczyk,  C. M. Krauter,  A. Kunitsa,  
 Ka Un Lao,  A. Laurent,  K. V. Lawler,  Joonho Lee,  D. Lefrancois,  
 S. Lehtola,  D. S. Levine,  Yi-Pei Li,  You-Sheng Lin,  Fenglai Liu,  
 E. Livshits,  A. Luenser,  P. Manohar,  E. Mansoor,  S. F. Manzer,  
 Shan-Ping Mao,  Yuezhi Mao,  N. Mardirossian,  A. V. Marenich,  
 T. Markovich,  L. A. Martinez-Martinez,  S. A. Maurer,  N. J. Mayhall,  
 S. C. McKenzie,  J.-M. Mewes,  P. Morgante,  A. F. Morrison,  
 J. W. Mullinax,  K. Nanda,  T. S. Nguyen-Beck,  R. Olivares-Amaya,  
 J. A. Parkhill,  Zheng Pei,  T. M. Perrine,  F. Plasser,  P. Pokhilko,  
 S. Prager,  A. Prociuk,  E. Ramos,  D. R. Rehn,  F. Rob,  M. Scheurer,  
 M. Schneider,  N. Sergueev,  S. M. Sharada,  S. Sharma,  D. W. Small,  
 T. Stauch,  T. Stein,  Yu-Chuan Su,  A. J. W. Thom,  A. Tkatchenko,  
 T. Tsuchimochi,  N. M. Tubman,  L. Vogt,  M. L. Vidal,  O. Vydrov,  
 M. A. Watson,  J. Wenzel,  M. de Wergifosse,  T. A. Wesolowski,  A. White,  
 J. Witte,  A. Yamada,  Jun Yang,  K. Yao,  S. Yeganeh,  S. R. Yost,  
 Zhi-Qiang You,  A. Zech,  Igor Ying Zhang,  Xing Zhang,  Yan Zhao,  
 Ying Zhu,  B. R. Brooks,  G. K. L. Chan,  C. J. Cramer,  M. S. Gordon,  
 W. J. Hehre,  A. Klamt,  M. W. Schmidt,  C. D. Sherrill,  D. G. Truhlar,  
 A. Aspuru-Guzik,  R. Baer,  A. T. Bell,  N. A. Besley,  Jeng-Da Chai,  
 A. E. DePrince, III,  R. A. DiStasio Jr.,  A. Dreuw,  B. D. Dunietz,  
 T. R. Furlani,  Chao-Ping Hsu,  Yousung Jung,  Jing Kong,  D. S. Lambrecht,  
 WanZhen Liang,  C. Ochsenfeld,  V. A. Rassolov,  L. V. Slipchenko,  
 J. E. Subotnik,  T. Van Voorhis,  J. M. Herbert,  A. I. Krylov,  
 P. M. W. Gill,  M. Head-Gordon

 Contributors to earlier versions of Q-Chem not listed above: 
 R. D. Adamson,  B. Austin,  J. Baker,  G. J. O. Beran,  K. Brandhorst,  
 S. T. Brown,  E. F. C. Byrd,  A. K. Chakraborty,  C.-L. Cheng,  
 Siu Hung Chien,  D. M. Chipman,  D. L. Crittenden,  H. Dachsel,  
 R. J. Doerksen,  A. D. Dutoi,  L. Fusti-Molnar,  W. A. Goddard III,  
 A. Golubeva-Zadorozhnaya,  S. R. Gwaltney,  G. Hawkins,  A. Heyden,  
 S. Hirata,  G. Kedziora,  F. J. Keil,  C. Kelley,  Jihan Kim,  R. A. King,  
 R. Z. Khaliullin,  P. P. Korambath,  W. Kurlancheek,  A. M. Lee,  M. S. Lee,  
 S. V. Levchenko,  Ching Yeh Lin,  D. Liotard,  R. C. Lochan,  I. Lotan,  
 P. E. Maslen,  N. Nair,  D. P. O'Neill,  D. Neuhauser,  E. Neuscamman,  
 C. M. Oana,  R. Olson,  B. Peters,  R. Peverati,  P. A. Pieniazek,  
 Y. M. Rhee,  J. Ritchie,  M. A. Rohrdanz,  E. Rosta,  N. J. Russ,  
 H. F. Schaefer III,  N. E. Schultz,  N. Shenvi,  A. C. Simmonett,  A. Sodt,  
 D. Stuck,  K. S. Thanthiriwatte,  V. Vanovschi,  Tao Wang,  A. Warshel,  
 C. F. Williams,  Q. Wu,  X. Xu,  W. Zhang

 Please cite Q-Chem as follows:
 Y. Shao et al., Mol. Phys. 113, 184-215 (2015)
 DOI: 10.1080/00268976.2014.952696

 Q-Chem 5.2.0 for Intel X86 EM64T Linux

 Parts of Q-Chem use Armadillo 8.300.2 (Tropical Shenanigans).
 http://arma.sourceforge.net/

 Q-Chem begins on Sun Sep 26 12:40:47 2021  

Host: cori01
0

     Scratch files written to /tmp/qchem51336//Frg1//
 May1019 |scratch|qcdevops|jenkins|workspace|build_RNUM -1
Processing $rem in /global/common/cori/software/qchem/5.2/config/preferences:
	 MEM_TOTAL  96000 
NAlpha2: 32
NElect   32
Mult     1
Symmetry turned off for PCM/SM12/SMD calculation

Checking the input file for inconsistencies... 	...done.

--------------------------------------------------------------
User input:
--------------------------------------------------------------
$molecule
-1 1
 6	-2.3857367700	1.2378368191	-0.7463795021
 6	-1.8997367700	1.2958368191	0.6896204979
 8	-0.9857367700	0.5108368191	1.0316204979
 8	-2.4237367700	2.1188368191	1.4736204979
 1	-1.7947367700	0.4948368191	-1.2843795021
 1	-2.2167367700	2.1948368191	-1.2353795021
 1	-3.4508267700	0.9715638191	-0.8147495021
$end
$rem
EDA2		1
METHOD		WB97X-V
BASIS		DEF2-TZVPD
XC_GRID		000099000590
NL_GRID		1
UNRESTRICTED		FALSE
MAX_SCF_CYCLES		200
SYMMETRY		FALSE
SYM_IGNORE		TRUE
BASIS_LIN_DEP_THRESH		6
THRESH		14
SCF_CONVERGENCE		8
SCF_PRINT_FRGM		TRUE
SOLVENT_METHOD		SMD
!required keywords
JOBTYPE		SP
SYM_IGNORE		TRUE
SUBSYSTEM		TRUE
GEN_SCFMAN		TRUE
CHILD_INSTRUCTION		2
SYM_IGNORE		TRUE
SCFMI		0
RI_K 0		
PARI_K 0		
MIN_PARI_K 0		
IARI_K 0		
OCC_RI_K 0		
PURECART		1111
MEM_STATIC		2000
MEM_TOTAL		96000
GUI		0
CHILD_MP		1
CHILD_MP_ORDERS		232
FRZ_RELAX		0
FRZ_RELAX_METHOD		0
EDA_CLS_ELEC		1
EDA_CLS_DISP		0
FRZ_ORTHO_DECOMP		1
EDA2		FALSE
FRGM_METHOD		FALSE
CIS_N_ROOTS  0
LOCAL_CIS    0
CIS_RLX_DNS  1
$end
$smx
SOLVENT			WATER
$end
--------------------------------------------------------------
 ----------------------------------------------------------------
             Standard Nuclear Orientation (Angstroms)
    I     Atom           X                Y                Z
 ----------------------------------------------------------------
    1      C      -2.3857367700     1.2378368191    -0.7463795021
    2      C      -1.8997367700     1.2958368191     0.6896204979
    3      O      -0.9857367700     0.5108368191     1.0316204979
    4      O      -2.4237367700     2.1188368191     1.4736204979
    5      H      -1.7947367700     0.4948368191    -1.2843795021
    6      H      -2.2167367700     2.1948368191    -1.2353795021
    7      H      -3.4508267700     0.9715638191    -0.8147495021
 ----------------------------------------------------------------
 Nuclear Repulsion Energy =         112.70996007 hartrees
 There are       16 alpha and       16 beta electrons
 Requested basis set is def2-TZVPD
 There are 69 shells and 181 basis functions

 Total QAlloc Memory Limit  96000 MB
 Mega-Array Size      1956 MB
 MEM_STATIC part      2000 MB
 
 Citation of the SMD model:
 Marenich, A.V.; Cramer, C.J.; Truhlar, D.G.
 J. Phys. Chem. B 2009, 113, 6378-6396.
 iSolventCode=           1
 Solvent: water                                                           
 
 vradii
            1           2           3           4           5           6
    1   1.8500000   1.8500000   1.5200000   1.5200000   1.2000000   1.2000000
            7
    1   1.2000000
 Changing PCM_VDW_RADII to SMD_RADIUS
 Discretize the solute cavity surface with Lebedev spheres
	Using 110 Lebedev grid points for each H atom
	Using 194 Lebedev grid points for other atoms
	Atomic van der Waals radii will be scaled by 1.20
 Remove points where switching function is < 1.0e-08
 Keep 640 surface tesserae and discard 466 interior tesserae
 Molecular Surface Area = 79.898 Angst**2

                       Distance Matrix (Angstroms)
             C (  1)   C (  2)   O (  3)   O (  4)   H (  5)   H (  6)
   C (  2)  1.517121
   O (  3)  2.376934  1.252432
   O (  4)  2.388725  1.251623  2.202015
   H (  5)  1.091226  2.132909  2.453282  3.261837
   H (  6)  1.087902  2.148096  3.080666  2.717960  1.752280
   H (  7)  1.099997  2.184986  3.114164  2.758222  1.786184  1.787821

 
 A cutoff of  1.0D-14 yielded   2390 shell pairs
 There are     16694 function pairs (     21490 Cartesian)
 Smallest overlap matrix eigenvalue = 1.61E-05

 Scale SEOQF with 1.000000e-01/1.000000e-01/1.000000e-01

 Standard Electronic Orientation quadrupole field applied
 Nucleus-field energy     =     0.0000000053 hartrees
 Guess from superposition of atomic densities
 Warning:  Energy on first SCF cycle will be non-variational
 SAD guess density has 30.625312 electrons

 -----------------------------------------------------------------------
  General SCF calculation program by
  Eric Jon Sundstrom, Paul Horn, Yuezhi Mao, Dmitri Zuev, Alec White,
  David Stuck, Shaama M.S., Shane Yost, Joonho Lee, David Small,
  Daniel Levine, Susi Lehtola, Hugh Burton, Evgeny Epifanovsky
 -----------------------------------------------------------------------
 Exchange:     0.1670 Hartree-Fock + 1.0000 wB97X-V + LR-HF
 Correlation:  1.0000 wB97X-V
 Using Euler-Maclaurin-Lebedev (99,590) quadrature formula
 Nonlocal Correlation:  VV10 with C = 0.0100 and b = 6.00 and scale = 1.00000
 Grid used for NLC:  SG-1 standard quadrature
Energy prior to optimization (guess energy) = -227.763211236364
Begin Timing: Total SCF Calculation
begin iterations for algorithm: DIIS         
the SCF tolerance is set to 1.00e-08
    1    -227.7632112364      1.66e-02     00000 
    2    -225.6333273113      2.49e-02     00000 
    3    -228.6063090822      4.08e-03     00000 
    4    -228.6589509780      1.42e-03     00000 
    5    -228.6650231367      3.50e-04     00000 
    6    -228.6653527819      2.31e-04     00000 
    7    -228.6654996788      4.66e-05     00000 
    8    -228.6655088003      1.31e-05     00000 
    9    -228.6655098938      3.72e-06     00000 
   10    -228.6655099998      1.09e-06     00000 
   11    -228.6655100097      2.23e-07     00000 
   12    -228.6655100100      4.90e-08     00000 
   13    -228.6655100101      1.21e-08     00000 
   14    -228.6655100101      3.06e-09     00000 Convergence criterion met
Timing for Total SCF: 279.00s (wall), 525.86s (cpu)
(3)  G-ENP(liq) elect-nuc-pol free energy of system     -228.665510010 a.u.
(4)  G-CDS(liq) cavity-dispersion-solvent structure 
     free energy                                                3.8955 kcal/mol
(6)  G-S(liq) free energy of system                     -228.659302114 a.u.
E_pcm = -0.1309090234
E_cds = 0.0062078958
Multipole orders to be included
        2
        3
computing dipole RHS
computing quadrupole RHS
total number of RHS in solve_reponses: 8
RHS batch sizes
        8
Beginning Block Conjugate Gradient Iterations. Batch Number: 0
computing hessian-vector products by finite difference
              1      6.64e-01     00000 Conjugate Gradient Iteration
computing hessian-vector products by finite difference
              2      1.96e-01     00000 Conjugate Gradient Iteration
computing hessian-vector products by finite difference
              3      5.29e-02     00000 Conjugate Gradient Iteration
computing hessian-vector products by finite difference
              4      1.41e-02     00000 Conjugate Gradient Iteration
computing hessian-vector products by finite difference
              5      2.09e-03     00000 Conjugate Gradient Iteration
computing hessian-vector products by finite difference
              6      5.52e-04     00000 Conjugate Gradient Iteration
computing hessian-vector products by finite difference
              7      7.88e-05     00000 Conjugate Gradient Iteration
computing hessian-vector products by finite difference
              8      9.65e-06     00000 Conjugate Gradient Iteration
computing hessian-vector products by finite difference
              9      1.48e-06     00000 Conjugate Gradient Iteration
computing hessian-vector products by finite difference
             10      1.45e-07     00000 Conjugate Gradient Iteration
computing hessian-vector products by finite difference
             11      2.67e-08     00000 Conjugate Gradient Iteration
computing hessian-vector products by finite difference
             12      7.60e-09     00000 CG Converged
batch 0 complete
Done Calculating Responses
TESTING ORTHOGONALIZATION OF MULTIPOLE BASIS
Multipole virts passed orthogonality test
Virts Per Order
        48
        80
 
 --------------------------------------------------------------
 
                    Orbital Energies (a.u.)
 --------------------------------------------------------------
 
 Alpha MOs
 -- Occupied --
-19.1532 -19.1530 -10.3539 -10.2456  -1.1652  -1.0656  -0.8409  -0.6179
 -0.5478  -0.5470  -0.5413  -0.4803  -0.4642  -0.3657  -0.3577  -0.3448
 -- Virtual --
  0.0671   0.1000   0.1009   0.1072   0.1353   0.1455   0.1459   0.1496
  0.1556   0.1893   0.2020   0.2270   0.2335   0.2389   0.2605   0.2664
  0.2975   0.3171   0.3331   0.3453   0.3534   0.3592   0.3735   0.3868
  0.3920   0.3978   0.4143   0.4275   0.4287   0.4541   0.4655   0.4722
  0.4848   0.4934   0.5061   0.5095   0.5489   0.5584   0.5829   0.6005
  0.6042   0.6202   0.6267   0.6512   0.6542   0.6683   0.6766   0.7005
  0.7093   0.7203   0.7631   0.7919   0.8044   0.8082   0.8325   0.8499
  0.8588   0.9526   0.9681   0.9793   0.9814   1.0324   1.0424   1.1078
  1.1703   1.1873   1.2424   1.2610   1.2758   1.3058   1.3314   1.3327
  1.4370   1.5659   1.5844   1.7357   1.8022   1.8395   1.8516   1.8963
  1.9095   1.9369   1.9418   1.9643   1.9970   2.1005   2.1202   2.1545
  2.1823   2.2020   2.3061   2.3333   2.3872   2.4313   2.4588   2.4703
  2.5598   2.5826   2.6137   2.6462   2.7904   2.8020   2.8911   2.9099
  2.9508   2.9628   3.0045   3.1673   3.1827   3.2460   3.2638   3.3079
  3.3236   3.3292   3.3826   3.3964   3.4167   3.5257   3.5443   3.5537
  3.6112   3.6259   3.6717   3.7153   3.7637   3.9037   3.9132   4.0484
  4.0838   4.1770   4.3271   4.5119   4.6379   4.6617   4.7873   4.8272
  4.9817   5.2960   5.3233   5.3336   5.3404   5.4695   5.6836   5.7334
  5.7855   5.9894   6.2088   6.3128   6.3181   6.5915   6.5963   6.6853
  6.7107   6.7264   6.9284   6.9441   7.0076   7.2160   7.3262   7.3548
  7.3826  22.5927  23.7108  44.1883  44.3142
 --------------------------------------------------------------
 
          Ground-State Mulliken Net Atomic Charges

     Atom                 Charge (a.u.)
  ----------------------------------------
      1 C                    -0.586327
      2 C                     0.500312
      3 O                    -0.768799
      4 O                    -0.777899
      5 H                     0.199314
      6 H                     0.212566
      7 H                     0.220832
  ----------------------------------------
  Sum of atomic charges =    -1.000000

 -----------------------------------------------------------------
                    Cartesian Multipole Moments
 -----------------------------------------------------------------
    Charge (ESU x 10^10)
                -4.8032
    Dipole Moment (Debye)
         X       7.4551      Y      -6.3876      Z      -8.2234
       Tot      12.8064
    Quadrupole Moments (Debye-Ang)
        XX     -41.0045     XY      15.2921     YY     -39.4331
        XZ      14.8269     YZ     -12.5932     ZZ     -37.7223
    Octopole Moments (Debye-Ang^2)
       XXX     185.8797    XXY     -72.7087    XYY      86.6384
       YYY    -130.8512    XXZ     -46.1540    XYZ      28.7869
       YYZ     -39.9371    XZZ      73.1173    YZZ     -52.6282
       ZZZ     -60.0026
    Hexadecapole Moments (Debye-Ang^3)
      XXXX    -759.9371   XXXY     320.6376   XXYY    -267.4855
      XYYY     301.4124   YYYY    -415.3300   XXXZ     144.7445
      XXYZ     -90.8726   XYYZ      85.0130   YYYZ    -121.4487
      XXZZ    -198.9269   XYZZ     116.3213   YYZZ    -130.3636
      XZZZ     100.7178   YZZZ     -95.0656   ZZZZ    -242.4910
 -----------------------------------------------------------------
Archival summary:
1\1\nid00511\SP\ProcedureUnspecified\BasisUnspecified\223(1-,1)\meili\SunSep2613:58:032021SunSep2613:58:032021\0\\#,ProcedureUnspecified,BasisUnspecified,\\-1,1\C\O,1,1.25162\O,1,1.25243,2,123.135\C,1,1.51712,2,118.942,3,-179.946,0\H,4,1.0879,1,110.002,2,61.1039,0\H,4,1.09123,1,108.614,2,177.968,0\H,4,1.1,1,112.226,2,-61.1958,0\\\@

 Total job time:  4636.50s(wall), 8841.76s(cpu) 
 Sun Sep 26 13:58:04 2021

        *************************************************************
        *                                                           *
        *  Thank you very much for using Q-Chem.  Have a nice day.  *
        *                                                           *
        *************************************************************


Done Job For Fragment 0
calling putenv with: QCSCRATCH=/global/cscratch1/sd/meili 
calling putenv with: QCLOCALSCR=/tmp 
calling putenv with: QCTHREADS=32 
Creating input file /tmp/qchem51336/Frg2.input
using default PutDataFrgm: nothing
calling putenv with: QCSCRATCH=/tmp/qchem51336/ 
calling putenv with: QCLOCALSCR=/tmp/qchem51336/ 
Spawning Job For Fragment 1
                  Welcome to Q-Chem
     A Quantum Leap Into The Future Of Chemistry


 Q-Chem 5.2, Q-Chem, Inc., Pleasanton, CA (2019)

 License issued to: National Energy Research Scientific Computing Center

 Yihan Shao,  Zhengting Gan,  E. Epifanovsky,  A. T. B. Gilbert,  M. Wormit,  
 J. Kussmann,  A. W. Lange,  A. Behn,  Jia Deng,  Xintian Feng,  D. Ghosh,  
 M. Goldey,  P. R. Horn,  L. D. Jacobson,  I. Kaliman,  T. Kus,  A. Landau,  
 Jie Liu,  E. I. Proynov,  R. M. Richard,  R. P. Steele,  E. J. Sundstrom,  
 H. L. Woodcock III,  P. M. Zimmerman,  D. Zuev,  B. Albrecht,  E. Alguire,  
 S. A. Baeppler,  D. Barton,  Z. Benda,  Y. A. Bernard,  E. J. Berquist,  
 K. B. Bravaya,  H. Burton,  D. Casanova,  Chun-Min Chang,  Yunqing Chen,  
 A. Chien,  K. D. Closser,  M. P. Coons,  S. Coriani,  S. Dasgupta,  
 A. L. Dempwolff,  M. Diedenhofen,  Hainam Do,  R. G. Edgar,  Po-Tung Fang,  
 S. Faraji,  S. Fatehi,  Qingguo Feng,  K. D. Fenk,  J. Fosso-Tande,  
 J. Gayvert,  Qinghui Ge,  A. Ghysels,  G. Gidofalvi,  J. Gomes,  
 J. Gonthier,  A. Gunina,  D. Hait,  M. W. D. Hanson-Heine,  
 P. H. P. Harbach,  A. W. Hauser,  M. F. Herbst,  J. E. Herr,  
 E. G. Hohenstein,  Z. C. Holden,  Kerwin Hui,  B. C. Huynh,  T.-C. Jagau,  
 Hyunjun Ji,  B. Kaduk,  K. Khistyaev,  Jaehoon Kim,  P. Klunzinger,  K. Koh,  
 D. Kosenkov,  L. Koulias,  T. Kowalczyk,  C. M. Krauter,  A. Kunitsa,  
 Ka Un Lao,  A. Laurent,  K. V. Lawler,  Joonho Lee,  D. Lefrancois,  
 S. Lehtola,  D. S. Levine,  Yi-Pei Li,  You-Sheng Lin,  Fenglai Liu,  
 E. Livshits,  A. Luenser,  P. Manohar,  E. Mansoor,  S. F. Manzer,  
 Shan-Ping Mao,  Yuezhi Mao,  N. Mardirossian,  A. V. Marenich,  
 T. Markovich,  L. A. Martinez-Martinez,  S. A. Maurer,  N. J. Mayhall,  
 S. C. McKenzie,  J.-M. Mewes,  P. Morgante,  A. F. Morrison,  
 J. W. Mullinax,  K. Nanda,  T. S. Nguyen-Beck,  R. Olivares-Amaya,  
 J. A. Parkhill,  Zheng Pei,  T. M. Perrine,  F. Plasser,  P. Pokhilko,  
 S. Prager,  A. Prociuk,  E. Ramos,  D. R. Rehn,  F. Rob,  M. Scheurer,  
 M. Schneider,  N. Sergueev,  S. M. Sharada,  S. Sharma,  D. W. Small,  
 T. Stauch,  T. Stein,  Yu-Chuan Su,  A. J. W. Thom,  A. Tkatchenko,  
 T. Tsuchimochi,  N. M. Tubman,  L. Vogt,  M. L. Vidal,  O. Vydrov,  
 M. A. Watson,  J. Wenzel,  M. de Wergifosse,  T. A. Wesolowski,  A. White,  
 J. Witte,  A. Yamada,  Jun Yang,  K. Yao,  S. Yeganeh,  S. R. Yost,  
 Zhi-Qiang You,  A. Zech,  Igor Ying Zhang,  Xing Zhang,  Yan Zhao,  
 Ying Zhu,  B. R. Brooks,  G. K. L. Chan,  C. J. Cramer,  M. S. Gordon,  
 W. J. Hehre,  A. Klamt,  M. W. Schmidt,  C. D. Sherrill,  D. G. Truhlar,  
 A. Aspuru-Guzik,  R. Baer,  A. T. Bell,  N. A. Besley,  Jeng-Da Chai,  
 A. E. DePrince, III,  R. A. DiStasio Jr.,  A. Dreuw,  B. D. Dunietz,  
 T. R. Furlani,  Chao-Ping Hsu,  Yousung Jung,  Jing Kong,  D. S. Lambrecht,  
 WanZhen Liang,  C. Ochsenfeld,  V. A. Rassolov,  L. V. Slipchenko,  
 J. E. Subotnik,  T. Van Voorhis,  J. M. Herbert,  A. I. Krylov,  
 P. M. W. Gill,  M. Head-Gordon

 Contributors to earlier versions of Q-Chem not listed above: 
 R. D. Adamson,  B. Austin,  J. Baker,  G. J. O. Beran,  K. Brandhorst,  
 S. T. Brown,  E. F. C. Byrd,  A. K. Chakraborty,  C.-L. Cheng,  
 Siu Hung Chien,  D. M. Chipman,  D. L. Crittenden,  H. Dachsel,  
 R. J. Doerksen,  A. D. Dutoi,  L. Fusti-Molnar,  W. A. Goddard III,  
 A. Golubeva-Zadorozhnaya,  S. R. Gwaltney,  G. Hawkins,  A. Heyden,  
 S. Hirata,  G. Kedziora,  F. J. Keil,  C. Kelley,  Jihan Kim,  R. A. King,  
 R. Z. Khaliullin,  P. P. Korambath,  W. Kurlancheek,  A. M. Lee,  M. S. Lee,  
 S. V. Levchenko,  Ching Yeh Lin,  D. Liotard,  R. C. Lochan,  I. Lotan,  
 P. E. Maslen,  N. Nair,  D. P. O'Neill,  D. Neuhauser,  E. Neuscamman,  
 C. M. Oana,  R. Olson,  B. Peters,  R. Peverati,  P. A. Pieniazek,  
 Y. M. Rhee,  J. Ritchie,  M. A. Rohrdanz,  E. Rosta,  N. J. Russ,  
 H. F. Schaefer III,  N. E. Schultz,  N. Shenvi,  A. C. Simmonett,  A. Sodt,  
 D. Stuck,  K. S. Thanthiriwatte,  V. Vanovschi,  Tao Wang,  A. Warshel,  
 C. F. Williams,  Q. Wu,  X. Xu,  W. Zhang

 Please cite Q-Chem as follows:
 Y. Shao et al., Mol. Phys. 113, 184-215 (2015)
 DOI: 10.1080/00268976.2014.952696

 Q-Chem 5.2.0 for Intel X86 EM64T Linux

 Parts of Q-Chem use Armadillo 8.300.2 (Tropical Shenanigans).
 http://arma.sourceforge.net/

 Q-Chem begins on Sun Sep 26 13:58:05 2021  

Host: cori01
0

     Scratch files written to /tmp/qchem51336//Frg2//
 May1019 |scratch|qcdevops|jenkins|workspace|build_RNUM -1
Processing $rem in /global/common/cori/software/qchem/5.2/config/preferences:
	 MEM_TOTAL  96000 
NAlpha2: 40
NElect   40
Mult     1
Symmetry turned off for PCM/SM12/SMD calculation

Checking the input file for inconsistencies... 	...done.

--------------------------------------------------------------
User input:
--------------------------------------------------------------
$molecule
1 1
 6	0.4002632300	-2.0871631809	-1.7393795021
 6	1.8042632300	-0.7711631809	-0.1723795021
 7	0.6202632300	-1.1841631809	-0.6013795021
 7	2.9132632300	-1.1801631809	-0.7593795021
 7	1.8742632300	0.0778368191	0.8326204979
 1	-0.1857367700	-0.7971631809	-0.1133795021
 1	2.8692632300	-1.8611631809	-1.4993795021
 1	3.8112632300	-0.8801631809	-0.4153795021
 1	0.9862632300	0.3848368191	1.2306204979
 1	2.7552632300	0.3688368191	1.2206204979
 1	-0.5917367700	-2.5351631809	-1.6393795021
 1	1.1292632300	-2.9011631809	-1.7393795021
 1	0.4390332300	-1.5400531809	-2.6928795021
$end
$rem
EDA2		1
METHOD		WB97X-V
BASIS		DEF2-TZVPD
XC_GRID		000099000590
NL_GRID		1
UNRESTRICTED		FALSE
MAX_SCF_CYCLES		200
SYMMETRY		FALSE
SYM_IGNORE		TRUE
BASIS_LIN_DEP_THRESH		6
THRESH		14
SCF_CONVERGENCE		8
SCF_PRINT_FRGM		TRUE
SOLVENT_METHOD		SMD
!required keywords
JOBTYPE		SP
SYM_IGNORE		TRUE
SUBSYSTEM		TRUE
GEN_SCFMAN		TRUE
CHILD_INSTRUCTION		2
SYM_IGNORE		TRUE
SCFMI		0
RI_K 0		
PARI_K 0		
MIN_PARI_K 0		
IARI_K 0		
OCC_RI_K 0		
PURECART		1111
MEM_STATIC		2000
MEM_TOTAL		96000
GUI		0
CHILD_MP		1
CHILD_MP_ORDERS		232
FRZ_RELAX		0
FRZ_RELAX_METHOD		0
EDA_CLS_ELEC		1
EDA_CLS_DISP		0
FRZ_ORTHO_DECOMP		1
EDA2		FALSE
FRGM_METHOD		FALSE
CIS_N_ROOTS  0
LOCAL_CIS    0
CIS_RLX_DNS  1
$end
$smx
SOLVENT			WATER
$end
--------------------------------------------------------------
 ----------------------------------------------------------------
             Standard Nuclear Orientation (Angstroms)
    I     Atom           X                Y                Z
 ----------------------------------------------------------------
    1      C       0.4002632300    -2.0871631809    -1.7393795021
    2      C       1.8042632300    -0.7711631809    -0.1723795021
    3      N       0.6202632300    -1.1841631809    -0.6013795021
    4      N       2.9132632300    -1.1801631809    -0.7593795021
    5      N       1.8742632300     0.0778368191     0.8326204979
    6      H      -0.1857367700    -0.7971631809    -0.1133795021
    7      H       2.8692632300    -1.8611631809    -1.4993795021
    8      H       3.8112632300    -0.8801631809    -0.4153795021
    9      H       0.9862632300     0.3848368191     1.2306204979
   10      H       2.7552632300     0.3688368191     1.2206204979
   11      H      -0.5917367700    -2.5351631809    -1.6393795021
   12      H       1.1292632300    -2.9011631809    -1.7393795021
   13      H       0.4390332300    -1.5400531809    -2.6928795021
 ----------------------------------------------------------------
 Nuclear Repulsion Energy =         194.13865639 hartrees
 There are       20 alpha and       20 beta electrons
 Requested basis set is def2-TZVPD
 There are 105 shells and 257 basis functions

 Total QAlloc Memory Limit  96000 MB
 Mega-Array Size      1956 MB
 MEM_STATIC part      2000 MB
 
 Citation of the SMD model:
 Marenich, A.V.; Cramer, C.J.; Truhlar, D.G.
 J. Phys. Chem. B 2009, 113, 6378-6396.
 iSolventCode=           1
 Solvent: water                                                           
 
 vradii
            1           2           3           4           5           6
    1   1.8500000   1.8500000   1.8900000   1.8900000   1.8900000   1.2000000
            7           8           9          10          11          12
    1   1.2000000   1.2000000   1.2000000   1.2000000   1.2000000   1.2000000
           13
    1   1.2000000
 Changing PCM_VDW_RADII to SMD_RADIUS
 Discretize the solute cavity surface with Lebedev spheres
	Using 110 Lebedev grid points for each H atom
	Using 194 Lebedev grid points for other atoms
	Atomic van der Waals radii will be scaled by 1.20
 Remove points where switching function is < 1.0e-08
 Keep 923 surface tesserae and discard 927 interior tesserae
 Molecular Surface Area = 113.829 Angst**2

                       Distance Matrix (Angstroms)
             C (  1)   C (  2)   N (  3)   N (  4)   N (  5)   H (  6)
   C (  2)  2.481645
   N (  3)  1.469304  1.325317
   N (  4)  2.845737  1.319747  2.298441
   N (  5)  3.670843  1.317470  2.285064  2.279594
   H (  6)  2.156704  1.991044  1.018601  3.188700  2.429844
   H (  7)  2.490911  2.020706  2.514505  1.006627  3.191860  3.519392
   H (  8)  3.852888  2.024594  3.210840  1.007343  2.495443  4.009252
   H (  9)  3.908335  1.993457  2.439660  3.181612  1.020391  2.139403
   H ( 10)  4.509940  2.035792  3.207759  2.518882  1.005677  3.433452
   H ( 11)  1.093054  3.317318  2.090835  3.859462  4.361159  2.348224
   H ( 12)  1.092720  2.729105  2.121842  2.665501  4.005577  2.966465
   H ( 13)  1.099998  2.967822  2.129290  3.160658  4.136013  2.756092
             H (  7)   H (  8)   H (  9)   H ( 10)   H ( 11)   H ( 12)
   H (  8)  1.739190
   H (  9)  4.005385  3.505733
   H ( 10)  3.519133  2.313360  1.769101
   H ( 11)  3.528795  4.860413  4.387868  5.274014
   H ( 12)  2.041274  3.609784  4.431607  4.700891  1.762327
   H ( 13)  2.726458  4.122426  4.404374  4.931964  1.778368  1.799500

 
 A cutoff of  1.0D-14 yielded   5440 shell pairs
 There are     33176 function pairs (     41512 Cartesian)
 Smallest overlap matrix eigenvalue = 1.63E-05

 Scale SEOQF with 1.000000e-01/1.000000e-01/1.000000e-01

 Standard Electronic Orientation quadrupole field applied
 Nucleus-field energy     =     0.0000000050 hartrees
 Guess from superposition of atomic densities
 Warning:  Energy on first SCF cycle will be non-variational
 SAD guess density has 40.388232 electrons

 -----------------------------------------------------------------------
  General SCF calculation program by
  Eric Jon Sundstrom, Paul Horn, Yuezhi Mao, Dmitri Zuev, Alec White,
  David Stuck, Shaama M.S., Shane Yost, Joonho Lee, David Small,
  Daniel Levine, Susi Lehtola, Hugh Burton, Evgeny Epifanovsky
 -----------------------------------------------------------------------
 Exchange:     0.1670 Hartree-Fock + 1.0000 wB97X-V + LR-HF
 Correlation:  1.0000 wB97X-V
 Using Euler-Maclaurin-Lebedev (99,590) quadrature formula
 Nonlocal Correlation:  VV10 with C = 0.0100 and b = 6.00 and scale = 1.00000
 Grid used for NLC:  SG-1 standard quadrature
Energy prior to optimization (guess energy) = -244.726291304363
Begin Timing: Total SCF Calculation
begin iterations for algorithm: DIIS         
the SCF tolerance is set to 1.00e-08
    1    -244.7262913044      7.92e-03     00000 
    2    -244.9652630364      6.23e-03     00000 
    3    -245.2052155698      3.29e-04     00000 
    4    -245.2061510263      1.71e-04     00000 
    5    -245.2063791284      4.60e-05     00000 
    6    -245.2063972004      1.93e-05     00000 
    7    -245.2064002612      3.27e-06     00000 
    8    -245.2064004458      9.16e-07     00000 
    9    -245.2064004584      3.81e-07     00000 
   10    -245.2064004609      9.54e-08     00000 
   11    -245.2064004611      4.79e-08     00000 
   12    -245.2064004612      1.36e-08     00000 
   13    -245.2064004612      1.97e-09     00000 Convergence criterion met
Timing for Total SCF: 721.00s (wall), 1432.77s (cpu)
(3)  G-ENP(liq) elect-nuc-pol free energy of system     -245.206400461 a.u.
(4)  G-CDS(liq) cavity-dispersion-solvent structure 
     free energy                                                2.6914 kcal/mol
(6)  G-S(liq) free energy of system                     -245.202111452 a.u.
E_pcm = -0.1084035279
E_cds = 0.0042890087
Multipole orders to be included
        2
        3
computing dipole RHS
computing quadrupole RHS
total number of RHS in solve_reponses: 8
RHS batch sizes
        8
Beginning Block Conjugate Gradient Iterations. Batch Number: 0
computing hessian-vector products by finite difference
              1      4.92e-01     00000 Conjugate Gradient Iteration
computing hessian-vector products by finite difference
              2      1.91e-01     00000 Conjugate Gradient Iteration
computing hessian-vector products by finite difference
              3      5.27e-02     00000 Conjugate Gradient Iteration
computing hessian-vector products by finite difference
              4      1.38e-02     00000 Conjugate Gradient Iteration
computing hessian-vector products by finite difference
              5      1.86e-03     00000 Conjugate Gradient Iteration
computing hessian-vector products by finite difference
              6      3.17e-04     00000 Conjugate Gradient Iteration
computing hessian-vector products by finite difference
              7      4.61e-05     00000 Conjugate Gradient Iteration
computing hessian-vector products by finite difference
              8      6.12e-06     00000 Conjugate Gradient Iteration
computing hessian-vector products by finite difference
              9      8.77e-07     00000 Conjugate Gradient Iteration
computing hessian-vector products by finite difference
             10      1.11e-07     00000 Conjugate Gradient Iteration
computing hessian-vector products by finite difference
             11      1.59e-08     00000 Conjugate Gradient Iteration
computing hessian-vector products by finite difference
             12      3.77e-09     00000 CG Converged
batch 0 complete
Done Calculating Responses
TESTING ORTHOGONALIZATION OF MULTIPOLE BASIS
Multipole virts passed orthogonality test
Virts Per Order
           60
          100
 
 --------------------------------------------------------------
 
                    Orbital Energies (a.u.)
 --------------------------------------------------------------
 
 Alpha MOs
 -- Occupied --
-14.4555 -14.4471 -14.4461 -10.4209 -10.3067  -1.1733  -1.0535  -1.0428
 -0.8527  -0.7639  -0.7194  -0.6901  -0.6156  -0.6090  -0.5946  -0.5712
 -0.5266  -0.5064  -0.3995  -0.3764
 -- Virtual --
  0.0586   0.0847   0.0980   0.1045   0.1239   0.1257   0.1382   0.1507
  0.1720   0.1783   0.1934   0.2004   0.2022   0.2120   0.2216   0.2398
  0.2426   0.2453   0.2496   0.2706   0.2796   0.2855   0.2949   0.3047
  0.3116   0.3210   0.3260   0.3278   0.3379   0.3439   0.3514   0.3619
  0.3688   0.3757   0.3793   0.3968   0.4064   0.4112   0.4189   0.4306
  0.4416   0.4484   0.4595   0.4612   0.4731   0.4782   0.4896   0.4983
  0.5007   0.5097   0.5192   0.5221   0.5317   0.5379   0.5501   0.5528
  0.5614   0.5764   0.5830   0.5849   0.6085   0.6248   0.6424   0.6543
  0.6651   0.6766   0.6827   0.7036   0.7194   0.7291   0.7534   0.7676
  0.7954   0.8002   0.8169   0.8301   0.8425   0.8501   0.8623   0.8710
  0.8792   0.8912   0.9025   0.9210   0.9386   0.9770   0.9911   1.0009
  1.0399   1.0693   1.0786   1.0995   1.1104   1.1207   1.1335   1.1457
  1.1479   1.1774   1.2180   1.2571   1.2681   1.3411   1.3676   1.4183
  1.4304   1.4472   1.4721   1.4974   1.5574   1.5731   1.6450   1.6745
  1.6784   1.7182   1.7560   1.7937   1.8407   1.8619   1.8745   1.8920
  1.9194   1.9291   1.9344   1.9764   1.9982   2.0125   2.0408   2.0713
  2.1062   2.1275   2.1742   2.1960   2.2092   2.2353   2.2918   2.3090
  2.3291   2.3646   2.3826   2.4111   2.4443   2.4691   2.4939   2.5254
  2.5576   2.5814   2.6234   2.6386   2.6549   2.6738   2.7067   2.7292
  2.7830   2.8073   2.8472   2.8847   2.9021   2.9164   2.9507   2.9724
  3.0516   3.1392   3.1417   3.1541   3.1854   3.2082   3.2317   3.2475
  3.2679   3.3059   3.3084   3.3144   3.3593   3.3942   3.4134   3.4339
  3.4639   3.5143   3.5274   3.6079   3.6159   3.6407   3.6772   3.7465
  3.8124   3.8746   3.9438   4.0089   4.0573   4.1367   4.1650   4.2221
  4.2999   4.3281   4.3522   4.3725   4.3933   4.4906   4.5743   4.6136
  4.6633   4.8405   4.8609   4.8722   4.9351   5.0004   5.0291   5.0565
  5.1221   5.1270   5.1368   5.1690   5.1927   5.2200   5.2819   5.3487
  5.3949   5.4062   5.4524   5.4705   5.4755   5.5069   5.5839   5.6664
  5.7177   5.7832   5.8093   5.9052   6.1177   6.2131   6.3828   6.4850
 22.6532  23.6636  32.3393  32.4533  32.8262
 --------------------------------------------------------------
 
          Ground-State Mulliken Net Atomic Charges

     Atom                 Charge (a.u.)
  ----------------------------------------
      1 C                    -0.802835
      2 C                     0.448710
      3 N                    -0.114890
      4 N                    -0.277967
      5 N                    -0.311687
      6 H                     0.279934
      7 H                     0.201072
      8 H                     0.240848
      9 H                     0.257190
     10 H                     0.240022
     11 H                     0.279091
     12 H                     0.300364
     13 H                     0.260148
  ----------------------------------------
  Sum of atomic charges =     1.000000

 -----------------------------------------------------------------
                    Cartesian Multipole Moments
 -----------------------------------------------------------------
    Charge (ESU x 10^10)
                 4.8032
    Dipole Moment (Debye)
         X       8.2113      Y      -4.1331      Z      -1.0571
       Tot       9.2534
    Quadrupole Moments (Debye-Ang)
        XX      -1.1462     XY      -6.1923     YY     -21.8097
        XZ      -1.0727     YZ       9.3636     ZZ     -22.2484
    Octopole Moments (Debye-Ang^2)
       XXX     -33.6110    XXY       9.9565    XYY     -33.4983
       YYY      78.7717    XXZ      12.3227    XYZ      14.9317
       YYZ      -0.6494    XZZ     -33.1897    YZZ      22.2265
       ZZZ      41.6351
    Hexadecapole Moments (Debye-Ang^3)
      XXXX    -243.7998   XXXY      39.9037   XXYY    -124.2178
      XYYY      88.8523   YYYY    -310.1712   XXXZ      24.9113
      XXYZ       3.0631   XYYZ     -12.1866   YYYZ     -77.3570
      XXZZ    -112.5615   XYZZ      23.2435   YYZZ     -70.9096
      XZZZ      31.7246   YZZZ     -91.2396   ZZZZ    -217.6754
 -----------------------------------------------------------------
Archival summary:
1\1\nid00511\SP\ProcedureUnspecified\BasisUnspecified\328(1+,1)\meili\SunSep2617:28:482021SunSep2617:28:482021\0\\#,ProcedureUnspecified,BasisUnspecified,\\1,1\C\N,1,1.31747\H,2,1.00568,1,121.824\H,2,1.02039,1,116.435,3,-176.716,0\N,1,1.31975,2,119.627,3,-5.20059,0\H,5,1.00663,1,119.993,2,177.163,0\H,5,1.00734,1,120.326,2,2.85511,0\N,1,1.32532,2,119.683,3,176.193,0\H,8,1.0186,1,115.686,2,0.552213,0\C,8,1.4693,1,125.169,2,177.646,0\H,10,1.09272,8,110.973,1,41.6865,0\H,10,1.09305,8,108.477,1,159.526,0\H,10,1.1,8,111.126,1,-81.4406,0\\\@

 Total job time:  12643.99s(wall), 25083.99s(cpu) 
 Sun Sep 26 17:28:49 2021

        *************************************************************
        *                                                           *
        *  Thank you very much for using Q-Chem.  Have a nice day.  *
        *                                                           *
        *************************************************************


Done Job For Fragment 1
calling putenv with: QCSCRATCH=/global/cscratch1/sd/meili 
calling putenv with: QCLOCALSCR=/tmp 
calling putenv with: QCTHREADS=32 
Doing General SCFMI
 Exchange:     0.1670 Hartree-Fock + 1.0000 wB97X-V + LR-HF
 Correlation:  1.0000 wB97X-V
 Using Euler-Maclaurin-Lebedev (99,590) quadrature formula
 Nonlocal Correlation:  VV10 with C = 0.0100 and b = 6.00 and scale = 1.00000
 Grid used for NLC:  SG-1 standard quadrature
performing fock build before subrot guess so that all methods have access
Printing subrot_rss_gen Method Specification:
Occupied Subspace Method is 0
Virtual Subspace Method is 0
Energy of the unrelaxed supersystem initial determinant -473.773364487256
performing fock build before subrot guess so that all methods have access
Printing subrot_rss_gen Method Specification:
Occupied Subspace Method is 0
Virtual Subspace Method is 0
Energy of the unrelaxed supersystem initial determinant w/ solvent -473.872871747872
write pseudocanon occs and virts to disk
write pseudocanon orbital energies to disk
Tolerance of ortho_decomp_scf: 1.00e-06
GDM subspace size: 20
Beginning the Orthogonal Decomposition of the Initial Supersystem Wavefunction
    1    -473.5506782789      1.00e-01     ortho_decomp Preconditoned Steepest Descent
    2    -473.5656541953      2.61e-03     ortho_decomp BFGS Step
    3    -473.5657121663      2.40e-04     ortho_decomp BFGS Step
    4    -473.5657123085      1.06e-05     ortho_decomp BFGS Step
    5    -473.5657123091      3.63e-07     ortho_decomp 00000 Convergence criterion met
 Hartree-Fock
 Hartree-Fock
 Hartree-Fock
Doing General SCFMI
 Exchange:     0.1670 Hartree-Fock + 1.0000 wB97X-V + LR-HF
 Correlation:  1.0000 wB97X-V
 Using Euler-Maclaurin-Lebedev (99,590) quadrature formula
 Nonlocal Correlation:  VV10 with C = 0.0100 and b = 6.00 and scale = 1.00000
 Grid used for NLC:  SG-1 standard quadrature
performing fock build at end of subrot_r(subrot) constructor so that all methods have access
<S^2> of initial wavefunction before polarization iterations 0.0000000000
Beginning iterations for the determination of the polarized wavefunction
Energy prior to optimization (guess energy) = -473.872871747872
Begin Timing: Total SCF Calculation
begin iterations for algorithm: DIIS         
the SCF tolerance is set to 1.00e-08
    1    -473.8728717479      2.09e-04     00000 
    2    -473.8749857685      1.03e-04     00000 
    3    -473.8752494414      6.26e-05     00000 
    4    -473.8753555279      1.99e-05     00000 
    5    -473.8753691453      7.88e-06     00000 
    6    -473.8753727824      3.70e-06     00000 
    7    -473.8753735282      1.55e-06     00000 
    8    -473.8753736778      4.85e-07     00000 
    9    -473.8753736917      2.44e-07     00000 
   10    -473.8753736936      7.31e-08     00000 
   11    -473.8753736939      3.29e-08     00000 
   12    -473.8753736939      1.52e-08     00000 
   13    -473.8753736939      5.60e-09     00000 Convergence criterion met
write pseudocanon occs and virts to disk
write pseudocanon orbital energies to disk
Timing for Total SCF: 2893.00s (wall), 5751.09s (cpu)
<S^2> of polarized wavefunction after polarization iterations 0.0000000000
relaxing scfmi constraint to allow all rotations in the entire AO span
Doing General SCFMI
 Exchange:     0.1670 Hartree-Fock + 1.0000 wB97X-V + LR-HF
 Correlation:  1.0000 wB97X-V
 Using Euler-Maclaurin-Lebedev (99,590) quadrature formula
 Nonlocal Correlation:  VV10 with C = 0.0100 and b = 6.00 and scale = 1.00000
 Grid used for NLC:  SG-1 standard quadrature
performing fock build at end of subrot_r(subrot) constructor so that all methods have access
<S^2> of polarized wavefunction before ct-allowed iterations 0.0000000000
Beginning iterations for the determination of the CT-Allowed wavefunction
Energy prior to optimization (guess energy) = -473.875373693947
Begin Timing: Total SCF Calculation
begin iterations for algorithm: DIIS         
the SCF tolerance is set to 1.00e-08
    1    -473.8753736939      2.31e-04     00000 
    2    -473.8814010902      3.79e-05     00000 
    3    -473.8816417207      2.18e-05     00000 
    4    -473.8816725146      8.22e-06     00000 
    5    -473.8816790035      2.19e-06     00000 
    6    -473.8816794509      7.39e-07     00000 
    7    -473.8816795466      3.16e-07     00000 
    8    -473.8816795603      7.30e-08     00000 
    9    -473.8816795618      2.88e-08     00000 
   10    -473.8816795619      1.19e-08     00000 
   11    -473.8816795619      3.04e-09     00000 Convergence criterion met
write pseudocanon occs and virts to disk
write pseudocanon orbital energies to disk
Timing for Total SCF: 2430.00s (wall), 4813.36s (cpu)
<S^2> of ct_allowed wavefunction after ct-allowed iterations 0.0000000000

================================
        Results of EDA2         
================================
Basic EDA Quantities
--------------------
Fragment Energies (Ha):
1 -228.6593021142
2 -245.2021114524
--------------------
  E_prp (kJ/mol) = 0.0000
  E_sol (kJ/mol) = 362.2178
  E_frz (kJ/mol) = -369.5870
  E_pol (kJ/mol) = -6.5689
  E_vct (kJ/mol) = -16.5563
  E_int (kJ/mol) = -30.4944
--------------------


Initial Wavefunction Decomposition
--------------------
  --------------------
  Orthogonal Fragment Subspace Decomposition:
  --------------------
     E_elec   (ELEC)   (kJ/mol) = -491.6091
     E_pauli  (PAULI)  (kJ/mol) = 144.4312
     E_disp   (DISP)   (kJ/mol) = -22.4091
     --------------------
     Terms summing to E_pauli:
     --------------------
        E_kep_pauli       (kJ/mol) = 175.6103
        E_disp_free_pauli (kJ/mol) = -31.1791
  --------------------
  Classical Frozen Decomposition:
  --------------------
     E_cls_elec  (CLS ELEC)  (kJ/mol) = -436.4268
     E_cls_pauli (CLS PAULI) (kJ/mol) = 66.8397
    [E_mod_pauli (MOD PAULI) (kJ/mol) = 89.2489 (CLS PAULI - DISP from orthogonal decomposition) ]
  --------------------
--------------------

Simplified EDA Summary (kJ/mol)
--------------------
 PREPARATION     0.0000
 SOLVATION       362.2178
 FROZEN          -347.1779      (does not include dispersion)
[PAULI           144.4312]     (if this is negligible, then frozen describes electrostatics)
 DISPERSION      -22.4091
 POLARIZATION    -6.5689
 CHARGE TRANSFER -16.5563
 TOTAL           -30.4944     (PRP + SOL + FRZ + DISP + POL + CT)
--------------------
 
 --------------------------------------------------------------
 
                    Orbital Energies (a.u.)
 --------------------------------------------------------------
 
 Alpha MOs
 -- Occupied --
-19.1639 -19.1587 -14.4411 -14.4393 -14.4337 -10.4119 -10.3618 -10.3016
-10.2493  -1.1743  -1.1639  -1.0752  -1.0435  -1.0346  -0.8458  -0.8451
 -0.7573  -0.7113  -0.6826  -0.6354  -0.6057  -0.6007  -0.5876  -0.5668
 -0.5528  -0.5499  -0.5454  -0.5213  -0.5007  -0.4815  -0.4691  -0.3935
 -0.3735  -0.3680  -0.3637  -0.3524
 -- Virtual --
  0.0579   0.0752   0.0833   0.0933   0.1036   0.1089   0.1132   0.1223
  0.1269   0.1336   0.1395   0.1399   0.1475   0.1618   0.1667   0.1795
  0.1826   0.1862   0.1926   0.2050   0.2101   0.2121   0.2268   0.2275
  0.2352   0.2433   0.2442   0.2495   0.2551   0.2627   0.2768   0.2800
  0.2835   0.2871   0.2916   0.2964   0.3057   0.3119   0.3121   0.3224
  0.3297   0.3321   0.3393   0.3422   0.3431   0.3461   0.3510   0.3627
  0.3649   0.3693   0.3735   0.3766   0.3834   0.3901   0.3965   0.4061
  0.4070   0.4118   0.4156   0.4261   0.4349   0.4385   0.4433   0.4490
  0.4491   0.4570   0.4578   0.4665   0.4707   0.4753   0.4794   0.4896
  0.4959   0.4997   0.5093   0.5118   0.5161   0.5186   0.5252   0.5352
  0.5385   0.5447   0.5579   0.5593   0.5631   0.5672   0.5731   0.5757
  0.5793   0.5897   0.5944   0.6054   0.6133   0.6202   0.6243   0.6295
  0.6430   0.6494   0.6543   0.6633   0.6696   0.6735   0.6782   0.6846
  0.6870   0.6957   0.7035   0.7139   0.7219   0.7276   0.7380   0.7390
  0.7490   0.7566   0.7674   0.7718   0.7734   0.7873   0.7896   0.8006
  0.8048   0.8093   0.8204   0.8257   0.8329   0.8383   0.8503   0.8620
  0.8710   0.8807   0.8895   0.9065   0.9224   0.9307   0.9365   0.9378
  0.9625   0.9678   0.9687   0.9883   1.0049   1.0089   1.0156   1.0272
  1.0354   1.0498   1.0680   1.0850   1.1028   1.1053   1.1192   1.1284
  1.1316   1.1419   1.1510   1.1527   1.1669   1.1869   1.1953   1.2118
  1.2249   1.2323   1.2397   1.2699   1.2771   1.3010   1.3279   1.3384
  1.3480   1.3658   1.3787   1.3894   1.3966   1.4131   1.4438   1.4644
  1.4767   1.4962   1.5223   1.5461   1.5795   1.5850   1.6038   1.6180
  1.6563   1.7007   1.7140   1.7192   1.7527   1.7746   1.7961   1.8428
  1.8679   1.8755   1.8962   1.9054   1.9143   1.9189   1.9259   1.9338
  1.9573   1.9585   1.9682   1.9712   1.9949   2.0014   2.0062   2.0211
  2.0334   2.0429   2.0748   2.1025   2.1219   2.1327   2.1410   2.1566
  2.1802   2.2000   2.2109   2.2280   2.2355   2.2556   2.2610   2.2770
  2.3153   2.3337   2.3384   2.3637   2.3817   2.4284   2.4423   2.4500
  2.4800   2.4902   2.5021   2.5287   2.5474   2.5562   2.5718   2.5894
  2.5963   2.6043   2.6343   2.6427   2.6612   2.6779   2.6910   2.7025
  2.7178   2.7375   2.7508   2.7626   2.8035   2.8386   2.8400   2.8678
  2.8901   2.9118   2.9195   2.9382   2.9449   2.9582   2.9929   3.0005
  3.0135   3.0299   3.0773   3.1192   3.1642   3.1839   3.1896   3.2010
  3.2211   3.2408   3.2570   3.2700   3.2739   3.2874   3.2960   3.3183
  3.3300   3.3407   3.3436   3.3625   3.3883   3.4017   3.4143   3.4241
  3.4295   3.4484   3.4587   3.4622   3.4811   3.5084   3.5351   3.5603
  3.5757   3.6138   3.6222   3.6339   3.6438   3.6560   3.6659   3.6796
  3.7032   3.7330   3.7599   3.7750   3.8277   3.8567   3.8960   3.9329
  3.9609   3.9971   4.0354   4.0809   4.0845   4.0912   4.1588   4.1970
  4.2208   4.2533   4.3341   4.3474   4.3607   4.3764   4.4047   4.4207
  4.5199   4.5343   4.5957   4.6439   4.6741   4.6857   4.6922   4.8097
  4.8629   4.8744   4.8939   4.9101   4.9896   5.0075   5.0311   5.0615
  5.0995   5.1442   5.1563   5.1734   5.2098   5.2147   5.2454   5.2928
  5.3100   5.3322   5.3355   5.3516   5.3812   5.4152   5.4283   5.4675
  5.4746   5.4898   5.5318   5.5470   5.6090   5.6831   5.7210   5.7388
  5.7564   5.7905   5.8226   5.8394   5.9432   6.0058   6.1510   6.2357
  6.2365   6.3316   6.3638   6.4114   6.5074   6.6175   6.6363   6.7184
  6.7362   6.7619   6.9563   6.9772   7.0298   7.2400   7.3372   7.3802
  7.4538  22.6280  22.6959  23.7183  23.7362  32.3888  32.5336  32.9578
 44.3724  44.4059
 --------------------------------------------------------------
 
          Ground-State Mulliken Net Atomic Charges

     Atom                 Charge (a.u.)
  ----------------------------------------
      1 C                    -0.546989
      2 C                     0.503526
      3 O                    -0.847710
      4 O                    -0.785738
      5 H                     0.099586
      6 H                     0.227213
      7 H                     0.246486
      8 C                    -0.948354
      9 C                     0.440234
     10 N                     0.007080
     11 N                    -0.265902
     12 N                    -0.212746
     13 H                     0.253110
     14 H                     0.200211
     15 H                     0.242402
     16 H                     0.232614
     17 H                     0.211701
     18 H                     0.287245
     19 H                     0.394712
     20 H                     0.261318
  ----------------------------------------
  Sum of atomic charges =     0.000000

 -----------------------------------------------------------------
                    Cartesian Multipole Moments
 -----------------------------------------------------------------
    Charge (ESU x 10^10)
                -0.0000
    Dipole Moment (Debye)
         X      14.7884      Y      -9.9591      Z      -8.9503
       Tot      19.9497
    Quadrupole Moments (Debye-Ang)
        XX     -42.5723     XY       8.8581     YY     -61.3827
        XZ      13.5369     YZ      -3.4748     ZZ     -60.1111
    Octopole Moments (Debye-Ang^2)
       XXX     144.3669    XXY     -59.8650    XYY      50.6081
       YYY     -48.3302    XXZ     -32.9047    XYZ      42.7241
       YYZ     -38.7822    XZZ      37.9831    YZZ     -28.5547
       ZZZ     -16.4303
    Hexadecapole Moments (Debye-Ang^3)
      XXXX   -1009.1330   XXXY     358.4221   XXYY    -390.3675
      XYYY     388.3855   YYYY    -727.1553   XXXZ     168.4292
      XXYZ     -87.7112   XYYZ      72.2972   YYYZ    -200.6109
      XXZZ    -311.2291   XYZZ     138.6393   YYZZ    -202.2440
      XZZZ     131.4469   YZZZ    -187.7143   ZZZZ    -461.5531
 -----------------------------------------------------------------
Archival summary:
1\1\nid00511\SP\ProcedureUnspecified\BasisUnspecified\23411\meili\SunSep2619:57:472021SunSep2619:57:472021\0\\#,ProcedureUnspecified,BasisUnspecified,\\0,1\O\C,1,1.25243\O,2,1.25162,1,123.135\C,2,1.51712,1,117.923,3,179.946,0\H,4,1.0879,2,110.002,1,-118.845,0\H,4,1.09123,2,108.614,1,-1.98082,0\H,4,1.1,2,112.226,1,118.856,0\H,1,1.91361,2,124.759,3,178.227,0\N,8,1.0186,1,151.301,2,117.913,0\C,9,1.32532,8,115.686,1,17.2035,0\N,10,1.31747,9,119.683,8,0.552213,0\H,11,1.00568,10,121.824,9,176.193,0\H,11,1.02039,10,116.435,9,-0.523593,0\N,10,1.31975,9,120.675,8,-178.04,0\H,14,1.00663,10,119.993,9,-4.2443,0\H,14,1.00734,10,120.326,9,-178.552,0\C,9,1.4693,8,119.083,1,-160.078,0\H,17,1.09272,9,110.973,8,-141.311,0\H,17,1.09305,9,108.477,8,-23.4712,0\H,17,1.1,9,111.126,8,95.5623,0\\\@

 Total job time:  26226.67s(wall), 17771.04s(cpu) 
 Sun Sep 26 19:57:50 2021

        *************************************************************
        *                                                           *
        *  Thank you very much for using Q-Chem.  Have a nice day.  *
        *                                                           *
        *************************************************************


