                  Welcome to Q-Chem
     A Quantum Leap Into The Future Of Chemistry


 Q-Chem 5.2 (devel), Q-Chem, Inc., Pleasanton, CA (2019)

 Yihan Shao,  Zhengting Gan,  E. Epifanovsky,  A. T. B. Gilbert,  M. Wormit,  
 J. Kussmann,  A. W. Lange,  A. Behn,  Jia Deng,  Xintian Feng,  D. Ghosh,  
 M. Goldey,  P. R. Horn,  L. D. Jacobson,  I. Kaliman,  T. Kus,  A. Landau,  
 Jie Liu,  E. I. Proynov,  R. M. Richard,  R. P. Steele,  E. J. Sundstrom,  
 H. L. Woodcock III,  P. M. Zimmerman,  D. Zuev,  B. Albrecht,  E. Alguire,  
 S. A. Baeppler,  D. Barton,  Z. Benda,  Y. A. Bernard,  E. J. Berquist,  
 K. B. Bravaya,  H. Burton,  D. Casanova,  Chun-Min Chang,  Yunqing Chen,  
 A. Chien,  K. D. Closser,  M. P. Coons,  S. Coriani,  S. Dasgupta,  
 A. L. Dempwolff,  M. Diedenhofen,  Hainam Do,  R. G. Edgar,  Po-Tung Fang,  
 S. Faraji,  S. Fatehi,  Qingguo Feng,  K. D. Fenk,  J. Fosso-Tande,  
 J. Gayvert,  Qinghui Ge,  A. Ghysels,  G. Gidofalvi,  J. Gomes,  
 J. Gonthier,  A. Gunina,  D. Hait,  M. W. D. Hanson-Heine,  
 P. H. P. Harbach,  A. W. Hauser,  M. F. Herbst,  J. E. Herr,  
 E. G. Hohenstein,  Z. C. Holden,  Kerwin Hui,  B. C. Huynh,  T.-C. Jagau,  
 Hyunjun Ji,  B. Kaduk,  K. Khistyaev,  Jaehoon Kim,  P. Klunzinger,  K. Koh,  
 D. Kosenkov,  L. Koulias,  T. Kowalczyk,  C. M. Krauter,  A. Kunitsa,  
 Ka Un Lao,  A. Laurent,  K. V. Lawler,  Joonho Lee,  D. Lefrancois,  
 S. Lehtola,  D. S. Levine,  Yi-Pei Li,  You-Sheng Lin,  Fenglai Liu,  
 E. Livshits,  A. Luenser,  P. Manohar,  E. Mansoor,  S. F. Manzer,  
 Shan-Ping Mao,  Yuezhi Mao,  N. Mardirossian,  A. V. Marenich,  
 T. Markovich,  L. A. Martinez-Martinez,  S. A. Maurer,  N. J. Mayhall,  
 S. C. McKenzie,  J.-M. Mewes,  P. Morgante,  A. F. Morrison,  
 J. W. Mullinax,  K. Nanda,  T. S. Nguyen-Beck,  R. Olivares-Amaya,  
 J. A. Parkhill,  Zheng Pei,  T. M. Perrine,  F. Plasser,  P. Pokhilko,  
 S. Prager,  A. Prociuk,  E. Ramos,  D. R. Rehn,  F. Rob,  M. Scheurer,  
 M. Schneider,  N. Sergueev,  S. M. Sharada,  S. Sharma,  D. W. Small,  
 T. Stauch,  T. Stein,  Yu-Chuan Su,  A. J. W. Thom,  A. Tkatchenko,  
 T. Tsuchimochi,  N. M. Tubman,  L. Vogt,  M. L. Vidal,  O. Vydrov,  
 M. A. Watson,  J. Wenzel,  M. de Wergifosse,  T. A. Wesolowski,  A. White,  
 J. Witte,  A. Yamada,  Jun Yang,  K. Yao,  S. Yeganeh,  S. R. Yost,  
 Zhi-Qiang You,  A. Zech,  Igor Ying Zhang,  Xing Zhang,  Yan Zhao,  
 Ying Zhu,  B. R. Brooks,  G. K. L. Chan,  C. J. Cramer,  M. S. Gordon,  
 W. J. Hehre,  A. Klamt,  M. W. Schmidt,  C. D. Sherrill,  D. G. Truhlar,  
 A. Aspuru-Guzik,  R. Baer,  A. T. Bell,  N. A. Besley,  Jeng-Da Chai,  
 A. E. DePrince, III,  R. A. DiStasio Jr.,  A. Dreuw,  B. D. Dunietz,  
 T. R. Furlani,  Chao-Ping Hsu,  Yousung Jung,  Jing Kong,  D. S. Lambrecht,  
 WanZhen Liang,  C. Ochsenfeld,  V. A. Rassolov,  L. V. Slipchenko,  
 J. E. Subotnik,  T. Van Voorhis,  J. M. Herbert,  A. I. Krylov,  
 P. M. W. Gill,  M. Head-Gordon

 Contributors to earlier versions of Q-Chem not listed above: 
 R. D. Adamson,  B. Austin,  J. Baker,  G. J. O. Beran,  K. Brandhorst,  
 S. T. Brown,  E. F. C. Byrd,  A. K. Chakraborty,  C.-L. Cheng,  
 Siu Hung Chien,  D. M. Chipman,  D. L. Crittenden,  H. Dachsel,  
 R. J. Doerksen,  A. D. Dutoi,  L. Fusti-Molnar,  W. A. Goddard III,  
 A. Golubeva-Zadorozhnaya,  S. R. Gwaltney,  G. Hawkins,  A. Heyden,  
 S. Hirata,  G. Kedziora,  F. J. Keil,  C. Kelley,  Jihan Kim,  R. A. King,  
 R. Z. Khaliullin,  P. P. Korambath,  W. Kurlancheek,  A. M. Lee,  M. S. Lee,  
 S. V. Levchenko,  Ching Yeh Lin,  D. Liotard,  R. C. Lochan,  I. Lotan,  
 P. E. Maslen,  N. Nair,  D. P. O'Neill,  D. Neuhauser,  E. Neuscamman,  
 C. M. Oana,  R. Olson,  B. Peters,  R. Peverati,  P. A. Pieniazek,  
 Y. M. Rhee,  J. Ritchie,  M. A. Rohrdanz,  E. Rosta,  N. J. Russ,  
 H. F. Schaefer III,  N. E. Schultz,  N. Shenvi,  A. C. Simmonett,  A. Sodt,  
 D. Stuck,  K. S. Thanthiriwatte,  V. Vanovschi,  Tao Wang,  A. Warshel,  
 C. F. Williams,  Q. Wu,  X. Xu,  W. Zhang

 Please cite Q-Chem as follows:
 Y. Shao et al., Mol. Phys. 113, 184-215 (2015)
 DOI: 10.1080/00268976.2014.952696

 Q-Chem 5.2.1 for Intel X86 EM64T Linux

 Parts of Q-Chem use Armadillo 8.300.2 (Tropical Shenanigans).
 http://arma.sourceforge.net/

 Q-Chem begins on Tue Sep 28 19:04:46 2021  

compute-0-6.local
Host: 0

     Scratch files written to /home/meili/scratch/qchem30163//
NAlpha2: 110
NElect   110
Mult     1
Symmetry turned off for PCM/SM12/SMD calculation

 Q-Chem warning in module libgen/rem_setup.C, line 2813:

 Neither GIA nor STOLL is specified by user. Use STOLL as the default


Checking the input file for inconsistencies... 	...done.

--------------------------------------------------------------
User input:
--------------------------------------------------------------
$comment
SSI-030TRP-213GLU-1.pdb
$end

$molecule
-1 1
--
0 1
C   -0.025165489016   -2.720020816917   -1.249932716177
C    0.658834510984   -1.399020816917   -0.931932716177
C    1.376834510984   -1.064020816917    0.201067283823
C    0.673834510984   -0.231020816917   -1.765932716177
C    1.436834510984    0.759979183083   -1.096932716177
C    0.141834510984    0.072979183083   -3.035932716177
C    1.631834510984    2.025979183083   -1.632932716177
C    0.346834510984    1.340979183083   -3.570932716177
C    1.088834510984    2.299979183083   -2.887932716177
N    1.841834510984    0.227979183083    0.100067283823
H   -0.361165489016   -2.665020816917   -2.284932716177
H   -0.912165489016   -2.821020816917   -0.624932716177
H    1.542834510984   -1.706020816917    1.058067283823
H    2.355834510984    0.719979183083    0.827067283823
H   -0.431165489016   -0.666020816917   -3.577932716177
H    2.216834510984    2.766979183083   -1.109932716177
H   -0.066165489016    1.579979183083   -4.542932716177
H    1.243834510984    3.273979183083   -3.335932716177
H    0.629624510984   -3.597851816917   -1.146662716177
--
-1 1
C   -1.641165489016   -0.873020816917    1.976067283823
C   -2.978165489016   -0.543020816917    1.296067283823
C   -1.286165489016   -0.053020816917    3.241067283823
O   -1.948165489016    0.979979183083    3.509067283823
O   -0.344165489016   -0.438020816917    4.003067283823
H   -1.569165489016   -1.936020816917    2.126067283823
H   -0.874165489016   -0.656020816917    1.243067283823
H   -3.734165489016   -0.317020816917    2.048067283823
H   -3.301165489016   -1.445020816917    0.774067283823
H   -2.917175489016    0.263496183083    0.550537283823
$end

$rem
JOBTYPE			EDA
EDA2			1
method			wB97X-V
BASIS			def2-TZVPD
XC_GRID			000099000590
NL_GRID			1
UNRESTRICTED		FALSE
MAX_SCF_CYCLES		200
SYMMETRY		FALSE
SYM_IGNORE		TRUE
MEM_STATIC		2000
BASIS_LIN_DEP_THRESH 	6
THRESH 			14
SCF_CONVERGENCE 	8
SCF_PRINT_FRGM 		TRUE
SOLVENT_METHOD          SMD
$end

$SMX
SOLVENT			WATER
$END
--------------------------------------------------------------
 ----------------------------------------------------------------
             Standard Nuclear Orientation (Angstroms)
    I     Atom           X                Y                Z
 ----------------------------------------------------------------
    1      C      -0.0251654890    -2.7200208169    -1.2499327162
    2      C       0.6588345110    -1.3990208169    -0.9319327162
    3      C       1.3768345110    -1.0640208169     0.2010672838
    4      C       0.6738345110    -0.2310208169    -1.7659327162
    5      C       1.4368345110     0.7599791831    -1.0969327162
    6      C       0.1418345110     0.0729791831    -3.0359327162
    7      C       1.6318345110     2.0259791831    -1.6329327162
    8      C       0.3468345110     1.3409791831    -3.5709327162
    9      C       1.0888345110     2.2999791831    -2.8879327162
   10      N       1.8418345110     0.2279791831     0.1000672838
   11      H      -0.3611654890    -2.6650208169    -2.2849327162
   12      H      -0.9121654890    -2.8210208169    -0.6249327162
   13      H       1.5428345110    -1.7060208169     1.0580672838
   14      H       2.3558345110     0.7199791831     0.8270672838
   15      H      -0.4311654890    -0.6660208169    -3.5779327162
   16      H       2.2168345110     2.7669791831    -1.1099327162
   17      H      -0.0661654890     1.5799791831    -4.5429327162
   18      H       1.2438345110     3.2739791831    -3.3359327162
   19      H       0.6296245110    -3.5978518169    -1.1466627162
   20      C      -1.6411654890    -0.8730208169     1.9760672838
   21      C      -2.9781654890    -0.5430208169     1.2960672838
   22      C      -1.2861654890    -0.0530208169     3.2410672838
   23      O      -1.9481654890     0.9799791831     3.5090672838
   24      O      -0.3441654890    -0.4380208169     4.0030672838
   25      H      -1.5691654890    -1.9360208169     2.1260672838
   26      H      -0.8741654890    -0.6560208169     1.2430672838
   27      H      -3.7341654890    -0.3170208169     2.0480672838
   28      H      -3.3011654890    -1.4450208169     0.7740672838
   29      H      -2.9171754890     0.2634961831     0.5505372838
 ----------------------------------------------------------------
 Nuclear Repulsion Energy =         920.65783236 hartrees
 There are       55 alpha and       55 beta electrons
 Requested basis set is def2-TZVPD
 There are 267 shells and 687 basis functions

 Total QAlloc Memory Limit   2000 MB
 Mega-Array Size      1956 MB
 MEM_STATIC part      2000 MB

 Citation of the SMD model:
 Marenich, A.V.; Cramer, C.J.; Truhlar, D.G.
 J. Phys. Chem. B 2009, 113, 6378-6396.
 iSolventCode=           1
 Solvent: water                                                           

 vradii
            1           2           3           4           5           6
    1   1.8500000   1.8500000   1.8500000   1.8500000   1.8500000   1.8500000
            7           8           9          10          11          12
    1   1.8500000   1.8500000   1.8500000   1.8900000   1.2000000   1.2000000
           13          14          15          16          17          18
    1   1.2000000   1.2000000   1.2000000   1.2000000   1.2000000   1.2000000
           19          20          21          22          23          24
    1   1.2000000   1.8500000   1.8500000   1.8500000   1.5200000   1.5200000
           25          26          27          28          29
    1   1.2000000   1.2000000   1.2000000   1.2000000   1.2000000
 Changing PCM_VDW_RADII to SMD_RADIUS
 Discretize the solute cavity surface with Lebedev spheres
	Using 110 Lebedev grid points for each H atom
	Using 194 Lebedev grid points for other atoms
	Atomic van der Waals radii will be scaled by 1.20
 Remove points where switching function is < 1.0e-08
 Keep 2184 surface tesserae and discard 2266 interior tesserae
 Molecular Surface Area = 260.145 Angst**2
 A cutoff of  1.0D-14 yielded  30714 shell pairs
 There are    203590 function pairs (    258403 Cartesian)
 Smallest overlap matrix eigenvalue = 4.77E-07
 Linear dependence detected in AO basis
 Tighter screening thresholds may be required for diffuse basis sets
 Use S2THRESH > 14 and THRESH = 14 in case of SCF convergence issues
 Number of orthogonalized atomic orbitals = 684
 Maximum deviation from orthogonality = 1.972E-10

 Scale SEOQF with 1.000000e-01/1.000000e-01/1.000000e-01

 Standard Electronic Orientation quadrupole field applied
 Nucleus-field energy     =    -0.0000000437 hartrees

 -----------------------------------------------------------------------
  General SCF calculation program by
  Eric Jon Sundstrom, Paul Horn, Yuezhi Mao, Dmitri Zuev, Alec White,
  David Stuck, Shaama M.S., Shane Yost, Joonho Lee, David Small,
  Daniel Levine, Susi Lehtola, Hugh Burton, Evgeny Epifanovsky,
  Bang C. Huynh
 -----------------------------------------------------------------------
================================================================
                 ALMO-EDA with the EDA2 driver                  
================================================================
 The second-generation ALMO-EDA (for DFT):                      
 P. R. Horn, Y. Mao and M. Head-Gordon, PCCP, 18, 23067 (2016)  
 Decomposition of the frozen energy:                            
 P. R. Horn, Y. Mao and M. Head-Gordon, JCP, 144, 114107 (2016) 
 FERF model for polarization:                                   
 P. R. Horn and M. Head-Gordon, JCP, 143, 114111 (2015)         
Using eda2 option set 1
Option set summary: Frozen orbital wavefunction, initial wavefunction decomposition, and nDQ polarization.
--------------------------------
Printing EDA Options
--------------------------------
eda_child_super_basis      0
fragmo_guess_mode          0
child_mp                   1
child_mp_orders            232
cls_elec                   1
cls_disp                   0
scfmi_mode                 1
scfmi_occs                 0
scfmi_virts                0
frz_relax                  0
frz_relax_method           0
dc_pen_start               0
dc_pen_conv                0
dc_pen_increment           0
dc_pen_steps               0
dc_pen_thresh_factor       0
dc_pen_pre_newton_thresh   0
frz_ortho_decomp           1
frz_ortho_decomp_conv      6
frgm_method                2
scfmi_freeze_ss            0
separate_rehyb             0
plot_diff_den              0
eda_nocv                   0
eda_vct_relax              1
disp_free_x                0
disp_free_c                0
eda_bsse                   0
eda_pct_a                  0
eda_covp                   0
--------------------------------
Attempting to make child job directory: /home/meili/scratch/qchem30163//Frg1/
Attempting to make child job directory: /home/meili/scratch/qchem30163//Frg2/
Creating input file /home/meili/scratch/qchem30163/Frg1.input
using default PutDataFrgm: nothing
calling putenv with: QCSCRATCH=/home/meili/scratch/qchem30163/ 
Spawning Job For Fragment 0
                  Welcome to Q-Chem
     A Quantum Leap Into The Future Of Chemistry


 Q-Chem 5.2 (devel), Q-Chem, Inc., Pleasanton, CA (2019)

 Yihan Shao,  Zhengting Gan,  E. Epifanovsky,  A. T. B. Gilbert,  M. Wormit,  
 J. Kussmann,  A. W. Lange,  A. Behn,  Jia Deng,  Xintian Feng,  D. Ghosh,  
 M. Goldey,  P. R. Horn,  L. D. Jacobson,  I. Kaliman,  T. Kus,  A. Landau,  
 Jie Liu,  E. I. Proynov,  R. M. Richard,  R. P. Steele,  E. J. Sundstrom,  
 H. L. Woodcock III,  P. M. Zimmerman,  D. Zuev,  B. Albrecht,  E. Alguire,  
 S. A. Baeppler,  D. Barton,  Z. Benda,  Y. A. Bernard,  E. J. Berquist,  
 K. B. Bravaya,  H. Burton,  D. Casanova,  Chun-Min Chang,  Yunqing Chen,  
 A. Chien,  K. D. Closser,  M. P. Coons,  S. Coriani,  S. Dasgupta,  
 A. L. Dempwolff,  M. Diedenhofen,  Hainam Do,  R. G. Edgar,  Po-Tung Fang,  
 S. Faraji,  S. Fatehi,  Qingguo Feng,  K. D. Fenk,  J. Fosso-Tande,  
 J. Gayvert,  Qinghui Ge,  A. Ghysels,  G. Gidofalvi,  J. Gomes,  
 J. Gonthier,  A. Gunina,  D. Hait,  M. W. D. Hanson-Heine,  
 P. H. P. Harbach,  A. W. Hauser,  M. F. Herbst,  J. E. Herr,  
 E. G. Hohenstein,  Z. C. Holden,  Kerwin Hui,  B. C. Huynh,  T.-C. Jagau,  
 Hyunjun Ji,  B. Kaduk,  K. Khistyaev,  Jaehoon Kim,  P. Klunzinger,  K. Koh,  
 D. Kosenkov,  L. Koulias,  T. Kowalczyk,  C. M. Krauter,  A. Kunitsa,  
 Ka Un Lao,  A. Laurent,  K. V. Lawler,  Joonho Lee,  D. Lefrancois,  
 S. Lehtola,  D. S. Levine,  Yi-Pei Li,  You-Sheng Lin,  Fenglai Liu,  
 E. Livshits,  A. Luenser,  P. Manohar,  E. Mansoor,  S. F. Manzer,  
 Shan-Ping Mao,  Yuezhi Mao,  N. Mardirossian,  A. V. Marenich,  
 T. Markovich,  L. A. Martinez-Martinez,  S. A. Maurer,  N. J. Mayhall,  
 S. C. McKenzie,  J.-M. Mewes,  P. Morgante,  A. F. Morrison,  
 J. W. Mullinax,  K. Nanda,  T. S. Nguyen-Beck,  R. Olivares-Amaya,  
 J. A. Parkhill,  Zheng Pei,  T. M. Perrine,  F. Plasser,  P. Pokhilko,  
 S. Prager,  A. Prociuk,  E. Ramos,  D. R. Rehn,  F. Rob,  M. Scheurer,  
 M. Schneider,  N. Sergueev,  S. M. Sharada,  S. Sharma,  D. W. Small,  
 T. Stauch,  T. Stein,  Yu-Chuan Su,  A. J. W. Thom,  A. Tkatchenko,  
 T. Tsuchimochi,  N. M. Tubman,  L. Vogt,  M. L. Vidal,  O. Vydrov,  
 M. A. Watson,  J. Wenzel,  M. de Wergifosse,  T. A. Wesolowski,  A. White,  
 J. Witte,  A. Yamada,  Jun Yang,  K. Yao,  S. Yeganeh,  S. R. Yost,  
 Zhi-Qiang You,  A. Zech,  Igor Ying Zhang,  Xing Zhang,  Yan Zhao,  
 Ying Zhu,  B. R. Brooks,  G. K. L. Chan,  C. J. Cramer,  M. S. Gordon,  
 W. J. Hehre,  A. Klamt,  M. W. Schmidt,  C. D. Sherrill,  D. G. Truhlar,  
 A. Aspuru-Guzik,  R. Baer,  A. T. Bell,  N. A. Besley,  Jeng-Da Chai,  
 A. E. DePrince, III,  R. A. DiStasio Jr.,  A. Dreuw,  B. D. Dunietz,  
 T. R. Furlani,  Chao-Ping Hsu,  Yousung Jung,  Jing Kong,  D. S. Lambrecht,  
 WanZhen Liang,  C. Ochsenfeld,  V. A. Rassolov,  L. V. Slipchenko,  
 J. E. Subotnik,  T. Van Voorhis,  J. M. Herbert,  A. I. Krylov,  
 P. M. W. Gill,  M. Head-Gordon

 Contributors to earlier versions of Q-Chem not listed above: 
 R. D. Adamson,  B. Austin,  J. Baker,  G. J. O. Beran,  K. Brandhorst,  
 S. T. Brown,  E. F. C. Byrd,  A. K. Chakraborty,  C.-L. Cheng,  
 Siu Hung Chien,  D. M. Chipman,  D. L. Crittenden,  H. Dachsel,  
 R. J. Doerksen,  A. D. Dutoi,  L. Fusti-Molnar,  W. A. Goddard III,  
 A. Golubeva-Zadorozhnaya,  S. R. Gwaltney,  G. Hawkins,  A. Heyden,  
 S. Hirata,  G. Kedziora,  F. J. Keil,  C. Kelley,  Jihan Kim,  R. A. King,  
 R. Z. Khaliullin,  P. P. Korambath,  W. Kurlancheek,  A. M. Lee,  M. S. Lee,  
 S. V. Levchenko,  Ching Yeh Lin,  D. Liotard,  R. C. Lochan,  I. Lotan,  
 P. E. Maslen,  N. Nair,  D. P. O'Neill,  D. Neuhauser,  E. Neuscamman,  
 C. M. Oana,  R. Olson,  B. Peters,  R. Peverati,  P. A. Pieniazek,  
 Y. M. Rhee,  J. Ritchie,  M. A. Rohrdanz,  E. Rosta,  N. J. Russ,  
 H. F. Schaefer III,  N. E. Schultz,  N. Shenvi,  A. C. Simmonett,  A. Sodt,  
 D. Stuck,  K. S. Thanthiriwatte,  V. Vanovschi,  Tao Wang,  A. Warshel,  
 C. F. Williams,  Q. Wu,  X. Xu,  W. Zhang

 Please cite Q-Chem as follows:
 Y. Shao et al., Mol. Phys. 113, 184-215 (2015)
 DOI: 10.1080/00268976.2014.952696

 Q-Chem 5.2.1 for Intel X86 EM64T Linux

 Parts of Q-Chem use Armadillo 8.300.2 (Tropical Shenanigans).
 http://arma.sourceforge.net/

 Q-Chem begins on Tue Sep 28 19:04:52 2021  

compute-0-6.local
Host: 0

     Scratch files written to /home/meili/scratch/qchem30163//Frg1//
NAlpha2: 70
NElect   70
Mult     1
Symmetry turned off for PCM/SM12/SMD calculation

Checking the input file for inconsistencies... 	...done.

--------------------------------------------------------------
User input:
--------------------------------------------------------------
$molecule
0 1
 6	-0.0251654890	-2.7200208169	-1.2499327162
 6	0.6588345110	-1.3990208169	-0.9319327162
 6	1.3768345110	-1.0640208169	0.2010672838
 6	0.6738345110	-0.2310208169	-1.7659327162
 6	1.4368345110	0.7599791831	-1.0969327162
 6	0.1418345110	0.0729791831	-3.0359327162
 6	1.6318345110	2.0259791831	-1.6329327162
 6	0.3468345110	1.3409791831	-3.5709327162
 6	1.0888345110	2.2999791831	-2.8879327162
 7	1.8418345110	0.2279791831	0.1000672838
 1	-0.3611654890	-2.6650208169	-2.2849327162
 1	-0.9121654890	-2.8210208169	-0.6249327162
 1	1.5428345110	-1.7060208169	1.0580672838
 1	2.3558345110	0.7199791831	0.8270672838
 1	-0.4311654890	-0.6660208169	-3.5779327162
 1	2.2168345110	2.7669791831	-1.1099327162
 1	-0.0661654890	1.5799791831	-4.5429327162
 1	1.2438345110	3.2739791831	-3.3359327162
 1	0.6296245110	-3.5978518169	-1.1466627162
$end
$rem
EDA2		1
METHOD		WB97X-V
BASIS		DEF2-TZVPD
XC_GRID		000099000590
NL_GRID		1
UNRESTRICTED		FALSE
MAX_SCF_CYCLES		200
SYMMETRY		FALSE
SYM_IGNORE		TRUE
BASIS_LIN_DEP_THRESH		6
THRESH		14
SCF_CONVERGENCE		8
SCF_PRINT_FRGM		TRUE
SOLVENT_METHOD		SMD
!required keywords
JOBTYPE		SP
SYM_IGNORE		TRUE
SUBSYSTEM		TRUE
GEN_SCFMAN		TRUE
CHILD_INSTRUCTION		2
SYM_IGNORE		TRUE
SCFMI		0
RI_K 0		
PARI_K 0		
MIN_PARI_K 0		
IARI_K 0		
OCC_RI_K 0		
PURECART		1111
MEM_STATIC		2000
MEM_TOTAL		2000
GUI		0
CHILD_MP		1
CHILD_MP_ORDERS		232
FRZ_RELAX		0
FRZ_RELAX_METHOD		0
EDA_CLS_ELEC		1
EDA_CLS_DISP		0
FRZ_ORTHO_DECOMP		1
EDA2		FALSE
FRGM_METHOD		FALSE
CIS_N_ROOTS  0
LOCAL_CIS    0
CIS_RLX_DNS  1
$end
$smx
SOLVENT			WATER
$end
--------------------------------------------------------------
 ----------------------------------------------------------------
             Standard Nuclear Orientation (Angstroms)
    I     Atom           X                Y                Z
 ----------------------------------------------------------------
    1      C      -0.0251654890    -2.7200208169    -1.2499327162
    2      C       0.6588345110    -1.3990208169    -0.9319327162
    3      C       1.3768345110    -1.0640208169     0.2010672838
    4      C       0.6738345110    -0.2310208169    -1.7659327162
    5      C       1.4368345110     0.7599791831    -1.0969327162
    6      C       0.1418345110     0.0729791831    -3.0359327162
    7      C       1.6318345110     2.0259791831    -1.6329327162
    8      C       0.3468345110     1.3409791831    -3.5709327162
    9      C       1.0888345110     2.2999791831    -2.8879327162
   10      N       1.8418345110     0.2279791831     0.1000672838
   11      H      -0.3611654890    -2.6650208169    -2.2849327162
   12      H      -0.9121654890    -2.8210208169    -0.6249327162
   13      H       1.5428345110    -1.7060208169     1.0580672838
   14      H       2.3558345110     0.7199791831     0.8270672838
   15      H      -0.4311654890    -0.6660208169    -3.5779327162
   16      H       2.2168345110     2.7669791831    -1.1099327162
   17      H      -0.0661654890     1.5799791831    -4.5429327162
   18      H       1.2438345110     3.2739791831    -3.3359327162
   19      H       0.6296245110    -3.5978518169    -1.1466627162
 ----------------------------------------------------------------
 Nuclear Repulsion Energy =         483.61441567 hartrees
 There are       35 alpha and       35 beta electrons
 Requested basis set is def2-TZVPD
 There are 175 shells and 451 basis functions

 Total QAlloc Memory Limit   2000 MB
 Mega-Array Size      1956 MB
 MEM_STATIC part      2000 MB

 Citation of the SMD model:
 Marenich, A.V.; Cramer, C.J.; Truhlar, D.G.
 J. Phys. Chem. B 2009, 113, 6378-6396.
 iSolventCode=           1
 Solvent: water                                                           

 vradii
            1           2           3           4           5           6
    1   1.8500000   1.8500000   1.8500000   1.8500000   1.8500000   1.8500000
            7           8           9          10          11          12
    1   1.8500000   1.8500000   1.8500000   1.8900000   1.2000000   1.2000000
           13          14          15          16          17          18
    1   1.2000000   1.2000000   1.2000000   1.2000000   1.2000000   1.2000000
           19
    1   1.2000000
 Changing PCM_VDW_RADII to SMD_RADIUS
 Discretize the solute cavity surface with Lebedev spheres
	Using 110 Lebedev grid points for each H atom
	Using 194 Lebedev grid points for other atoms
	Atomic van der Waals radii will be scaled by 1.20
 Remove points where switching function is < 1.0e-08
 Keep 1359 surface tesserae and discard 1571 interior tesserae
 Molecular Surface Area = 165.107 Angst**2
 A cutoff of  1.0D-14 yielded  14461 shell pairs
 There are     98231 function pairs (    126402 Cartesian)
 Smallest overlap matrix eigenvalue = 5.40E-07
 Linear dependence detected in AO basis
 Tighter screening thresholds may be required for diffuse basis sets
 Use S2THRESH > 14 and THRESH = 14 in case of SCF convergence issues
 Number of orthogonalized atomic orbitals = 449
 Maximum deviation from orthogonality = 2.555E-10

 Scale SEOQF with 1.000000e-01/1.000000e-01/1.000000e-01

 Standard Electronic Orientation quadrupole field applied
 Nucleus-field energy     =    -0.0000000147 hartrees
 Guess from superposition of atomic densities
 Warning:  Energy on first SCF cycle will be non-variational
 SAD guess density has 70.000000 electrons

 -----------------------------------------------------------------------
  General SCF calculation program by
  Eric Jon Sundstrom, Paul Horn, Yuezhi Mao, Dmitri Zuev, Alec White,
  David Stuck, Shaama M.S., Shane Yost, Joonho Lee, David Small,
  Daniel Levine, Susi Lehtola, Hugh Burton, Evgeny Epifanovsky,
  Bang C. Huynh
 -----------------------------------------------------------------------
 Exchange:     0.1670 Hartree-Fock + 1.0000 wB97X-V + LR-HF
 Correlation:  1.0000 wB97X-V
 Using Euler-Maclaurin-Lebedev (99,590) quadrature formula
 Nonlocal Correlation:  VV10 with C = 0.0100 and b = 6.00 and scale = 1.00000
 Grid used for NLC:  SG-1 standard quadrature
Energy prior to optimization (guess energy) = -403.080919381698
Begin Timing: Total SCF Calculation
begin iterations for algorithm: DIIS         
the SCF tolerance is set to 1.00e-08
    1    -403.0809193817      1.64e-03     00000 
    2    -403.1326299456      1.21e-03     00000 
    3    -403.1733694186      2.55e-04     00000 
    4    -403.1753340517      1.18e-04     00000 
    5    -403.1758007153      3.98e-05     00000 
    6    -403.1758507753      1.28e-05     00000 
    7    -403.1758557036      4.29e-06     00000 
    8    -403.1758566853      1.00e-06     00000 
    9    -403.1758567901      4.66e-07     00000 
   10    -403.1758568131      2.26e-07     00000 
   11    -403.1758568200      7.41e-08     00000 
   12    -403.1758568209      3.15e-08     00000 
   13    -403.1758568210      1.15e-08     00000 
   14    -403.1758568210      3.63e-09     00000 Convergence criterion met
Timing for Total SCF: 1517.00s (wall), 10126.03s (cpu)
(3)  G-ENP(liq) elect-nuc-pol free energy of system     -403.175856821 a.u.
(4)  G-CDS(liq) cavity-dispersion-solvent structure 
     free energy                                                3.9096 kcal/mol
(6)  G-S(liq) free energy of system                     -403.169626435 a.u.
E_pcm = -0.0166391669
E_cds = 0.0062303859
Multipole orders to be included
        2
        3
computing dipole RHS
computing quadrupole RHS
total number of RHS in solve_reponses: 8
RHS batch sizes
        8
Beginning Block Conjugate Gradient Iterations. Batch Number: 0
computing hessian-vector products by finite difference
              1      6.63e-01     00000 Conjugate Gradient Iteration
computing hessian-vector products by finite difference
              2      2.11e-01     00000 Conjugate Gradient Iteration
computing hessian-vector products by finite difference
              3      6.70e-02     00000 Conjugate Gradient Iteration
computing hessian-vector products by finite difference
              4      2.80e-02     00000 Conjugate Gradient Iteration
computing hessian-vector products by finite difference
              5      8.04e-03     00000 Conjugate Gradient Iteration
computing hessian-vector products by finite difference
              6      2.18e-03     00000 Conjugate Gradient Iteration
computing hessian-vector products by finite difference
              7      4.80e-04     00000 Conjugate Gradient Iteration
computing hessian-vector products by finite difference
              8      8.97e-05     00000 Conjugate Gradient Iteration
computing hessian-vector products by finite difference
              9      1.63e-05     00000 Conjugate Gradient Iteration
computing hessian-vector products by finite difference
             10      2.63e-06     00000 Conjugate Gradient Iteration
computing hessian-vector products by finite difference
             11      4.62e-07     00000 Conjugate Gradient Iteration
computing hessian-vector products by finite difference
             12      9.48e-08     00000 Conjugate Gradient Iteration
computing hessian-vector products by finite difference
             13      1.42e-08     00000 Conjugate Gradient Iteration
computing hessian-vector products by finite difference
             14      4.59e-09     00000 CG Converged
batch 0 complete
Done Calculating Responses
TESTING ORTHOGONALIZATION OF MULTIPOLE BASIS
Multipole virts passed orthogonality test
Virts Per Order
          105
          175

 --------------------------------------------------------------

                    Orbital Energies (a.u.)
 --------------------------------------------------------------

 Alpha MOs
 -- Occupied --
-14.4451 -10.2984 -10.2935 -10.2683 -10.2678 -10.2657 -10.2643 -10.2621
-10.2602 -10.2565  -1.1100  -0.9760  -0.9238  -0.8654  -0.8548  -0.8110
 -0.7420  -0.7085  -0.6727  -0.6456  -0.5920  -0.5793  -0.5502  -0.5451
 -0.5343  -0.5107  -0.5080  -0.4868  -0.4727  -0.4508  -0.4465  -0.4298
 -0.3759  -0.3158  -0.2863
 -- Virtual --
  0.0540   0.0642   0.0800   0.0826   0.0948   0.1026   0.1039   0.1105
  0.1312   0.1326   0.1398   0.1501   0.1588   0.1711   0.1806   0.1832
  0.1903   0.1959   0.2038   0.2106   0.2242   0.2287   0.2289   0.2464
  0.2492   0.2564   0.2594   0.2654   0.2697   0.2785   0.2787   0.2832
  0.2845   0.2890   0.2943   0.2973   0.3045   0.3095   0.3141   0.3239
  0.3264   0.3330   0.3384   0.3418   0.3448   0.3463   0.3519   0.3563
  0.3665   0.3694   0.3780   0.3788   0.3810   0.3874   0.3902   0.3935
  0.4075   0.4117   0.4141   0.4172   0.4197   0.4251   0.4286   0.4377
  0.4407   0.4452   0.4510   0.4604   0.4629   0.4638   0.4753   0.4792
  0.4861   0.4953   0.4989   0.5006   0.5028   0.5133   0.5213   0.5239
  0.5329   0.5402   0.5428   0.5483   0.5511   0.5572   0.5644   0.5658
  0.5744   0.5775   0.5852   0.5887   0.5982   0.6128   0.6171   0.6252
  0.6327   0.6430   0.6499   0.6505   0.6549   0.6716   0.6747   0.6805
  0.6835   0.6931   0.7038   0.7116   0.7130   0.7191   0.7227   0.7340
  0.7391   0.7434   0.7509   0.7526   0.7571   0.7623   0.7665   0.7713
  0.7780   0.7884   0.7897   0.7982   0.8037   0.8054   0.8121   0.8183
  0.8209   0.8272   0.8346   0.8374   0.8456   0.8478   0.8562   0.8612
  0.8659   0.8829   0.8898   0.9011   0.9049   0.9102   0.9169   0.9266
  0.9418   0.9511   0.9602   0.9751   0.9925   1.0045   1.0061   1.0249
  1.0321   1.0351   1.0458   1.0563   1.0642   1.0704   1.0807   1.0895
  1.1074   1.1119   1.1258   1.1388   1.1429   1.1604   1.1838   1.2220
  1.2272   1.2347   1.2379   1.2546   1.2778   1.3078   1.3394   1.3492
  1.3580   1.3869   1.3955   1.4043   1.4182   1.4337   1.4601   1.4670
  1.4754   1.5185   1.5437   1.5568   1.5604   1.5760   1.5916   1.6052
  1.6248   1.6596   1.6719   1.6989   1.7063   1.7297   1.7345   1.7565
  1.7822   1.7927   1.8203   1.8381   1.8447   1.8585   1.8682   1.8879
  1.8965   1.9025   1.9193   1.9444   1.9524   1.9604   1.9676   1.9692
  1.9863   1.9970   1.9996   2.0090   2.0283   2.0399   2.0611   2.0708
  2.0781   2.1014   2.1244   2.1427   2.1735   2.1871   2.2083   2.2131
  2.2165   2.2502   2.2706   2.3065   2.3163   2.3289   2.3637   2.3832
  2.3900   2.4126   2.4333   2.4536   2.4629   2.4789   2.4952   2.5261
  2.5422   2.5561   2.5742   2.5950   2.6256   2.6326   2.6483   2.6642
  2.6756   2.6811   2.7394   2.7619   2.7683   2.7771   2.7878   2.8084
  2.8194   2.8247   2.8279   2.8479   2.8696   2.8829   2.8917   2.8964
  2.9173   2.9227   2.9431   2.9604   2.9770   2.9810   2.9907   3.0226
  3.0302   3.0362   3.0642   3.0738   3.0839   3.0919   3.1324   3.1487
  3.1649   3.1681   3.1877   3.2032   3.2229   3.2238   3.2523   3.2546
  3.2660   3.2871   3.3022   3.3223   3.3343   3.3478   3.3723   3.3757
  3.3971   3.3993   3.4182   3.4287   3.4458   3.4500   3.4547   3.4681
  3.4767   3.4806   3.5005   3.5147   3.5261   3.5278   3.5450   3.5656
  3.5686   3.5761   3.5934   3.6134   3.6273   3.6378   3.6605   3.6705
  3.6825   3.7073   3.7124   3.7187   3.7277   3.7510   3.7696   3.7857
  3.7878   3.8062   3.8511   3.8756   3.8926   3.9220   3.9542   3.9941
  4.0287   4.0498   4.0551   4.1134   4.1404   4.1557   4.1913   4.2224
  4.2274   4.2583   4.2731   4.2802   4.2970   4.3054   4.3561   4.3578
  4.3737   4.4103   4.4231   4.4281   4.4583   4.4724   4.5203   4.5546
  4.5905   4.6000   4.6207   4.6545   4.7532   4.7965   4.8022   4.8160
  4.9183   4.9270   4.9533   4.9747   4.9877   4.9950   5.0548   5.0655
  5.1143   5.1374   5.1492   5.1985   5.2078   5.2787   5.3779   5.4067
  5.4492   5.5077   5.5378   5.5882   5.6503   5.7094   5.8020   5.8264
  5.9453   5.9787   6.2683   6.3296  22.6544  22.7476  22.9297  22.9491
 22.9630  23.1881  23.2340  23.4240  23.7855  32.8305
 --------------------------------------------------------------

          Ground-State Mulliken Net Atomic Charges

     Atom                 Charge (a.u.)
  ----------------------------------------
      1 C                    -0.941696
      2 C                     0.734381
      3 C                    -0.953884
      4 C                     0.785512
      5 C                    -0.301042
      6 C                    -0.450626
      7 C                    -0.716755
      8 C                    -0.692864
      9 C                    -0.491528
     10 N                     0.118715
     11 H                     0.269520
     12 H                     0.237397
     13 H                     0.316726
     14 H                     0.223441
     15 H                     0.369338
     16 H                     0.403446
     17 H                     0.412679
     18 H                     0.399706
     19 H                     0.277533
  ----------------------------------------
  Sum of atomic charges =     0.000000

 -----------------------------------------------------------------
                    Cartesian Multipole Moments
 -----------------------------------------------------------------
    Charge (ESU x 10^10)
                 0.0000
    Dipole Moment (Debye)
         X       1.2326      Y      -0.1572      Z       2.7485
       Tot       3.0163
    Quadrupole Moments (Debye-Ang)
        XX     -57.3758     XY       4.2893     YY     -53.8455
        XZ       7.9480     YZ       0.3371     ZZ     -58.5842
    Octopole Moments (Debye-Ang^2)
       XXX    -153.4599    XXY       3.3988    XYY     -40.5122
       YYY      -9.7011    XXZ     114.9500    XYZ      -3.0535
       YYZ      88.7066    XZZ     -64.8003    YZZ      -2.6559
       ZZZ     280.1126
    Hexadecapole Moments (Debye-Ang^3)
      XXXX    -514.7617   XXXY     -86.1769   XXYY    -235.4117
      XYYY     -81.8891   YYYY    -944.8707   XXXZ     208.8489
      XXYZ      69.8866   XYYZ      48.6643   YYYZ     159.3044
      XXZZ    -374.4449   XYZZ     -30.6194   YYZZ    -389.3047
      XZZZ     236.2982   YZZZ     163.2904   ZZZZ   -1504.6067
 -----------------------------------------------------------------
Archival summary:
1\1\compute-0-6.local\SP\ProcedureUnspecified\BasisUnspecified\199\meili\WedSep2902:53:572021WedSep2902:53:572021\0\\#,ProcedureUnspecified,BasisUnspecified,\\0,1\C\C,1,1.41009\H,2,1.08084,1,120.282\C,2,1.39143,1,119.155,3,179.018,0\H,4,1.08281,2,119.347,1,-179.579,0\C,4,1.39167,2,121.186,1,1.35622,0\H,6,1.08324,4,119.533,2,179.113,0\C,6,1.39461,4,120.921,2,-1.10027,0\H,8,1.07928,6,120.812,4,179.27,0\C,8,1.38855,6,118.153,4,1.4089,0\N,10,1.37108,8,130.488,6,-179.427,0\H,11,1.01725,10,125.84,8,1.79827,0\C,11,1.37684,10,109.171,8,178.409,0\H,13,1.08359,11,124.211,10,-178.959,0\C,13,1.38255,11,110.039,10,0.0365236,0\C,15,1.52119,13,127.97,11,179.658,0\H,16,1.08956,15,107.062,13,-171.765,0\H,16,1.08977,15,109.061,13,72.3624,0\H,16,1.1,15,113.936,13,-52.1288,0\\\@

 Total job time:  28144.31s(wall), 188325.02s(cpu) 
 Wed Sep 29 02:53:57 2021

        *************************************************************
        *                                                           *
        *  Thank you very much for using Q-Chem.  Have a nice day.  *
        *                                                           *
        *************************************************************


Done Job For Fragment 0
calling putenv with: QCSCRATCH=/home/meili/scratch 
calling putenv with: QCTHREADS=8 
Creating input file /home/meili/scratch/qchem30163/Frg2.input
using default PutDataFrgm: nothing
calling putenv with: QCSCRATCH=/home/meili/scratch/qchem30163/ 
Spawning Job For Fragment 1
                  Welcome to Q-Chem
     A Quantum Leap Into The Future Of Chemistry


 Q-Chem 5.2 (devel), Q-Chem, Inc., Pleasanton, CA (2019)

 Yihan Shao,  Zhengting Gan,  E. Epifanovsky,  A. T. B. Gilbert,  M. Wormit,  
 J. Kussmann,  A. W. Lange,  A. Behn,  Jia Deng,  Xintian Feng,  D. Ghosh,  
 M. Goldey,  P. R. Horn,  L. D. Jacobson,  I. Kaliman,  T. Kus,  A. Landau,  
 Jie Liu,  E. I. Proynov,  R. M. Richard,  R. P. Steele,  E. J. Sundstrom,  
 H. L. Woodcock III,  P. M. Zimmerman,  D. Zuev,  B. Albrecht,  E. Alguire,  
 S. A. Baeppler,  D. Barton,  Z. Benda,  Y. A. Bernard,  E. J. Berquist,  
 K. B. Bravaya,  H. Burton,  D. Casanova,  Chun-Min Chang,  Yunqing Chen,  
 A. Chien,  K. D. Closser,  M. P. Coons,  S. Coriani,  S. Dasgupta,  
 A. L. Dempwolff,  M. Diedenhofen,  Hainam Do,  R. G. Edgar,  Po-Tung Fang,  
 S. Faraji,  S. Fatehi,  Qingguo Feng,  K. D. Fenk,  J. Fosso-Tande,  
 J. Gayvert,  Qinghui Ge,  A. Ghysels,  G. Gidofalvi,  J. Gomes,  
 J. Gonthier,  A. Gunina,  D. Hait,  M. W. D. Hanson-Heine,  
 P. H. P. Harbach,  A. W. Hauser,  M. F. Herbst,  J. E. Herr,  
 E. G. Hohenstein,  Z. C. Holden,  Kerwin Hui,  B. C. Huynh,  T.-C. Jagau,  
 Hyunjun Ji,  B. Kaduk,  K. Khistyaev,  Jaehoon Kim,  P. Klunzinger,  K. Koh,  
 D. Kosenkov,  L. Koulias,  T. Kowalczyk,  C. M. Krauter,  A. Kunitsa,  
 Ka Un Lao,  A. Laurent,  K. V. Lawler,  Joonho Lee,  D. Lefrancois,  
 S. Lehtola,  D. S. Levine,  Yi-Pei Li,  You-Sheng Lin,  Fenglai Liu,  
 E. Livshits,  A. Luenser,  P. Manohar,  E. Mansoor,  S. F. Manzer,  
 Shan-Ping Mao,  Yuezhi Mao,  N. Mardirossian,  A. V. Marenich,  
 T. Markovich,  L. A. Martinez-Martinez,  S. A. Maurer,  N. J. Mayhall,  
 S. C. McKenzie,  J.-M. Mewes,  P. Morgante,  A. F. Morrison,  
 J. W. Mullinax,  K. Nanda,  T. S. Nguyen-Beck,  R. Olivares-Amaya,  
 J. A. Parkhill,  Zheng Pei,  T. M. Perrine,  F. Plasser,  P. Pokhilko,  
 S. Prager,  A. Prociuk,  E. Ramos,  D. R. Rehn,  F. Rob,  M. Scheurer,  
 M. Schneider,  N. Sergueev,  S. M. Sharada,  S. Sharma,  D. W. Small,  
 T. Stauch,  T. Stein,  Yu-Chuan Su,  A. J. W. Thom,  A. Tkatchenko,  
 T. Tsuchimochi,  N. M. Tubman,  L. Vogt,  M. L. Vidal,  O. Vydrov,  
 M. A. Watson,  J. Wenzel,  M. de Wergifosse,  T. A. Wesolowski,  A. White,  
 J. Witte,  A. Yamada,  Jun Yang,  K. Yao,  S. Yeganeh,  S. R. Yost,  
 Zhi-Qiang You,  A. Zech,  Igor Ying Zhang,  Xing Zhang,  Yan Zhao,  
 Ying Zhu,  B. R. Brooks,  G. K. L. Chan,  C. J. Cramer,  M. S. Gordon,  
 W. J. Hehre,  A. Klamt,  M. W. Schmidt,  C. D. Sherrill,  D. G. Truhlar,  
 A. Aspuru-Guzik,  R. Baer,  A. T. Bell,  N. A. Besley,  Jeng-Da Chai,  
 A. E. DePrince, III,  R. A. DiStasio Jr.,  A. Dreuw,  B. D. Dunietz,  
 T. R. Furlani,  Chao-Ping Hsu,  Yousung Jung,  Jing Kong,  D. S. Lambrecht,  
 WanZhen Liang,  C. Ochsenfeld,  V. A. Rassolov,  L. V. Slipchenko,  
 J. E. Subotnik,  T. Van Voorhis,  J. M. Herbert,  A. I. Krylov,  
 P. M. W. Gill,  M. Head-Gordon

 Contributors to earlier versions of Q-Chem not listed above: 
 R. D. Adamson,  B. Austin,  J. Baker,  G. J. O. Beran,  K. Brandhorst,  
 S. T. Brown,  E. F. C. Byrd,  A. K. Chakraborty,  C.-L. Cheng,  
 Siu Hung Chien,  D. M. Chipman,  D. L. Crittenden,  H. Dachsel,  
 R. J. Doerksen,  A. D. Dutoi,  L. Fusti-Molnar,  W. A. Goddard III,  
 A. Golubeva-Zadorozhnaya,  S. R. Gwaltney,  G. Hawkins,  A. Heyden,  
 S. Hirata,  G. Kedziora,  F. J. Keil,  C. Kelley,  Jihan Kim,  R. A. King,  
 R. Z. Khaliullin,  P. P. Korambath,  W. Kurlancheek,  A. M. Lee,  M. S. Lee,  
 S. V. Levchenko,  Ching Yeh Lin,  D. Liotard,  R. C. Lochan,  I. Lotan,  
 P. E. Maslen,  N. Nair,  D. P. O'Neill,  D. Neuhauser,  E. Neuscamman,  
 C. M. Oana,  R. Olson,  B. Peters,  R. Peverati,  P. A. Pieniazek,  
 Y. M. Rhee,  J. Ritchie,  M. A. Rohrdanz,  E. Rosta,  N. J. Russ,  
 H. F. Schaefer III,  N. E. Schultz,  N. Shenvi,  A. C. Simmonett,  A. Sodt,  
 D. Stuck,  K. S. Thanthiriwatte,  V. Vanovschi,  Tao Wang,  A. Warshel,  
 C. F. Williams,  Q. Wu,  X. Xu,  W. Zhang

 Please cite Q-Chem as follows:
 Y. Shao et al., Mol. Phys. 113, 184-215 (2015)
 DOI: 10.1080/00268976.2014.952696

 Q-Chem 5.2.1 for Intel X86 EM64T Linux

 Parts of Q-Chem use Armadillo 8.300.2 (Tropical Shenanigans).
 http://arma.sourceforge.net/

 Q-Chem begins on Wed Sep 29 02:53:57 2021  

compute-0-6.local
Host: 0

     Scratch files written to /home/meili/scratch/qchem30163//Frg2//
NAlpha2: 40
NElect   40
Mult     1
Symmetry turned off for PCM/SM12/SMD calculation

Checking the input file for inconsistencies... 	...done.

--------------------------------------------------------------
User input:
--------------------------------------------------------------
$molecule
-1 1
 6	-1.6411654890	-0.8730208169	1.9760672838
 6	-2.9781654890	-0.5430208169	1.2960672838
 6	-1.2861654890	-0.0530208169	3.2410672838
 8	-1.9481654890	0.9799791831	3.5090672838
 8	-0.3441654890	-0.4380208169	4.0030672838
 1	-1.5691654890	-1.9360208169	2.1260672838
 1	-0.8741654890	-0.6560208169	1.2430672838
 1	-3.7341654890	-0.3170208169	2.0480672838
 1	-3.3011654890	-1.4450208169	0.7740672838
 1	-2.9171754890	0.2634961831	0.5505372838
$end
$rem
EDA2		1
METHOD		WB97X-V
BASIS		DEF2-TZVPD
XC_GRID		000099000590
NL_GRID		1
UNRESTRICTED		FALSE
MAX_SCF_CYCLES		200
SYMMETRY		FALSE
SYM_IGNORE		TRUE
BASIS_LIN_DEP_THRESH		6
THRESH		14
SCF_CONVERGENCE		8
SCF_PRINT_FRGM		TRUE
SOLVENT_METHOD		SMD
!required keywords
JOBTYPE		SP
SYM_IGNORE		TRUE
SUBSYSTEM		TRUE
GEN_SCFMAN		TRUE
CHILD_INSTRUCTION		2
SYM_IGNORE		TRUE
SCFMI		0
RI_K 0		
PARI_K 0		
MIN_PARI_K 0		
IARI_K 0		
OCC_RI_K 0		
PURECART		1111
MEM_STATIC		2000
MEM_TOTAL		2000
GUI		0
CHILD_MP		1
CHILD_MP_ORDERS		232
FRZ_RELAX		0
FRZ_RELAX_METHOD		0
EDA_CLS_ELEC		1
EDA_CLS_DISP		0
FRZ_ORTHO_DECOMP		1
EDA2		FALSE
FRGM_METHOD		FALSE
CIS_N_ROOTS  0
LOCAL_CIS    0
CIS_RLX_DNS  1
$end
$smx
SOLVENT			WATER
$end
--------------------------------------------------------------
 ----------------------------------------------------------------
             Standard Nuclear Orientation (Angstroms)
    I     Atom           X                Y                Z
 ----------------------------------------------------------------
    1      C      -1.6411654890    -0.8730208169     1.9760672838
    2      C      -2.9781654890    -0.5430208169     1.2960672838
    3      C      -1.2861654890    -0.0530208169     3.2410672838
    4      O      -1.9481654890     0.9799791831     3.5090672838
    5      O      -0.3441654890    -0.4380208169     4.0030672838
    6      H      -1.5691654890    -1.9360208169     2.1260672838
    7      H      -0.8741654890    -0.6560208169     1.2430672838
    8      H      -3.7341654890    -0.3170208169     2.0480672838
    9      H      -3.3011654890    -1.4450208169     0.7740672838
   10      H      -2.9171754890     0.2634961831     0.5505372838
 ----------------------------------------------------------------
 Nuclear Repulsion Energy =         167.17979786 hartrees
 There are       20 alpha and       20 beta electrons
 Requested basis set is def2-TZVPD
 There are 92 shells and 236 basis functions

 Total QAlloc Memory Limit   2000 MB
 Mega-Array Size      1956 MB
 MEM_STATIC part      2000 MB

 Citation of the SMD model:
 Marenich, A.V.; Cramer, C.J.; Truhlar, D.G.
 J. Phys. Chem. B 2009, 113, 6378-6396.
 iSolventCode=           1
 Solvent: water                                                           

 vradii
            1           2           3           4           5           6
    1   1.8500000   1.8500000   1.8500000   1.5200000   1.5200000   1.2000000
            7           8           9          10
    1   1.2000000   1.2000000   1.2000000   1.2000000
 Changing PCM_VDW_RADII to SMD_RADIUS
 Discretize the solute cavity surface with Lebedev spheres
	Using 110 Lebedev grid points for each H atom
	Using 194 Lebedev grid points for other atoms
	Atomic van der Waals radii will be scaled by 1.20
 Remove points where switching function is < 1.0e-08
 Keep 839 surface tesserae and discard 681 interior tesserae
 Molecular Surface Area = 100.536 Angst**2

                       Distance Matrix (Angstroms)
             C (  1)   C (  2)   C (  3)   O (  4)   O (  5)   H (  6)
   C (  2)  1.535861
   C (  3)  1.548758  2.624117
   O (  4)  2.424448  2.877116  1.255849
   O (  5)  2.445437  3.778469  1.271312  2.197175
   H (  6)  1.075943  2.148169  2.206582  3.249521  2.695878
   H (  7)  1.082898  2.107699  2.127289  2.994116  2.818869  1.703266
   H (  8)  2.166788  1.090007  2.735991  2.646984  3.915197  2.704528
   H (  9)  2.127813  1.091062  3.476202  3.897622  4.492698  2.251402
   H ( 10)  2.225311  1.100002  3.162171  3.194562  4.362622  3.022797
             H (  7)   H (  8)   H (  9)
   H (  8)  2.990409
   H (  9)  2.594766  1.755833
   H ( 10)  2.344994  1.801962  1.765345

 A cutoff of  1.0D-14 yielded   4179 shell pairs
 There are     27947 function pairs (     35611 Cartesian)
 Smallest overlap matrix eigenvalue = 8.72E-06

 Scale SEOQF with 1.000000e-01/1.000000e-01/1.000000e-01

 Standard Electronic Orientation quadrupole field applied
 Nucleus-field energy     =    -0.0000000290 hartrees
 Guess from superposition of atomic densities
 Warning:  Energy on first SCF cycle will be non-variational
 SAD guess density has 39.000000 electrons

 -----------------------------------------------------------------------
  General SCF calculation program by
  Eric Jon Sundstrom, Paul Horn, Yuezhi Mao, Dmitri Zuev, Alec White,
  David Stuck, Shaama M.S., Shane Yost, Joonho Lee, David Small,
  Daniel Levine, Susi Lehtola, Hugh Burton, Evgeny Epifanovsky,
  Bang C. Huynh
 -----------------------------------------------------------------------
 Exchange:     0.1670 Hartree-Fock + 1.0000 wB97X-V + LR-HF
 Correlation:  1.0000 wB97X-V
 Using Euler-Maclaurin-Lebedev (99,590) quadrature formula
 Nonlocal Correlation:  VV10 with C = 0.0100 and b = 6.00 and scale = 1.00000
 Grid used for NLC:  SG-1 standard quadrature
Energy prior to optimization (guess energy) = -267.651006421860
Begin Timing: Total SCF Calculation
begin iterations for algorithm: DIIS         
the SCF tolerance is set to 1.00e-08
    1    -267.6510064219      5.92e-03     00000 
    2    -267.6957684080      7.49e-03     00000 
    3    -267.9707998678      6.29e-04     00000 
    4    -267.9757364174      2.61e-04     00000 
    5    -267.9770164820      1.06e-04     00000 
    6    -267.9771739380      4.01e-05     00000 
    7    -267.9771837748      2.37e-05     00000 
    8    -267.9771873612      4.56e-06     00000 
    9    -267.9771877406      1.42e-06     00000 
   10    -267.9771877730      3.96e-07     00000 
   11    -267.9771877766      7.11e-08     00000 
   12    -267.9771877767      1.61e-08     00000 
   13    -267.9771877767      5.96e-09     00000 Convergence criterion met
Timing for Total SCF: 213.00s (wall), 1237.48s (cpu)
(3)  G-ENP(liq) elect-nuc-pol free energy of system     -267.977187777 a.u.
(4)  G-CDS(liq) cavity-dispersion-solvent structure 
     free energy                                                4.0268 kcal/mol
(6)  G-S(liq) free energy of system                     -267.970770716 a.u.
E_pcm = -0.1331224943
E_cds = 0.0064170606
Multipole orders to be included
        2
        3
computing dipole RHS
computing quadrupole RHS
total number of RHS in solve_reponses: 8
RHS batch sizes
        8
Beginning Block Conjugate Gradient Iterations. Batch Number: 0
computing hessian-vector products by finite difference
              1      6.20e-01     00000 Conjugate Gradient Iteration
computing hessian-vector products by finite difference
              2      1.91e-01     00000 Conjugate Gradient Iteration
computing hessian-vector products by finite difference
              3      5.07e-02     00000 Conjugate Gradient Iteration
computing hessian-vector products by finite difference
              4      1.35e-02     00000 Conjugate Gradient Iteration
computing hessian-vector products by finite difference
              5      2.13e-03     00000 Conjugate Gradient Iteration
computing hessian-vector products by finite difference
              6      5.06e-04     00000 Conjugate Gradient Iteration
computing hessian-vector products by finite difference
              7      1.09e-04     00000 Conjugate Gradient Iteration
computing hessian-vector products by finite difference
              8      1.94e-05     00000 Conjugate Gradient Iteration
computing hessian-vector products by finite difference
              9      3.54e-06     00000 Conjugate Gradient Iteration
computing hessian-vector products by finite difference
             10      6.48e-07     00000 Conjugate Gradient Iteration
computing hessian-vector products by finite difference
             11      1.03e-07     00000 Conjugate Gradient Iteration
computing hessian-vector products by finite difference
             12      3.65e-08     00000 Conjugate Gradient Iteration
computing hessian-vector products by finite difference
             13      4.19e-09     00000 CG Converged
batch 0 complete
Done Calculating Responses
TESTING ORTHOGONALIZATION OF MULTIPOLE BASIS
Multipole virts passed orthogonality test
Virts Per Order
           60
          100

 --------------------------------------------------------------

                    Orbital Energies (a.u.)
 --------------------------------------------------------------

 Alpha MOs
 -- Occupied --
-19.1554 -19.1531 -10.3579 -10.2538 -10.2452  -1.1602  -1.0585  -0.8876
 -0.7524  -0.6189  -0.5620  -0.5608  -0.5294  -0.4978  -0.4781  -0.4511
 -0.4304  -0.3634  -0.3579  -0.3433
 -- Virtual --
  0.0679   0.0881   0.0964   0.1053   0.1220   0.1350   0.1392   0.1455
  0.1535   0.1620   0.1787   0.2023   0.2048   0.2126   0.2203   0.2462
  0.2525   0.2598   0.2696   0.2838   0.2979   0.3111   0.3122   0.3200
  0.3343   0.3390   0.3504   0.3602   0.3726   0.3872   0.3911   0.4027
  0.4061   0.4124   0.4145   0.4221   0.4376   0.4451   0.4562   0.4689
  0.4712   0.4837   0.4934   0.5037   0.5091   0.5136   0.5342   0.5343
  0.5378   0.5466   0.5700   0.5832   0.6003   0.6017   0.6128   0.6335
  0.6516   0.6556   0.6691   0.6888   0.6922   0.7066   0.7184   0.7396
  0.7586   0.7683   0.7814   0.7857   0.7992   0.8010   0.8100   0.8145
  0.8306   0.8363   0.8611   0.8808   0.8891   0.9543   0.9765   1.0102
  1.0219   1.0351   1.0542   1.0635   1.1095   1.1259   1.1486   1.1985
  1.2211   1.2610   1.2780   1.2956   1.3178   1.3724   1.3774   1.3931
  1.4323   1.4622   1.4841   1.5821   1.6699   1.7687   1.8269   1.8776
  1.8894   1.8987   1.9117   1.9322   1.9379   1.9582   1.9761   1.9903
  2.0075   2.0218   2.0614   2.1227   2.1402   2.1727   2.1881   2.2087
  2.2437   2.2943   2.3498   2.3717   2.4183   2.4491   2.4583   2.4867
  2.5310   2.5748   2.5907   2.6218   2.6729   2.6880   2.7978   2.8048
  2.8235   2.8463   2.8860   2.8977   2.9683   2.9981   3.0302   3.0965
  3.1171   3.1756   3.2108   3.2325   3.2550   3.2884   3.3046   3.3393
  3.3610   3.3824   3.4171   3.4341   3.4737   3.5163   3.5370   3.5390
  3.5637   3.5757   3.6046   3.6348   3.6688   3.6877   3.6975   3.7193
  3.8343   3.8637   3.9236   3.9834   4.0828   4.0953   4.1486   4.1727
  4.3190   4.3883   4.5156   4.6193   4.6501   4.7468   4.7968   4.8138
  4.8704   5.0086   5.1334   5.3009   5.3312   5.3366   5.3455   5.4472
  5.6656   5.7425   5.7631   5.9876   6.1626   6.2885   6.3303   6.5465
  6.6079   6.7069   6.7264   6.7425   6.9022   6.9580   7.0140   7.2247
  7.2885   7.3533   7.3712  22.6037  22.7566  23.6336  44.2293  44.3508
 --------------------------------------------------------------

          Ground-State Mulliken Net Atomic Charges

     Atom                 Charge (a.u.)
  ----------------------------------------
      1 C                    -0.110980
      2 C                    -0.835394
      3 C                     0.374341
      4 O                    -0.758855
      5 O                    -0.807830
      6 H                     0.269856
      7 H                     0.184272
      8 H                     0.216201
      9 H                     0.239196
     10 H                     0.229195
  ----------------------------------------
  Sum of atomic charges =    -1.000000

 -----------------------------------------------------------------
                    Cartesian Multipole Moments
 -----------------------------------------------------------------
    Charge (ESU x 10^10)
                -4.8032
    Dipole Moment (Debye)
         X       4.8839      Y      -2.5497      Z     -20.1947
       Tot      20.9328
    Quadrupole Moments (Debye-Ang)
        XX     -43.0647     XY       8.3470     YY     -36.6811
        XZ      18.9159     YZ      -7.6443     ZZ    -114.7025
    Octopole Moments (Debye-Ang^2)
       XXX     191.0361    XXY     -10.3094    XYY      61.2038
       YYY      15.1371    XXZ    -124.8480    XYZ      27.5312
       YYZ    -105.5893    XZZ     127.2183    YZZ     -16.0085
       ZZZ    -597.2365
    Hexadecapole Moments (Debye-Ang^3)
      XXXX    -840.0158   XXXY       1.7766   XXYY    -164.8609
      XYYY     -18.8317   YYYY    -143.3154   XXXZ     450.4798
      XXYZ     -50.5065   XYYZ     150.4522   YYYZ       4.8447
      XXZZ    -543.9143   XYZZ      81.9261   YYZZ    -375.2775
      XZZZ     647.4269   YZZZ     -50.1346   ZZZZ   -3053.7007
 -----------------------------------------------------------------
Archival summary:
1\1\compute-0-6.local\SP\ProcedureUnspecified\BasisUnspecified\235(1-,1)\meili\WedSep2904:00:172021WedSep2904:00:172021\0\\#,ProcedureUnspecified,BasisUnspecified,\\-1,1\C\O,1,1.25585\O,1,1.27131,2,120.782\C,1,1.54876,2,119.274,3,179.129,0\H,4,1.07594,1,113.196,2,-141.283,0\H,4,1.0829,1,106.524,2,104.82,0\C,4,1.53586,1,116.577,2,-13.0712,0\H,7,1.09001,4,110.052,1,-37.3666,0\H,7,1.09106,4,106.972,1,-153.535,0\H,7,1.1,4,114.164,1,87.86,0\\\@

 Total job time:  3979.56s(wall), 24589.25s(cpu) 
 Wed Sep 29 04:00:17 2021

        *************************************************************
        *                                                           *
        *  Thank you very much for using Q-Chem.  Have a nice day.  *
        *                                                           *
        *************************************************************


Done Job For Fragment 1
calling putenv with: QCSCRATCH=/home/meili/scratch 
calling putenv with: QCTHREADS=8 
Doing General SCFMI
 Exchange:     0.1670 Hartree-Fock + 1.0000 wB97X-V + LR-HF
 Correlation:  1.0000 wB97X-V
 Using Euler-Maclaurin-Lebedev (99,590) quadrature formula
 Nonlocal Correlation:  VV10 with C = 0.0100 and b = 6.00 and scale = 1.00000
 Grid used for NLC:  SG-1 standard quadrature
performing fock build before subrot guess so that all methods have access
Printing subrot_rss_gen Method Specification:
Occupied Subspace Method is 0
Virtual Subspace Method is 0
Energy of the unrelaxed supersystem initial determinant -671.010027653343
performing fock build before subrot guess so that all methods have access
Printing subrot_rss_gen Method Specification:
Occupied Subspace Method is 0
Virtual Subspace Method is 0
Energy of the unrelaxed supersystem initial determinant w/ solvent -671.154167746573
write pseudocanon occs and virts to disk
write pseudocanon orbital energies to disk
Tolerance of ortho_decomp_scf: 1.00e-06
GDM subspace size: 20
Beginning the Orthogonal Decomposition of the Initial Supersystem Wavefunction
    1    -670.9844318689      1.87e-02     ortho_decomp Preconditoned Steepest Descent
    2    -670.9863413297      5.44e-04     ortho_decomp BFGS Step
    3    -670.9863490792      4.25e-05     ortho_decomp BFGS Step
    4    -670.9863490945      1.98e-06     ortho_decomp BFGS Step
    5    -670.9863490945      8.12e-08     ortho_decomp 00000 Convergence criterion met
 Hartree-Fock
 Hartree-Fock
 Hartree-Fock
Doing General SCFMI
 Exchange:     0.1670 Hartree-Fock + 1.0000 wB97X-V + LR-HF
 Correlation:  1.0000 wB97X-V
 Using Euler-Maclaurin-Lebedev (99,590) quadrature formula
 Nonlocal Correlation:  VV10 with C = 0.0100 and b = 6.00 and scale = 1.00000
 Grid used for NLC:  SG-1 standard quadrature
performing fock build at end of subrot_r(subrot) constructor so that all methods have access
<S^2> of initial wavefunction before polarization iterations 0.0000000000
Beginning iterations for the determination of the polarized wavefunction
Energy prior to optimization (guess energy) = -671.154167746573
Begin Timing: Total SCF Calculation
begin iterations for algorithm: DIIS         
the SCF tolerance is set to 1.00e-08
    1    -671.1541677466      4.06e-05     00000 
    2    -671.1543729298      1.64e-05     00000 
    3    -671.1543953998      8.39e-06     00000 
    4    -671.1544019853      2.71e-06     00000 
    5    -671.1544026791      1.72e-06     00000 
    6    -671.1544029210      8.98e-07     00000 
    7    -671.1544029647      5.65e-07     00000 
    8    -671.1544029782      3.18e-07     00000 
    9    -671.1544029822      1.83e-07     00000 
   10    -671.1544029840      9.01e-08     00000 
   11    -671.1544029845      3.64e-08     00000 
   12    -671.1544029847      1.68e-08     00000 
   13    -671.1544029847      6.92e-09     00000 Convergence criterion met
write pseudocanon occs and virts to disk
write pseudocanon orbital energies to disk
Timing for Total SCF: 4974.00s (wall), 33153.05s (cpu)
<S^2> of polarized wavefunction after polarization iterations 0.0000000000
relaxing scfmi constraint to allow all rotations in the entire AO span
Doing General SCFMI
 Exchange:     0.1670 Hartree-Fock + 1.0000 wB97X-V + LR-HF
 Correlation:  1.0000 wB97X-V
 Using Euler-Maclaurin-Lebedev (99,590) quadrature formula
 Nonlocal Correlation:  VV10 with C = 0.0100 and b = 6.00 and scale = 1.00000
 Grid used for NLC:  SG-1 standard quadrature
performing fock build at end of subrot_r(subrot) constructor so that all methods have access
<S^2> of polarized wavefunction before ct-allowed iterations 0.0000000000
Beginning iterations for the determination of the CT-Allowed wavefunction
Energy prior to optimization (guess energy) = -671.154402984717
Begin Timing: Total SCF Calculation
begin iterations for algorithm: DIIS         
the SCF tolerance is set to 1.00e-08
    1    -671.1544029847      6.87e-05     00000 
    2    -671.1555772127      8.00e-06     00000 
    3    -671.1556227979      1.59e-06     00000 
    4    -671.1556248811      8.44e-07     00000 
    5    -671.1556250810      2.20e-07     00000 
    6    -671.1556251073      1.12e-07     00000 
    7    -671.1556251111      2.68e-08     00000 
    8    -671.1556251117      1.30e-08     00000 
    9    -671.1556251117      3.55e-09     00000 Convergence criterion met
write pseudocanon occs and virts to disk
write pseudocanon orbital energies to disk
Timing for Total SCF: 3545.00s (wall), 23797.75s (cpu)
<S^2> of ct_allowed wavefunction after ct-allowed iterations 0.0000000000

================================
        Results of EDA2         
================================
Basic EDA Quantities
--------------------
Fragment Energies (Ha):
1 -403.1696264351
2 -267.9707707162
--------------------
  E_prp (kJ/mol) = 0.0000
  E_sol (kJ/mol) = 12.7076
  E_frz (kJ/mol) = -17.7085
  E_pol (kJ/mol) = -0.6176
  E_vct (kJ/mol) = -3.2087
  E_int (kJ/mol) = -8.8272
--------------------


Initial Wavefunction Decomposition
--------------------
  --------------------
  Orthogonal Fragment Subspace Decomposition:
  --------------------
     E_elec   (ELEC)   (kJ/mol) = -35.9106
     E_pauli  (PAULI)  (kJ/mol) = 34.9276
     E_disp   (DISP)   (kJ/mol) = -16.7255
     --------------------
     Terms summing to E_pauli:
     --------------------
        E_kep_pauli       (kJ/mol) = 44.4603
        E_disp_free_pauli (kJ/mol) = -9.5327
  --------------------
  Classical Frozen Decomposition:
  --------------------
     E_cls_elec  (CLS ELEC)  (kJ/mol) = -22.7054
     E_cls_pauli (CLS PAULI) (kJ/mol) = 4.9969
    [E_mod_pauli (MOD PAULI) (kJ/mol) = 21.7224 (CLS PAULI - DISP from orthogonal decomposition) ]
  --------------------
--------------------

Simplified EDA Summary (kJ/mol)
--------------------
 PREPARATION     0.0000
 SOLVATION       12.7076
 FROZEN          -0.9830      (does not include dispersion)
[PAULI           34.9276]     (if this is negligible, then frozen describes electrostatics)
 DISPERSION      -16.7255
 POLARIZATION    -0.6176
 CHARGE TRANSFER -3.2087
 TOTAL           -8.8272     (PRP + SOL + FRZ + DISP + POL + CT)
--------------------

 --------------------------------------------------------------

                    Orbital Energies (a.u.)
 --------------------------------------------------------------

 Alpha MOs
 -- Occupied --
-19.1552 -19.1532 -14.4443 -10.3576 -10.2975 -10.2923 -10.2674 -10.2668
-10.2648 -10.2633 -10.2603 -10.2594 -10.2557 -10.2513 -10.2449  -1.1600
 -1.1091  -1.0584  -0.9751  -0.9229  -0.8867  -0.8645  -0.8538  -0.8101
 -0.7520  -0.7409  -0.7075  -0.6717  -0.6447  -0.6189  -0.5911  -0.5784
 -0.5647  -0.5607  -0.5464  -0.5441  -0.5333  -0.5292  -0.5098  -0.5071
 -0.4976  -0.4858  -0.4776  -0.4717  -0.4531  -0.4483  -0.4456  -0.4291
 -0.4281  -0.3746  -0.3634  -0.3574  -0.3432  -0.3146  -0.2843
 -- Virtual --
  0.0541   0.0600   0.0733   0.0788   0.0834   0.0917   0.0957   0.0992
  0.1069   0.1086   0.1124   0.1189   0.1207   0.1282   0.1335   0.1374
  0.1427   0.1459   0.1531   0.1587   0.1632   0.1680   0.1727   0.1802
  0.1832   0.1906   0.1927   0.1963   0.2055   0.2098   0.2125   0.2199
  0.2284   0.2307   0.2358   0.2419   0.2470   0.2489   0.2543   0.2573
  0.2632   0.2664   0.2709   0.2736   0.2783   0.2812   0.2826   0.2864
  0.2908   0.2946   0.2954   0.2988   0.3043   0.3087   0.3091   0.3139
  0.3150   0.3253   0.3264   0.3301   0.3315   0.3388   0.3393   0.3427
  0.3452   0.3477   0.3519   0.3554   0.3565   0.3588   0.3600   0.3697
  0.3738   0.3751   0.3790   0.3825   0.3849   0.3878   0.3928   0.3976
  0.4020   0.4035   0.4062   0.4094   0.4132   0.4203   0.4225   0.4228
  0.4263   0.4299   0.4315   0.4380   0.4388   0.4401   0.4449   0.4475
  0.4491   0.4547   0.4576   0.4620   0.4689   0.4711   0.4762   0.4841
  0.4876   0.4917   0.4920   0.4951   0.5003   0.5027   0.5038   0.5067
  0.5144   0.5173   0.5237   0.5256   0.5305   0.5312   0.5394   0.5426
  0.5443   0.5460   0.5507   0.5558   0.5592   0.5619   0.5658   0.5671
  0.5711   0.5787   0.5832   0.5873   0.5909   0.5931   0.6009   0.6036
  0.6042   0.6103   0.6127   0.6202   0.6270   0.6301   0.6376   0.6411
  0.6481   0.6525   0.6553   0.6600   0.6645   0.6706   0.6717   0.6757
  0.6787   0.6839   0.6918   0.6953   0.7019   0.7061   0.7098   0.7158
  0.7185   0.7198   0.7251   0.7315   0.7324   0.7372   0.7404   0.7459
  0.7494   0.7510   0.7602   0.7603   0.7635   0.7685   0.7726   0.7783
  0.7822   0.7833   0.7851   0.7921   0.7928   0.7976   0.8032   0.8052
  0.8101   0.8136   0.8152   0.8173   0.8223   0.8251   0.8262   0.8341
  0.8367   0.8417   0.8466   0.8494   0.8513   0.8556   0.8618   0.8650
  0.8686   0.8728   0.8786   0.8803   0.8854   0.8982   0.8996   0.9095
  0.9108   0.9150   0.9223   0.9241   0.9295   0.9331   0.9362   0.9506
  0.9658   0.9700   0.9738   0.9775   0.9920   0.9966   1.0144   1.0177
  1.0249   1.0283   1.0349   1.0385   1.0453   1.0503   1.0571   1.0690
  1.0717   1.0819   1.0837   1.0907   1.0964   1.1035   1.1147   1.1223
  1.1365   1.1379   1.1387   1.1548   1.1596   1.1711   1.1745   1.1964
  1.2097   1.2142   1.2184   1.2322   1.2428   1.2505   1.2558   1.2705
  1.2771   1.2983   1.3035   1.3268   1.3351   1.3412   1.3451   1.3520
  1.3597   1.3621   1.3800   1.3882   1.3988   1.4085   1.4179   1.4269
  1.4311   1.4432   1.4483   1.4607   1.4758   1.4803   1.4964   1.4991
  1.5150   1.5249   1.5351   1.5628   1.5732   1.5827   1.6001   1.6176
  1.6351   1.6382   1.6479   1.6610   1.6798   1.6953   1.6999   1.7156
  1.7306   1.7475   1.7835   1.7976   1.8078   1.8231   1.8307   1.8414
  1.8549   1.8632   1.8755   1.8832   1.8989   1.9052   1.9191   1.9235
  1.9251   1.9314   1.9400   1.9503   1.9583   1.9632   1.9760   1.9793
  1.9829   1.9908   1.9980   2.0012   2.0046   2.0089   2.0176   2.0240
  2.0328   2.0504   2.0564   2.0684   2.0748   2.0953   2.1004   2.1053
  2.1206   2.1277   2.1297   2.1460   2.1631   2.1709   2.1857   2.1919
  2.1935   2.2112   2.2189   2.2311   2.2407   2.2498   2.2650   2.2826
  2.2935   2.3027   2.3172   2.3256   2.3430   2.3701   2.3733   2.3904
  2.4037   2.4055   2.4140   2.4298   2.4370   2.4516   2.4647   2.4683
  2.4759   2.4834   2.4995   2.5066   2.5183   2.5352   2.5398   2.5683
  2.5780   2.5956   2.6039   2.6107   2.6229   2.6440   2.6459   2.6575
  2.6648   2.6786   2.6895   2.6956   2.7145   2.7195   2.7521   2.7671
  2.7811   2.7988   2.8037   2.8066   2.8198   2.8292   2.8410   2.8445
  2.8482   2.8551   2.8741   2.8867   2.8939   2.9022   2.9062   2.9212
  2.9292   2.9363   2.9430   2.9543   2.9656   2.9887   2.9890   2.9992
  3.0028   3.0121   3.0249   3.0396   3.0417   3.0452   3.0500   3.0676
  3.0792   3.0934   3.1016   3.1159   3.1224   3.1415   3.1503   3.1779
  3.1816   3.1999   3.2152   3.2198   3.2257   3.2323   3.2426   3.2466
  3.2665   3.2732   3.2812   3.2859   3.2979   3.3021   3.3268   3.3363
  3.3418   3.3455   3.3648   3.3671   3.3787   3.3839   3.3883   3.4089
  3.4206   3.4274   3.4416   3.4475   3.4506   3.4638   3.4682   3.4729
  3.4812   3.4855   3.4914   3.4947   3.5091   3.5129   3.5275   3.5294
  3.5446   3.5476   3.5514   3.5691   3.5763   3.5826   3.5873   3.5946
  3.5974   3.6088   3.6148   3.6234   3.6353   3.6465   3.6589   3.6635
  3.6730   3.6785   3.6938   3.6998   3.7074   3.7173   3.7237   3.7280
  3.7302   3.7362   3.7433   3.7641   3.7651   3.7884   3.7985   3.8132
  3.8322   3.8575   3.8679   3.8947   3.9004   3.9066   3.9362   3.9565
  3.9725   4.0103   4.0225   4.0461   4.0589   4.0622   4.1022   4.1240
  4.1285   4.1557   4.1706   4.1967   4.2115   4.2216   4.2288   4.2408
  4.2765   4.2859   4.2982   4.3051   4.3152   4.3520   4.3608   4.3729
  4.3880   4.4146   4.4273   4.4309   4.4374   4.4691   4.4855   4.5316
  4.5630   4.5646   4.6046   4.6104   4.6345   4.6444   4.6618   4.6752
  4.7632   4.7833   4.8049   4.8122   4.8264   4.8379   4.8580   4.8961
  4.9328   4.9374   4.9708   4.9898   5.0003   5.0043   5.0504   5.0659
  5.0897   5.1296   5.1475   5.1573   5.1814   5.2105   5.2213   5.2907
  5.3048   5.3378   5.3422   5.3515   5.3880   5.4226   5.4518   5.4738
  5.5179   5.5426   5.5981   5.6451   5.6731   5.7167   5.7454   5.7657
  5.8307   5.8349   5.9685   5.9829   5.9923   6.1700   6.2815   6.2935
  6.3337   6.3429   6.5562   6.6245   6.7156   6.7408   6.7649   6.9170
  6.9686   7.0273   7.2336   7.2984   7.3633   7.3826  22.6719  22.6931
 22.7713  22.8645  22.9452  22.9688  23.0003  23.1991  23.2765  23.4394
 23.6743  23.7932  32.8916  44.3071  44.4302
 --------------------------------------------------------------

          Ground-State Mulliken Net Atomic Charges

     Atom                 Charge (a.u.)
  ----------------------------------------
      1 C                    -1.021793
      2 C                     0.834419
      3 C                    -0.846043
      4 C                     0.507197
      5 C                    -0.074094
      6 C                    -0.516065
      7 C                    -0.743437
      8 C                    -0.639545
      9 C                    -0.500554
     10 N                     0.165083
     11 H                     0.270141
     12 H                     0.187589
     13 H                     0.305374
     14 H                     0.244424
     15 H                     0.380448
     16 H                     0.413291
     17 H                     0.411274
     18 H                     0.407608
     19 H                     0.283724
     20 C                     0.725231
     21 C                    -1.088294
     22 C                     0.383752
     23 O                    -0.783318
     24 O                    -0.829656
     25 H                     0.293066
     26 H                    -0.533780
     27 H                     0.245393
     28 H                     0.271467
     29 H                     0.247097
  ----------------------------------------
  Sum of atomic charges =    -1.000000

 -----------------------------------------------------------------
                    Cartesian Multipole Moments
 -----------------------------------------------------------------
    Charge (ESU x 10^10)
                -4.8032
    Dipole Moment (Debye)
         X       6.1820      Y      -2.7250      Z     -17.4559
       Tot      18.7176
    Quadrupole Moments (Debye-Ang)
        XX    -100.7062     XY      12.6092     YY     -90.6102
        XZ      27.0267     YZ      -7.3131     ZZ    -173.6299
    Octopole Moments (Debye-Ang^2)
       XXX      38.2171    XXY      -6.6683    XYY      20.8470
       YYY       5.5235    XXZ     -10.1714    XYZ      24.3833
       YYZ     -16.9257    XZZ      62.7091    YZZ     -18.6860
       ZZZ    -317.6756
    Hexadecapole Moments (Debye-Ang^3)
      XXXX   -1358.0941   XXXY     -84.5835   XXYY    -400.9915
      XYYY    -100.9940   YYYY   -1088.9650   XXXZ     660.6775
      XXYZ      19.4996   XYYZ     199.6456   YYYZ     164.3996
      XXZZ    -919.7737   XYZZ      51.0915   YYZZ    -765.6225
      XZZZ     885.0396   YZZZ     113.5449   ZZZZ   -4563.6811
 -----------------------------------------------------------------
Archival summary:
1\1\compute-0-6.local\SP\ProcedureUnspecified\BasisUnspecified\211214(1-,1)\meili\WedSep2907:59:492021WedSep2907:59:492021\0\\#,ProcedureUnspecified,BasisUnspecified,\\-1,1\N\H,1,1.01725\C,1,1.37108,2,125.84\C,1,1.37684,2,124.895,3,-176.096,0\H,4,1.08359,1,124.211,2,-2.30889,0\C,4,1.38255,1,110.039,2,176.686,0\C,3,1.38855,1,130.488,2,1.79827,0\H,7,1.07928,3,121,1,2.71569,0\C,7,1.39461,3,118.153,1,-179.427,0\H,9,1.08324,7,119.546,3,-178.804,0\C,9,1.39167,7,120.921,3,1.4089,0\H,11,1.08281,9,119.46,7,179.836,0\C,11,1.39143,9,121.186,7,-1.10027,0\H,13,1.08084,11,120.555,9,-179.629,0\C,13,1.41009,11,119.155,9,1.35622,0\C,6,1.52119,4,127.97,1,179.658,0\H,16,1.08956,6,107.062,4,-171.765,0\H,16,1.08977,6,109.061,4,72.3624,0\H,16,1.1,6,113.936,4,-52.1288,0\H,4,2.51381,1,100.4,2,88.1847,0\C,20,1.0829,4,151.92,1,-133.319,0\H,21,1.07594,20,104.179,4,-33.9427,0\C,21,1.53586,20,105.892,4,-149.299,0\H,23,1.09001,21,110.052,20,-155.602,0\H,23,1.09106,21,106.972,20,88.2289,0\H,23,1.1,21,114.164,20,-30.3758,0\C,21,1.54876,20,106.524,4,85.972,0\O,27,1.25585,21,119.274,20,104.82,0\O,27,1.27131,21,119.938,20,-76.044,0\\\@

 Total job time:  46503.19s(wall), 98878.63s(cpu) 
 Wed Sep 29 07:59:49 2021

        *************************************************************
        *                                                           *
        *  Thank you very much for using Q-Chem.  Have a nice day.  *
        *                                                           *
        *************************************************************


