
Running Job 1 of 1 SSI-051PHE-175PHE-1_PCM_TZVPD.in
qchem SSI-051PHE-175PHE-1_PCM_TZVPD.in_27296.0 /tmp/qchem27296/ 0
/global/common/cori/software/qchem/5.2/exe/qcprog.exe_s SSI-051PHE-175PHE-1_PCM_TZVPD.in_27296.0 /tmp/qchem27296/
                  Welcome to Q-Chem
     A Quantum Leap Into The Future Of Chemistry


 Q-Chem 5.2, Q-Chem, Inc., Pleasanton, CA (2019)

 License issued to: National Energy Research Scientific Computing Center

 Yihan Shao,  Zhengting Gan,  E. Epifanovsky,  A. T. B. Gilbert,  M. Wormit,  
 J. Kussmann,  A. W. Lange,  A. Behn,  Jia Deng,  Xintian Feng,  D. Ghosh,  
 M. Goldey,  P. R. Horn,  L. D. Jacobson,  I. Kaliman,  T. Kus,  A. Landau,  
 Jie Liu,  E. I. Proynov,  R. M. Richard,  R. P. Steele,  E. J. Sundstrom,  
 H. L. Woodcock III,  P. M. Zimmerman,  D. Zuev,  B. Albrecht,  E. Alguire,  
 S. A. Baeppler,  D. Barton,  Z. Benda,  Y. A. Bernard,  E. J. Berquist,  
 K. B. Bravaya,  H. Burton,  D. Casanova,  Chun-Min Chang,  Yunqing Chen,  
 A. Chien,  K. D. Closser,  M. P. Coons,  S. Coriani,  S. Dasgupta,  
 A. L. Dempwolff,  M. Diedenhofen,  Hainam Do,  R. G. Edgar,  Po-Tung Fang,  
 S. Faraji,  S. Fatehi,  Qingguo Feng,  K. D. Fenk,  J. Fosso-Tande,  
 J. Gayvert,  Qinghui Ge,  A. Ghysels,  G. Gidofalvi,  J. Gomes,  
 J. Gonthier,  A. Gunina,  D. Hait,  M. W. D. Hanson-Heine,  
 P. H. P. Harbach,  A. W. Hauser,  M. F. Herbst,  J. E. Herr,  
 E. G. Hohenstein,  Z. C. Holden,  Kerwin Hui,  B. C. Huynh,  T.-C. Jagau,  
 Hyunjun Ji,  B. Kaduk,  K. Khistyaev,  Jaehoon Kim,  P. Klunzinger,  K. Koh,  
 D. Kosenkov,  L. Koulias,  T. Kowalczyk,  C. M. Krauter,  A. Kunitsa,  
 Ka Un Lao,  A. Laurent,  K. V. Lawler,  Joonho Lee,  D. Lefrancois,  
 S. Lehtola,  D. S. Levine,  Yi-Pei Li,  You-Sheng Lin,  Fenglai Liu,  
 E. Livshits,  A. Luenser,  P. Manohar,  E. Mansoor,  S. F. Manzer,  
 Shan-Ping Mao,  Yuezhi Mao,  N. Mardirossian,  A. V. Marenich,  
 T. Markovich,  L. A. Martinez-Martinez,  S. A. Maurer,  N. J. Mayhall,  
 S. C. McKenzie,  J.-M. Mewes,  P. Morgante,  A. F. Morrison,  
 J. W. Mullinax,  K. Nanda,  T. S. Nguyen-Beck,  R. Olivares-Amaya,  
 J. A. Parkhill,  Zheng Pei,  T. M. Perrine,  F. Plasser,  P. Pokhilko,  
 S. Prager,  A. Prociuk,  E. Ramos,  D. R. Rehn,  F. Rob,  M. Scheurer,  
 M. Schneider,  N. Sergueev,  S. M. Sharada,  S. Sharma,  D. W. Small,  
 T. Stauch,  T. Stein,  Yu-Chuan Su,  A. J. W. Thom,  A. Tkatchenko,  
 T. Tsuchimochi,  N. M. Tubman,  L. Vogt,  M. L. Vidal,  O. Vydrov,  
 M. A. Watson,  J. Wenzel,  M. de Wergifosse,  T. A. Wesolowski,  A. White,  
 J. Witte,  A. Yamada,  Jun Yang,  K. Yao,  S. Yeganeh,  S. R. Yost,  
 Zhi-Qiang You,  A. Zech,  Igor Ying Zhang,  Xing Zhang,  Yan Zhao,  
 Ying Zhu,  B. R. Brooks,  G. K. L. Chan,  C. J. Cramer,  M. S. Gordon,  
 W. J. Hehre,  A. Klamt,  M. W. Schmidt,  C. D. Sherrill,  D. G. Truhlar,  
 A. Aspuru-Guzik,  R. Baer,  A. T. Bell,  N. A. Besley,  Jeng-Da Chai,  
 A. E. DePrince, III,  R. A. DiStasio Jr.,  A. Dreuw,  B. D. Dunietz,  
 T. R. Furlani,  Chao-Ping Hsu,  Yousung Jung,  Jing Kong,  D. S. Lambrecht,  
 WanZhen Liang,  C. Ochsenfeld,  V. A. Rassolov,  L. V. Slipchenko,  
 J. E. Subotnik,  T. Van Voorhis,  J. M. Herbert,  A. I. Krylov,  
 P. M. W. Gill,  M. Head-Gordon

 Contributors to earlier versions of Q-Chem not listed above: 
 R. D. Adamson,  B. Austin,  J. Baker,  G. J. O. Beran,  K. Brandhorst,  
 S. T. Brown,  E. F. C. Byrd,  A. K. Chakraborty,  C.-L. Cheng,  
 Siu Hung Chien,  D. M. Chipman,  D. L. Crittenden,  H. Dachsel,  
 R. J. Doerksen,  A. D. Dutoi,  L. Fusti-Molnar,  W. A. Goddard III,  
 A. Golubeva-Zadorozhnaya,  S. R. Gwaltney,  G. Hawkins,  A. Heyden,  
 S. Hirata,  G. Kedziora,  F. J. Keil,  C. Kelley,  Jihan Kim,  R. A. King,  
 R. Z. Khaliullin,  P. P. Korambath,  W. Kurlancheek,  A. M. Lee,  M. S. Lee,  
 S. V. Levchenko,  Ching Yeh Lin,  D. Liotard,  R. C. Lochan,  I. Lotan,  
 P. E. Maslen,  N. Nair,  D. P. O'Neill,  D. Neuhauser,  E. Neuscamman,  
 C. M. Oana,  R. Olson,  B. Peters,  R. Peverati,  P. A. Pieniazek,  
 Y. M. Rhee,  J. Ritchie,  M. A. Rohrdanz,  E. Rosta,  N. J. Russ,  
 H. F. Schaefer III,  N. E. Schultz,  N. Shenvi,  A. C. Simmonett,  A. Sodt,  
 D. Stuck,  K. S. Thanthiriwatte,  V. Vanovschi,  Tao Wang,  A. Warshel,  
 C. F. Williams,  Q. Wu,  X. Xu,  W. Zhang

 Please cite Q-Chem as follows:
 Y. Shao et al., Mol. Phys. 113, 184-215 (2015)
 DOI: 10.1080/00268976.2014.952696

 Q-Chem 5.2.0 for Intel X86 EM64T Linux

 Parts of Q-Chem use Armadillo 8.300.2 (Tropical Shenanigans).
 http://arma.sourceforge.net/

 Q-Chem begins on Sun Sep 26 08:22:09 2021  

Host: cori01
0

     Scratch files written to /tmp/qchem27296//
 May1019 |scratch|qcdevops|jenkins|workspace|build_RNUM -1
Processing $rem in /global/common/cori/software/qchem/5.2/config/preferences:
	 MEM_TOTAL  96000 
NAlpha2: 100
NElect   100
Mult     1
Symmetry turned off for PCM/SM12/SMD calculation

 Q-Chem warning in module libgen/rem_setup.C, line 2803:

 Neither GIA nor STOLL is specified by user. Use STOLL as the default


Checking the input file for inconsistencies... 	...done.

--------------------------------------------------------------
User input:
--------------------------------------------------------------
$comment
SSI-051PHE-175PHE-1.pdb
$end

$molecule
0 1
--
0 1
C    4.835207343345   -1.115604041673    0.966924466883
C    0.896207343345   -1.791604041673   -0.643075533117
C    1.821207343345   -1.022604041673   -1.356075533117
C    1.254207343345   -2.330604041673    0.593924466883
C    3.100207343345   -0.798604041673   -0.828075533117
C    2.529207343345   -2.102604041673    1.113924466883
C    3.460207343345   -1.340604041673    0.407924466883
H   -0.087792656655   -1.973604041673   -1.053075533117
H    1.548207343345   -0.599604041673   -2.313075533117
H    0.576207343345   -2.931604041673    1.170924466883
H    3.812207343345   -0.203604041673   -1.380075533117
H    2.784207343345   -2.502604041673    2.081924466883
H    4.812207343345   -1.226604041673    2.052924466883
H    5.119207343345   -0.088604041673    0.743924466883
H    5.605987343345   -1.774936041673    0.541270546883
--
0 1
C   -4.629792656655    0.116395958327   -0.017075533117
C   -2.133792656655    0.382395958327   -0.315075533117
C   -3.369792656655    0.950395958327   -0.005075533117
C   -0.985792656655    1.177395958327   -0.371075533117
C   -1.064792656655    2.550395958327   -0.114075533117
C   -3.437792656655    2.320395958327    0.258924466883
C   -2.296792656655    3.120395958327    0.201924466883
H   -2.063792656655   -0.674604041673   -0.526075533117
H   -0.030792656655    0.741395958327   -0.617075533117
H   -4.523792656655   -0.672604041673   -0.762075533117
H   -5.454792656655    0.754395958327   -0.339075533117
H   -0.176792656655    3.167395958327   -0.165075533117
H   -4.387792656655    2.770395958327    0.510924466883
H   -2.378792656655    4.184395958327    0.369924466883
H   -4.890782656655   -0.345363041673    0.946594966883
$end

$rem
JOBTYPE			EDA
EDA2			1
method			wB97X-V
BASIS			def2-TZVPD
XC_GRID			000099000590
NL_GRID			1
UNRESTRICTED		FALSE
MAX_SCF_CYCLES		200
SYMMETRY		FALSE
SYM_IGNORE		TRUE
MEM_STATIC		2000
BASIS_LIN_DEP_THRESH 	6
THRESH 			14
SCF_CONVERGENCE 	8
SCF_PRINT_FRGM 		TRUE
SOLVENT_METHOD          PCM
$end

$PCM
THEORY                  CPCM
METHOD                  SWIG
SOLVER                  INVERSION
RADII                   UFF
HPOINTS                 302
HEAVYPOINTS             302
PRINTLEVEL              0
$END

$SOLVENT
DIELECTRIC              78.390000 ! water
$END
--------------------------------------------------------------
 ----------------------------------------------------------------
             Standard Nuclear Orientation (Angstroms)
    I     Atom           X                Y                Z
 ----------------------------------------------------------------
    1      C       4.8352073433    -1.1156040417     0.9669244669
    2      C       0.8962073433    -1.7916040417    -0.6430755331
    3      C       1.8212073433    -1.0226040417    -1.3560755331
    4      C       1.2542073433    -2.3306040417     0.5939244669
    5      C       3.1002073433    -0.7986040417    -0.8280755331
    6      C       2.5292073433    -2.1026040417     1.1139244669
    7      C       3.4602073433    -1.3406040417     0.4079244669
    8      H      -0.0877926567    -1.9736040417    -1.0530755331
    9      H       1.5482073433    -0.5996040417    -2.3130755331
   10      H       0.5762073433    -2.9316040417     1.1709244669
   11      H       3.8122073433    -0.2036040417    -1.3800755331
   12      H       2.7842073433    -2.5026040417     2.0819244669
   13      H       4.8122073433    -1.2266040417     2.0529244669
   14      H       5.1192073433    -0.0886040417     0.7439244669
   15      H       5.6059873433    -1.7749360417     0.5412705469
   16      C      -4.6297926567     0.1163959583    -0.0170755331
   17      C      -2.1337926567     0.3823959583    -0.3150755331
   18      C      -3.3697926567     0.9503959583    -0.0050755331
   19      C      -0.9857926567     1.1773959583    -0.3710755331
   20      C      -1.0647926567     2.5503959583    -0.1140755331
   21      C      -3.4377926567     2.3203959583     0.2589244669
   22      C      -2.2967926567     3.1203959583     0.2019244669
   23      H      -2.0637926567    -0.6746040417    -0.5260755331
   24      H      -0.0307926567     0.7413959583    -0.6170755331
   25      H      -4.5237926567    -0.6726040417    -0.7620755331
   26      H      -5.4547926567     0.7543959583    -0.3390755331
   27      H      -0.1767926567     3.1673959583    -0.1650755331
   28      H      -4.3877926567     2.7703959583     0.5109244669
   29      H      -2.3787926567     4.1843959583     0.3699244669
   30      H      -4.8907826567    -0.3453630417     0.9465949669
 ----------------------------------------------------------------
 Nuclear Repulsion Energy =         759.37062929 hartrees
 There are       50 alpha and       50 beta electrons
 Requested basis set is def2-TZVPD
 There are 262 shells and 662 basis functions

 Total QAlloc Memory Limit  96000 MB
 Mega-Array Size      1956 MB
 MEM_STATIC part      2000 MB
 Discretize the solute cavity surface with Lebedev spheres
	Using 302 Lebedev grid points for each H atom
	Using 302 Lebedev grid points for other atoms
	Atomic van der Waals radii will be scaled by 1.20
 Remove points where switching function is < 1.0e-08
 Keep 3362 surface tesserae and discard 5698 interior tesserae
 Molecular Surface Area = 327.101 Angst**2
 A cutoff of  1.0D-14 yielded  28457 shell pairs
 There are    182303 function pairs (    229703 Cartesian)
 Smallest overlap matrix eigenvalue = 4.58E-07
 Linear dependence detected in AO basis
 Tighter screening thresholds may be required for diffuse basis sets
 Use S2THRESH > 14 and THRESH = 14 in case of SCF convergence issues
 Number of orthogonalized atomic orbitals = 658
 Maximum deviation from orthogonality = 2.366E-10

 Scale SEOQF with 1.000000e-02/1.000000e-01/1.000000e-01

 Standard Electronic Orientation quadrupole field applied
 Nucleus-field energy     =     0.0000000193 hartrees

 -----------------------------------------------------------------------
  General SCF calculation program by
  Eric Jon Sundstrom, Paul Horn, Yuezhi Mao, Dmitri Zuev, Alec White,
  David Stuck, Shaama M.S., Shane Yost, Joonho Lee, David Small,
  Daniel Levine, Susi Lehtola, Hugh Burton, Evgeny Epifanovsky
 -----------------------------------------------------------------------
================================================================
                 ALMO-EDA with the EDA2 driver                  
================================================================
 The second-generation ALMO-EDA (for DFT):                      
 P. R. Horn, Y. Mao and M. Head-Gordon, PCCP, 18, 23067 (2016)  
 Decomposition of the frozen energy:                            
 P. R. Horn, Y. Mao and M. Head-Gordon, JCP, 144, 114107 (2016) 
 FERF model for polarization:                                   
 P. R. Horn and M. Head-Gordon, JCP, 143, 114111 (2015)         
Using eda2 option set 1
Option set summary: Frozen orbital wavefunction, initial wavefunction decomposition, and nDQ polarization.
--------------------------------
Printing EDA Options
--------------------------------
eda_child_super_basis      0
fragmo_guess_mode          0
child_mp                   1
child_mp_orders            232
cls_elec                   1
cls_disp                   0
scfmi_mode                 1
scfmi_occs                 0
scfmi_virts                0
frz_relax                  0
frz_relax_method           0
dc_pen_start               0
dc_pen_conv                0
dc_pen_increment           0
dc_pen_steps               0
dc_pen_thresh_factor       0
dc_pen_pre_newton_thresh   0
frz_ortho_decomp           1
frz_ortho_decomp_conv      6
frgm_method                2
scfmi_freeze_ss            0
separate_rehyb             0
plot_diff_den              0
eda_nocv                   0
eda_vct_relax              1
disp_free_x                0
disp_free_c                0
eda_bsse                   0
eda_pct_a                  0
eda_covp                   0
--------------------------------
Attempting to make child job directory: /tmp/qchem27296//Frg1/
Attempting to make child job directory: /tmp/qchem27296//Frg2/
Creating input file /tmp/qchem27296/Frg1.input
using default PutDataFrgm: nothing
calling putenv with: QCSCRATCH=/tmp/qchem27296/ 
calling putenv with: QCLOCALSCR=/tmp/qchem27296/ 
Spawning Job For Fragment 0
                  Welcome to Q-Chem
     A Quantum Leap Into The Future Of Chemistry


 Q-Chem 5.2, Q-Chem, Inc., Pleasanton, CA (2019)

 License issued to: National Energy Research Scientific Computing Center

 Yihan Shao,  Zhengting Gan,  E. Epifanovsky,  A. T. B. Gilbert,  M. Wormit,  
 J. Kussmann,  A. W. Lange,  A. Behn,  Jia Deng,  Xintian Feng,  D. Ghosh,  
 M. Goldey,  P. R. Horn,  L. D. Jacobson,  I. Kaliman,  T. Kus,  A. Landau,  
 Jie Liu,  E. I. Proynov,  R. M. Richard,  R. P. Steele,  E. J. Sundstrom,  
 H. L. Woodcock III,  P. M. Zimmerman,  D. Zuev,  B. Albrecht,  E. Alguire,  
 S. A. Baeppler,  D. Barton,  Z. Benda,  Y. A. Bernard,  E. J. Berquist,  
 K. B. Bravaya,  H. Burton,  D. Casanova,  Chun-Min Chang,  Yunqing Chen,  
 A. Chien,  K. D. Closser,  M. P. Coons,  S. Coriani,  S. Dasgupta,  
 A. L. Dempwolff,  M. Diedenhofen,  Hainam Do,  R. G. Edgar,  Po-Tung Fang,  
 S. Faraji,  S. Fatehi,  Qingguo Feng,  K. D. Fenk,  J. Fosso-Tande,  
 J. Gayvert,  Qinghui Ge,  A. Ghysels,  G. Gidofalvi,  J. Gomes,  
 J. Gonthier,  A. Gunina,  D. Hait,  M. W. D. Hanson-Heine,  
 P. H. P. Harbach,  A. W. Hauser,  M. F. Herbst,  J. E. Herr,  
 E. G. Hohenstein,  Z. C. Holden,  Kerwin Hui,  B. C. Huynh,  T.-C. Jagau,  
 Hyunjun Ji,  B. Kaduk,  K. Khistyaev,  Jaehoon Kim,  P. Klunzinger,  K. Koh,  
 D. Kosenkov,  L. Koulias,  T. Kowalczyk,  C. M. Krauter,  A. Kunitsa,  
 Ka Un Lao,  A. Laurent,  K. V. Lawler,  Joonho Lee,  D. Lefrancois,  
 S. Lehtola,  D. S. Levine,  Yi-Pei Li,  You-Sheng Lin,  Fenglai Liu,  
 E. Livshits,  A. Luenser,  P. Manohar,  E. Mansoor,  S. F. Manzer,  
 Shan-Ping Mao,  Yuezhi Mao,  N. Mardirossian,  A. V. Marenich,  
 T. Markovich,  L. A. Martinez-Martinez,  S. A. Maurer,  N. J. Mayhall,  
 S. C. McKenzie,  J.-M. Mewes,  P. Morgante,  A. F. Morrison,  
 J. W. Mullinax,  K. Nanda,  T. S. Nguyen-Beck,  R. Olivares-Amaya,  
 J. A. Parkhill,  Zheng Pei,  T. M. Perrine,  F. Plasser,  P. Pokhilko,  
 S. Prager,  A. Prociuk,  E. Ramos,  D. R. Rehn,  F. Rob,  M. Scheurer,  
 M. Schneider,  N. Sergueev,  S. M. Sharada,  S. Sharma,  D. W. Small,  
 T. Stauch,  T. Stein,  Yu-Chuan Su,  A. J. W. Thom,  A. Tkatchenko,  
 T. Tsuchimochi,  N. M. Tubman,  L. Vogt,  M. L. Vidal,  O. Vydrov,  
 M. A. Watson,  J. Wenzel,  M. de Wergifosse,  T. A. Wesolowski,  A. White,  
 J. Witte,  A. Yamada,  Jun Yang,  K. Yao,  S. Yeganeh,  S. R. Yost,  
 Zhi-Qiang You,  A. Zech,  Igor Ying Zhang,  Xing Zhang,  Yan Zhao,  
 Ying Zhu,  B. R. Brooks,  G. K. L. Chan,  C. J. Cramer,  M. S. Gordon,  
 W. J. Hehre,  A. Klamt,  M. W. Schmidt,  C. D. Sherrill,  D. G. Truhlar,  
 A. Aspuru-Guzik,  R. Baer,  A. T. Bell,  N. A. Besley,  Jeng-Da Chai,  
 A. E. DePrince, III,  R. A. DiStasio Jr.,  A. Dreuw,  B. D. Dunietz,  
 T. R. Furlani,  Chao-Ping Hsu,  Yousung Jung,  Jing Kong,  D. S. Lambrecht,  
 WanZhen Liang,  C. Ochsenfeld,  V. A. Rassolov,  L. V. Slipchenko,  
 J. E. Subotnik,  T. Van Voorhis,  J. M. Herbert,  A. I. Krylov,  
 P. M. W. Gill,  M. Head-Gordon

 Contributors to earlier versions of Q-Chem not listed above: 
 R. D. Adamson,  B. Austin,  J. Baker,  G. J. O. Beran,  K. Brandhorst,  
 S. T. Brown,  E. F. C. Byrd,  A. K. Chakraborty,  C.-L. Cheng,  
 Siu Hung Chien,  D. M. Chipman,  D. L. Crittenden,  H. Dachsel,  
 R. J. Doerksen,  A. D. Dutoi,  L. Fusti-Molnar,  W. A. Goddard III,  
 A. Golubeva-Zadorozhnaya,  S. R. Gwaltney,  G. Hawkins,  A. Heyden,  
 S. Hirata,  G. Kedziora,  F. J. Keil,  C. Kelley,  Jihan Kim,  R. A. King,  
 R. Z. Khaliullin,  P. P. Korambath,  W. Kurlancheek,  A. M. Lee,  M. S. Lee,  
 S. V. Levchenko,  Ching Yeh Lin,  D. Liotard,  R. C. Lochan,  I. Lotan,  
 P. E. Maslen,  N. Nair,  D. P. O'Neill,  D. Neuhauser,  E. Neuscamman,  
 C. M. Oana,  R. Olson,  B. Peters,  R. Peverati,  P. A. Pieniazek,  
 Y. M. Rhee,  J. Ritchie,  M. A. Rohrdanz,  E. Rosta,  N. J. Russ,  
 H. F. Schaefer III,  N. E. Schultz,  N. Shenvi,  A. C. Simmonett,  A. Sodt,  
 D. Stuck,  K. S. Thanthiriwatte,  V. Vanovschi,  Tao Wang,  A. Warshel,  
 C. F. Williams,  Q. Wu,  X. Xu,  W. Zhang

 Please cite Q-Chem as follows:
 Y. Shao et al., Mol. Phys. 113, 184-215 (2015)
 DOI: 10.1080/00268976.2014.952696

 Q-Chem 5.2.0 for Intel X86 EM64T Linux

 Parts of Q-Chem use Armadillo 8.300.2 (Tropical Shenanigans).
 http://arma.sourceforge.net/

 Q-Chem begins on Sun Sep 26 08:22:16 2021  

Host: cori01
0

     Scratch files written to /tmp/qchem27296//Frg1//
 May1019 |scratch|qcdevops|jenkins|workspace|build_RNUM -1
Processing $rem in /global/common/cori/software/qchem/5.2/config/preferences:
	 MEM_TOTAL  96000 
NAlpha2: 50
NElect   50
Mult     1
Symmetry turned off for PCM/SM12/SMD calculation

Checking the input file for inconsistencies... 	...done.

--------------------------------------------------------------
User input:
--------------------------------------------------------------
$molecule
0 1
 6	4.8352073433	-1.1156040417	0.9669244669
 6	0.8962073433	-1.7916040417	-0.6430755331
 6	1.8212073433	-1.0226040417	-1.3560755331
 6	1.2542073433	-2.3306040417	0.5939244669
 6	3.1002073433	-0.7986040417	-0.8280755331
 6	2.5292073433	-2.1026040417	1.1139244669
 6	3.4602073433	-1.3406040417	0.4079244669
 1	-0.0877926567	-1.9736040417	-1.0530755331
 1	1.5482073433	-0.5996040417	-2.3130755331
 1	0.5762073433	-2.9316040417	1.1709244669
 1	3.8122073433	-0.2036040417	-1.3800755331
 1	2.7842073433	-2.5026040417	2.0819244669
 1	4.8122073433	-1.2266040417	2.0529244669
 1	5.1192073433	-0.0886040417	0.7439244669
 1	5.6059873433	-1.7749360417	0.5412705469
$end
$rem
EDA2		1
METHOD		WB97X-V
BASIS		DEF2-TZVPD
XC_GRID		000099000590
NL_GRID		1
UNRESTRICTED		FALSE
MAX_SCF_CYCLES		200
SYMMETRY		FALSE
SYM_IGNORE		TRUE
BASIS_LIN_DEP_THRESH		6
THRESH		14
SCF_CONVERGENCE		8
SCF_PRINT_FRGM		TRUE
SOLVENT_METHOD		PCM
!required keywords
JOBTYPE		SP
SYM_IGNORE		TRUE
SUBSYSTEM		TRUE
GEN_SCFMAN		TRUE
CHILD_INSTRUCTION		2
SYM_IGNORE		TRUE
SCFMI		0
RI_K 0		
PARI_K 0		
MIN_PARI_K 0		
IARI_K 0		
OCC_RI_K 0		
PURECART		1111
MEM_STATIC		2000
MEM_TOTAL		96000
GUI		0
CHILD_MP		1
CHILD_MP_ORDERS		232
FRZ_RELAX		0
FRZ_RELAX_METHOD		0
EDA_CLS_ELEC		1
EDA_CLS_DISP		0
FRZ_ORTHO_DECOMP		1
EDA2		FALSE
FRGM_METHOD		FALSE
CIS_N_ROOTS  0
LOCAL_CIS    0
CIS_RLX_DNS  1
$end
$pcm
THEORY                  CPCM
METHOD                  SWIG
SOLVER                  INVERSION
RADII                   UFF
HPOINTS                 302
HEAVYPOINTS             302
PRINTLEVEL              0
$end
$solvent
DIELECTRIC              78.390000 ! water
$end
--------------------------------------------------------------
 ----------------------------------------------------------------
             Standard Nuclear Orientation (Angstroms)
    I     Atom           X                Y                Z
 ----------------------------------------------------------------
    1      C       4.8352073433    -1.1156040417     0.9669244669
    2      C       0.8962073433    -1.7916040417    -0.6430755331
    3      C       1.8212073433    -1.0226040417    -1.3560755331
    4      C       1.2542073433    -2.3306040417     0.5939244669
    5      C       3.1002073433    -0.7986040417    -0.8280755331
    6      C       2.5292073433    -2.1026040417     1.1139244669
    7      C       3.4602073433    -1.3406040417     0.4079244669
    8      H      -0.0877926567    -1.9736040417    -1.0530755331
    9      H       1.5482073433    -0.5996040417    -2.3130755331
   10      H       0.5762073433    -2.9316040417     1.1709244669
   11      H       3.8122073433    -0.2036040417    -1.3800755331
   12      H       2.7842073433    -2.5026040417     2.0819244669
   13      H       4.8122073433    -1.2266040417     2.0529244669
   14      H       5.1192073433    -0.0886040417     0.7439244669
   15      H       5.6059873433    -1.7749360417     0.5412705469
 ----------------------------------------------------------------
 Nuclear Repulsion Energy =         269.37135935 hartrees
 There are       25 alpha and       25 beta electrons
 Requested basis set is def2-TZVPD
 There are 131 shells and 331 basis functions

 Total QAlloc Memory Limit  96000 MB
 Mega-Array Size      1956 MB
 MEM_STATIC part      2000 MB
 Discretize the solute cavity surface with Lebedev spheres
	Using 302 Lebedev grid points for each H atom
	Using 302 Lebedev grid points for other atoms
	Atomic van der Waals radii will be scaled by 1.20
 Remove points where switching function is < 1.0e-08
 Keep 1782 surface tesserae and discard 2748 interior tesserae
 Molecular Surface Area = 178.446 Angst**2

                       Distance Matrix (Angstroms)
             C (  1)   C (  2)   C (  3)   C (  4)   C (  5)   C (  6)
   C (  2)  4.308689
   C (  3)  3.806465  1.398340
   C (  4)  3.799857  1.396014  2.415544
   C (  5)  2.516493  2.424436  1.401714  2.788696
   C (  6)  2.512651  2.418772  2.787214  1.395711  2.407866
   C (  7)  1.501243  2.807507  2.428815  2.425105  1.396803  1.394934
   H (  8)  5.390036  1.081425  2.154180  2.154303  3.405084  3.400179
   H (  9)  4.672154  2.152874  1.081345  3.396093  2.157204  3.868553
   H ( 10)  4.634496  2.166240  3.402945  1.074157  3.862158  2.122428
   H ( 11)  2.717845  3.401172  2.153002  3.868355  1.079663  3.387082
   H ( 12)  2.715436  3.390529  3.864921  2.141174  3.386971  1.077984
   H ( 13)  1.091900  4.787765  4.539711  4.000858  3.378504  2.619387
   H ( 14)  1.088629  4.760011  4.019846  4.470715  2.655493  3.301696
   H ( 15)  1.100001  4.856437  4.300056  4.387428  3.017825  3.146724
             C (  7)   H (  8)   H (  9)   H ( 10)   H ( 11)   H ( 12)
   H (  8)  3.888896
   H (  9)  3.407149  2.480317
   H ( 10)  3.380962  2.510943  4.303634
   H ( 11)  2.147933  4.295326  2.480524  4.941789
   H ( 12)  2.146974  4.284443  4.946224  2.426773  4.281078
   H ( 13)  2.132352  5.849380  5.487147  4.650661  3.719142  2.396206
   H ( 14)  2.105393  5.821966  4.728468  5.376228  2.496568  3.615227
   H ( 15)  2.193353  5.916125  5.098458  5.199330  3.062401  3.296295
             H ( 13)   H ( 14)
   H ( 14)  1.761469
   H ( 15)  1.793280  1.766844
 
 A cutoff of  1.0D-14 yielded   8359 shell pairs
 There are     54495 function pairs (     69446 Cartesian)
 Smallest overlap matrix eigenvalue = 5.85E-07
 Linear dependence detected in AO basis
 Tighter screening thresholds may be required for diffuse basis sets
 Use S2THRESH > 14 and THRESH = 14 in case of SCF convergence issues
 Number of orthogonalized atomic orbitals = 330
 Maximum deviation from orthogonality = 1.675E-10

 Scale SEOQF with 1.000000e-02/1.000000e-01/1.000000e-01

 Standard Electronic Orientation quadrupole field applied
 Nucleus-field energy     =     0.0000000053 hartrees
 Guess from superposition of atomic densities
 Warning:  Energy on first SCF cycle will be non-variational
 SAD guess density has 49.913408 electrons

 -----------------------------------------------------------------------
  General SCF calculation program by
  Eric Jon Sundstrom, Paul Horn, Yuezhi Mao, Dmitri Zuev, Alec White,
  David Stuck, Shaama M.S., Shane Yost, Joonho Lee, David Small,
  Daniel Levine, Susi Lehtola, Hugh Burton, Evgeny Epifanovsky
 -----------------------------------------------------------------------
 Exchange:     0.1670 Hartree-Fock + 1.0000 wB97X-V + LR-HF
 Correlation:  1.0000 wB97X-V
 Using Euler-Maclaurin-Lebedev (99,590) quadrature formula
 Nonlocal Correlation:  VV10 with C = 0.0100 and b = 6.00 and scale = 1.00000
 Grid used for NLC:  SG-1 standard quadrature
Energy prior to optimization (guess energy) = -271.520698504880
Begin Timing: Total SCF Calculation
begin iterations for algorithm: DIIS         
the SCF tolerance is set to 1.00e-08
    1    -271.5206985049      1.94e-03     00000 
    2    -271.5594763791      1.24e-03     00000 
    3    -271.5808699443      1.39e-04     00000 
    4    -271.5812871350      5.05e-05     00000 
    5    -271.5813235249      1.82e-05     00000 
    6    -271.5813289571      4.95e-06     00000 
    7    -271.5813294031      2.04e-06     00000 
    8    -271.5813294778      3.17e-07     00000 
    9    -271.5813294808      7.34e-08     00000 
   10    -271.5813294810      4.32e-08     00000 
   11    -271.5813294810      9.60e-09     00000 Convergence criterion met
Timing for Total SCF: 1286.00s (wall), 2554.96s (cpu)

************** Final PCM Free Energy Summary **************
 G_electrostatic  =      -0.00254962 hartree =      -1.59991160 kcal/mol
 G_cavitation     =       0.00000000 hartree =       0.00000000 kcal/mol
 G_dispersion     =       0.00000000 hartree =       0.00000000 kcal/mol
 G_repulsion      =       0.00000000 hartree =       0.00000000 kcal/mol
 --------------------------------------------------
 Non-electrostatic Free Energy =       0.00000000 hartree =       0.00000000 kcal/mol
 Total                         =      -0.00254962 hartree =      -1.59991160 kcal/mol
 --------------------------------------------------
 SCF Energy (H0 + V/2)                       =    -271.58132948 
 Solute Internal Energy (H0)                 =    -271.57877986 
 Total Free Energy (H0 + V/2 + non-elec)     =    -271.58132948 hartree
                                             = -170419.85639612 kcal/mol
***********************************************************

E_pcm = -0.0025496214
Multipole orders to be included
        2
        3
computing dipole RHS
computing quadrupole RHS
total number of RHS in solve_reponses: 8
RHS batch sizes
        8
Beginning Block Conjugate Gradient Iterations. Batch Number: 0
computing hessian-vector products by finite difference
              1      5.78e-01     00000 Conjugate Gradient Iteration
computing hessian-vector products by finite difference
              2      1.84e-01     00000 Conjugate Gradient Iteration
computing hessian-vector products by finite difference
              3      4.27e-02     00000 Conjugate Gradient Iteration
computing hessian-vector products by finite difference
              4      1.02e-02     00000 Conjugate Gradient Iteration
computing hessian-vector products by finite difference
              5      2.21e-03     00000 Conjugate Gradient Iteration
computing hessian-vector products by finite difference
              6      5.62e-04     00000 Conjugate Gradient Iteration
computing hessian-vector products by finite difference
              7      1.65e-04     00000 Conjugate Gradient Iteration
computing hessian-vector products by finite difference
              8      2.52e-05     00000 Conjugate Gradient Iteration
computing hessian-vector products by finite difference
              9      3.07e-06     00000 Conjugate Gradient Iteration
computing hessian-vector products by finite difference
             10      5.33e-07     00000 Conjugate Gradient Iteration
computing hessian-vector products by finite difference
             11      8.91e-08     00000 Conjugate Gradient Iteration
computing hessian-vector products by finite difference
             12      1.38e-08     00000 Conjugate Gradient Iteration
computing hessian-vector products by finite difference
             13      4.01e-09     00000 CG Converged
batch 0 complete
Done Calculating Responses
TESTING ORTHOGONALIZATION OF MULTIPOLE BASIS
Multipole virts passed orthogonality test
Virts Per Order
           75
          125
 
 --------------------------------------------------------------
 
                    Orbital Energies (a.u.)
 --------------------------------------------------------------
 
 Alpha MOs
 -- Occupied --
-10.2825 -10.2761 -10.2739 -10.2729 -10.2716 -10.2696 -10.2624  -0.9958
 -0.9073  -0.8785  -0.8134  -0.7308  -0.7067  -0.6298  -0.5737  -0.5690
 -0.5353  -0.5305  -0.5149  -0.4892  -0.4720  -0.4433  -0.4410  -0.3486
 -0.3380
 -- Virtual --
  0.0616   0.0632   0.0667   0.0789   0.0845   0.1042   0.1102   0.1137
  0.1354   0.1534   0.1654   0.1682   0.1860   0.1895   0.1941   0.1997
  0.2219   0.2242   0.2328   0.2386   0.2491   0.2582   0.2608   0.2689
  0.2789   0.2823   0.2844   0.2893   0.2929   0.3005   0.3040   0.3097
  0.3203   0.3241   0.3312   0.3363   0.3490   0.3526   0.3655   0.3720
  0.3760   0.3809   0.3839   0.3874   0.3897   0.3993   0.4016   0.4063
  0.4110   0.4281   0.4294   0.4343   0.4402   0.4475   0.4487   0.4527
  0.4626   0.4702   0.4745   0.4811   0.4897   0.4946   0.5117   0.5140
  0.5169   0.5225   0.5345   0.5387   0.5410   0.5465   0.5476   0.5677
  0.5813   0.5877   0.5922   0.5965   0.5984   0.6208   0.6382   0.6391
  0.6627   0.6748   0.6825   0.6838   0.6891   0.6973   0.7201   0.7214
  0.7283   0.7307   0.7443   0.7568   0.7621   0.7646   0.7750   0.7843
  0.7886   0.7918   0.7956   0.8019   0.8060   0.8204   0.8256   0.8293
  0.8317   0.8355   0.8430   0.8520   0.8587   0.8714   0.8884   0.8924
  0.9069   0.9178   0.9316   0.9462   0.9518   1.0052   1.0211   1.0379
  1.0436   1.0579   1.0712   1.0737   1.0881   1.0900   1.1011   1.1397
  1.1619   1.1771   1.2494   1.2742   1.2940   1.3201   1.3482   1.3510
  1.3742   1.4328   1.4477   1.4547   1.4628   1.4830   1.5212   1.5342
  1.5991   1.6018   1.6154   1.6229   1.6635   1.6737   1.7334   1.7747
  1.7875   1.7966   1.7977   1.8117   1.8300   1.8649   1.8846   1.9108
  1.9140   1.9234   1.9413   1.9595   1.9830   1.9932   2.0120   2.0226
  2.0257   2.0448   2.0683   2.0903   2.1123   2.1211   2.1723   2.1793
  2.1954   2.2353   2.2417   2.2669   2.2824   2.3096   2.3879   2.3934
  2.4011   2.4105   2.4844   2.5078   2.5335   2.5504   2.5586   2.6047
  2.6153   2.6247   2.6693   2.6727   2.6944   2.7118   2.7521   2.7626
  2.7817   2.8052   2.8151   2.8414   2.8602   2.8989   2.9063   2.9148
  2.9304   2.9407   2.9568   2.9703   2.9888   3.0155   3.0198   3.0452
  3.0632   3.0810   3.1005   3.1263   3.1767   3.1913   3.2010   3.2218
  3.2339   3.2384   3.2874   3.2997   3.3265   3.3538   3.3630   3.3721
  3.3978   3.4372   3.4424   3.4456   3.4587   3.4687   3.4879   3.4914
  3.5041   3.5282   3.5372   3.5399   3.5556   3.5619   3.5840   3.6009
  3.6168   3.6289   3.6503   3.6842   3.7039   3.7417   3.7737   3.8038
  3.8395   3.8929   3.9084   3.9476   3.9550   3.9860   4.0298   4.0479
  4.1158   4.1966   4.2646   4.2674   4.2899   4.3066   4.3175   4.3258
  4.3376   4.3597   4.3764   4.3921   4.4194   4.4361   4.4715   4.5189
  4.5997   4.6276   4.7390   4.7600   4.8183   4.8788   4.9034   4.9434
  5.0183   5.0415   5.1555   5.2649   5.3504   5.3646   5.4968   5.5305
  5.6603   5.8467  22.5835  22.6723  22.8741  22.8828  22.9972  23.0596
 23.4047
 --------------------------------------------------------------
 
          Ground-State Mulliken Net Atomic Charges

     Atom                 Charge (a.u.)
  ----------------------------------------
      1 C                    -1.036826
      2 C                    -0.494639
      3 C                    -0.504393
      4 C                    -0.504218
      5 C                    -0.337277
      6 C                    -0.381681
      7 C                     0.889701
      8 H                     0.336863
      9 H                     0.316021
     10 H                     0.320879
     11 H                     0.334908
     12 H                     0.307499
     13 H                     0.276217
     14 H                     0.261603
     15 H                     0.215342
  ----------------------------------------
  Sum of atomic charges =     0.000000

 -----------------------------------------------------------------
                    Cartesian Multipole Moments
 -----------------------------------------------------------------
    Charge (ESU x 10^10)
                 0.0000
    Dipole Moment (Debye)
         X       0.4667      Y       0.0826      Z       0.1724
       Tot       0.5043
    Quadrupole Moments (Debye-Ang)
        XX     -36.5419     XY       1.7807     YY     -44.0874
        XZ       1.7078     YZ      -3.3271     ZZ     -39.8123
    Octopole Moments (Debye-Ang^2)
       XXX    -299.3194    XXY      63.5759    XYY    -119.8219
       YYY     197.5607    XXZ       2.7947    XYZ      -9.1921
       YYZ       7.5994    XZZ    -105.6819    YZZ      59.9920
       ZZZ      -7.2798
    Hexadecapole Moments (Debye-Ang^3)
      XXXX   -2129.4975   XXXY     419.2647   XXYY    -515.2931
      XYYY     470.3380   YYYY    -745.7324   XXXZ     -80.0270
      XXYZ      -8.8226   XYYZ     -11.2176   YYYZ      25.0430
      XXZZ    -418.2850   XYZZ     140.5862   YYZZ    -162.6278
      XZZZ     -85.0427   YZZZ      35.7910   ZZZZ    -290.6702
 -----------------------------------------------------------------
Archival summary:
1\1\nid00566\SP\ProcedureUnspecified\BasisUnspecified\78\meili\SunSep2616:29:172021SunSep2616:29:172021\0\\#,ProcedureUnspecified,BasisUnspecified,\\0,1\C\C,1,1.39493\H,2,1.07798,1,119.954\C,2,1.39571,1,120.688,3,178.564,0\H,4,1.07416,2,117.896,1,179.421,0\C,4,1.39601,2,120.088,1,-0.180473,0\H,6,1.08142,4,120.285,2,179.451,0\C,1,1.3968,2,119.196,3,-178.216,0\H,8,1.07966,1,119.755,2,179.72,0\C,6,1.39834,4,119.637,2,-0.0379978,0\H,10,1.08134,6,119.959,4,-179.778,0\C,1,1.50124,2,120.312,3,2.2351,0\H,12,1.08863,1,107.701,2,-141.059,0\H,12,1.0919,1,109.622,2,-24.0684,0\H,12,1.1,1,114.071,2,99.5103,0\\\@

 Total job time:  29224.65s(wall), 57926.80s(cpu) 
 Sun Sep 26 16:29:20 2021

        *************************************************************
        *                                                           *
        *  Thank you very much for using Q-Chem.  Have a nice day.  *
        *                                                           *
        *************************************************************


Done Job For Fragment 0
calling putenv with: QCSCRATCH=/global/cscratch1/sd/meili 
calling putenv with: QCLOCALSCR=/tmp 
calling putenv with: QCTHREADS=32 
Creating input file /tmp/qchem27296/Frg2.input
using default PutDataFrgm: nothing
calling putenv with: QCSCRATCH=/tmp/qchem27296/ 
calling putenv with: QCLOCALSCR=/tmp/qchem27296/ 
Spawning Job For Fragment 1
                  Welcome to Q-Chem
     A Quantum Leap Into The Future Of Chemistry


 Q-Chem 5.2, Q-Chem, Inc., Pleasanton, CA (2019)

 License issued to: National Energy Research Scientific Computing Center

 Yihan Shao,  Zhengting Gan,  E. Epifanovsky,  A. T. B. Gilbert,  M. Wormit,  
 J. Kussmann,  A. W. Lange,  A. Behn,  Jia Deng,  Xintian Feng,  D. Ghosh,  
 M. Goldey,  P. R. Horn,  L. D. Jacobson,  I. Kaliman,  T. Kus,  A. Landau,  
 Jie Liu,  E. I. Proynov,  R. M. Richard,  R. P. Steele,  E. J. Sundstrom,  
 H. L. Woodcock III,  P. M. Zimmerman,  D. Zuev,  B. Albrecht,  E. Alguire,  
 S. A. Baeppler,  D. Barton,  Z. Benda,  Y. A. Bernard,  E. J. Berquist,  
 K. B. Bravaya,  H. Burton,  D. Casanova,  Chun-Min Chang,  Yunqing Chen,  
 A. Chien,  K. D. Closser,  M. P. Coons,  S. Coriani,  S. Dasgupta,  
 A. L. Dempwolff,  M. Diedenhofen,  Hainam Do,  R. G. Edgar,  Po-Tung Fang,  
 S. Faraji,  S. Fatehi,  Qingguo Feng,  K. D. Fenk,  J. Fosso-Tande,  
 J. Gayvert,  Qinghui Ge,  A. Ghysels,  G. Gidofalvi,  J. Gomes,  
 J. Gonthier,  A. Gunina,  D. Hait,  M. W. D. Hanson-Heine,  
 P. H. P. Harbach,  A. W. Hauser,  M. F. Herbst,  J. E. Herr,  
 E. G. Hohenstein,  Z. C. Holden,  Kerwin Hui,  B. C. Huynh,  T.-C. Jagau,  
 Hyunjun Ji,  B. Kaduk,  K. Khistyaev,  Jaehoon Kim,  P. Klunzinger,  K. Koh,  
 D. Kosenkov,  L. Koulias,  T. Kowalczyk,  C. M. Krauter,  A. Kunitsa,  
 Ka Un Lao,  A. Laurent,  K. V. Lawler,  Joonho Lee,  D. Lefrancois,  
 S. Lehtola,  D. S. Levine,  Yi-Pei Li,  You-Sheng Lin,  Fenglai Liu,  
 E. Livshits,  A. Luenser,  P. Manohar,  E. Mansoor,  S. F. Manzer,  
 Shan-Ping Mao,  Yuezhi Mao,  N. Mardirossian,  A. V. Marenich,  
 T. Markovich,  L. A. Martinez-Martinez,  S. A. Maurer,  N. J. Mayhall,  
 S. C. McKenzie,  J.-M. Mewes,  P. Morgante,  A. F. Morrison,  
 J. W. Mullinax,  K. Nanda,  T. S. Nguyen-Beck,  R. Olivares-Amaya,  
 J. A. Parkhill,  Zheng Pei,  T. M. Perrine,  F. Plasser,  P. Pokhilko,  
 S. Prager,  A. Prociuk,  E. Ramos,  D. R. Rehn,  F. Rob,  M. Scheurer,  
 M. Schneider,  N. Sergueev,  S. M. Sharada,  S. Sharma,  D. W. Small,  
 T. Stauch,  T. Stein,  Yu-Chuan Su,  A. J. W. Thom,  A. Tkatchenko,  
 T. Tsuchimochi,  N. M. Tubman,  L. Vogt,  M. L. Vidal,  O. Vydrov,  
 M. A. Watson,  J. Wenzel,  M. de Wergifosse,  T. A. Wesolowski,  A. White,  
 J. Witte,  A. Yamada,  Jun Yang,  K. Yao,  S. Yeganeh,  S. R. Yost,  
 Zhi-Qiang You,  A. Zech,  Igor Ying Zhang,  Xing Zhang,  Yan Zhao,  
 Ying Zhu,  B. R. Brooks,  G. K. L. Chan,  C. J. Cramer,  M. S. Gordon,  
 W. J. Hehre,  A. Klamt,  M. W. Schmidt,  C. D. Sherrill,  D. G. Truhlar,  
 A. Aspuru-Guzik,  R. Baer,  A. T. Bell,  N. A. Besley,  Jeng-Da Chai,  
 A. E. DePrince, III,  R. A. DiStasio Jr.,  A. Dreuw,  B. D. Dunietz,  
 T. R. Furlani,  Chao-Ping Hsu,  Yousung Jung,  Jing Kong,  D. S. Lambrecht,  
 WanZhen Liang,  C. Ochsenfeld,  V. A. Rassolov,  L. V. Slipchenko,  
 J. E. Subotnik,  T. Van Voorhis,  J. M. Herbert,  A. I. Krylov,  
 P. M. W. Gill,  M. Head-Gordon

 Contributors to earlier versions of Q-Chem not listed above: 
 R. D. Adamson,  B. Austin,  J. Baker,  G. J. O. Beran,  K. Brandhorst,  
 S. T. Brown,  E. F. C. Byrd,  A. K. Chakraborty,  C.-L. Cheng,  
 Siu Hung Chien,  D. M. Chipman,  D. L. Crittenden,  H. Dachsel,  
 R. J. Doerksen,  A. D. Dutoi,  L. Fusti-Molnar,  W. A. Goddard III,  
 A. Golubeva-Zadorozhnaya,  S. R. Gwaltney,  G. Hawkins,  A. Heyden,  
 S. Hirata,  G. Kedziora,  F. J. Keil,  C. Kelley,  Jihan Kim,  R. A. King,  
 R. Z. Khaliullin,  P. P. Korambath,  W. Kurlancheek,  A. M. Lee,  M. S. Lee,  
 S. V. Levchenko,  Ching Yeh Lin,  D. Liotard,  R. C. Lochan,  I. Lotan,  
 P. E. Maslen,  N. Nair,  D. P. O'Neill,  D. Neuhauser,  E. Neuscamman,  
 C. M. Oana,  R. Olson,  B. Peters,  R. Peverati,  P. A. Pieniazek,  
 Y. M. Rhee,  J. Ritchie,  M. A. Rohrdanz,  E. Rosta,  N. J. Russ,  
 H. F. Schaefer III,  N. E. Schultz,  N. Shenvi,  A. C. Simmonett,  A. Sodt,  
 D. Stuck,  K. S. Thanthiriwatte,  V. Vanovschi,  Tao Wang,  A. Warshel,  
 C. F. Williams,  Q. Wu,  X. Xu,  W. Zhang

 Please cite Q-Chem as follows:
 Y. Shao et al., Mol. Phys. 113, 184-215 (2015)
 DOI: 10.1080/00268976.2014.952696

 Q-Chem 5.2.0 for Intel X86 EM64T Linux

 Parts of Q-Chem use Armadillo 8.300.2 (Tropical Shenanigans).
 http://arma.sourceforge.net/

 Q-Chem begins on Sun Sep 26 16:29:25 2021  

Host: cori01
0

     Scratch files written to /tmp/qchem27296//Frg2//
 May1019 |scratch|qcdevops|jenkins|workspace|build_RNUM -1
Processing $rem in /global/common/cori/software/qchem/5.2/config/preferences:
	 MEM_TOTAL  96000 
NAlpha2: 50
NElect   50
Mult     1
Symmetry turned off for PCM/SM12/SMD calculation

Checking the input file for inconsistencies... 	...done.

--------------------------------------------------------------
User input:
--------------------------------------------------------------
$molecule
0 1
 6	-4.6297926567	0.1163959583	-0.0170755331
 6	-2.1337926567	0.3823959583	-0.3150755331
 6	-3.3697926567	0.9503959583	-0.0050755331
 6	-0.9857926567	1.1773959583	-0.3710755331
 6	-1.0647926567	2.5503959583	-0.1140755331
 6	-3.4377926567	2.3203959583	0.2589244669
 6	-2.2967926567	3.1203959583	0.2019244669
 1	-2.0637926567	-0.6746040417	-0.5260755331
 1	-0.0307926567	0.7413959583	-0.6170755331
 1	-4.5237926567	-0.6726040417	-0.7620755331
 1	-5.4547926567	0.7543959583	-0.3390755331
 1	-0.1767926567	3.1673959583	-0.1650755331
 1	-4.3877926567	2.7703959583	0.5109244669
 1	-2.3787926567	4.1843959583	0.3699244669
 1	-4.8907826567	-0.3453630417	0.9465949669
$end
$rem
EDA2		1
METHOD		WB97X-V
BASIS		DEF2-TZVPD
XC_GRID		000099000590
NL_GRID		1
UNRESTRICTED		FALSE
MAX_SCF_CYCLES		200
SYMMETRY		FALSE
SYM_IGNORE		TRUE
BASIS_LIN_DEP_THRESH		6
THRESH		14
SCF_CONVERGENCE		8
SCF_PRINT_FRGM		TRUE
SOLVENT_METHOD		PCM
!required keywords
JOBTYPE		SP
SYM_IGNORE		TRUE
SUBSYSTEM		TRUE
GEN_SCFMAN		TRUE
CHILD_INSTRUCTION		2
SYM_IGNORE		TRUE
SCFMI		0
RI_K 0		
PARI_K 0		
MIN_PARI_K 0		
IARI_K 0		
OCC_RI_K 0		
PURECART		1111
MEM_STATIC		2000
MEM_TOTAL		96000
GUI		0
CHILD_MP		1
CHILD_MP_ORDERS		232
FRZ_RELAX		0
FRZ_RELAX_METHOD		0
EDA_CLS_ELEC		1
EDA_CLS_DISP		0
FRZ_ORTHO_DECOMP		1
EDA2		FALSE
FRGM_METHOD		FALSE
CIS_N_ROOTS  0
LOCAL_CIS    0
CIS_RLX_DNS  1
$end
$pcm
THEORY                  CPCM
METHOD                  SWIG
SOLVER                  INVERSION
RADII                   UFF
HPOINTS                 302
HEAVYPOINTS             302
PRINTLEVEL              0
$end
$solvent
DIELECTRIC              78.390000 ! water
$end
--------------------------------------------------------------
 ----------------------------------------------------------------
             Standard Nuclear Orientation (Angstroms)
    I     Atom           X                Y                Z
 ----------------------------------------------------------------
    1      C      -4.6297926567     0.1163959583    -0.0170755331
    2      C      -2.1337926567     0.3823959583    -0.3150755331
    3      C      -3.3697926567     0.9503959583    -0.0050755331
    4      C      -0.9857926567     1.1773959583    -0.3710755331
    5      C      -1.0647926567     2.5503959583    -0.1140755331
    6      C      -3.4377926567     2.3203959583     0.2589244669
    7      C      -2.2967926567     3.1203959583     0.2019244669
    8      H      -2.0637926567    -0.6746040417    -0.5260755331
    9      H      -0.0307926567     0.7413959583    -0.6170755331
   10      H      -4.5237926567    -0.6726040417    -0.7620755331
   11      H      -5.4547926567     0.7543959583    -0.3390755331
   12      H      -0.1767926567     3.1673959583    -0.1650755331
   13      H      -4.3877926567     2.7703959583     0.5109244669
   14      H      -2.3787926567     4.1843959583     0.3699244669
   15      H      -4.8907826567    -0.3453630417     0.9465949669
 ----------------------------------------------------------------
 Nuclear Repulsion Energy =         269.21834637 hartrees
 There are       25 alpha and       25 beta electrons
 Requested basis set is def2-TZVPD
 There are 131 shells and 331 basis functions

 Total QAlloc Memory Limit  96000 MB
 Mega-Array Size      1956 MB
 MEM_STATIC part      2000 MB
 Discretize the solute cavity surface with Lebedev spheres
	Using 302 Lebedev grid points for each H atom
	Using 302 Lebedev grid points for other atoms
	Atomic van der Waals radii will be scaled by 1.20
 Remove points where switching function is < 1.0e-08
 Keep 1803 surface tesserae and discard 2727 interior tesserae
 Molecular Surface Area = 178.160 Angst**2

                       Distance Matrix (Angstroms)
             C (  1)   C (  2)   C (  3)   C (  4)   C (  5)   C (  6)
   C (  2)  2.527761
   C (  3)  1.511059  1.395142
   C (  4)  3.811794  1.397521  2.422590
   C (  5)  4.317753  2.425569  2.808007  1.399078
   C (  6)  2.520844  2.405356  1.396861  2.777706  2.413122
   C (  7)  3.809838  2.791147  2.429625  2.412944  1.393765  1.394679
   H (  8)  2.732969  1.080125  2.148884  2.148491  3.401231  3.387348
   H (  9)  4.679896  2.154691  3.401051  1.078256  2.143513  3.855939
   H ( 10)  1.090313  2.650459  2.130468  4.011586  4.772035  3.343634
   H ( 11)  1.091491  3.341856  2.120660  4.489088  4.748509  2.622642
   H ( 12)  5.399974  3.407136  3.890493  2.158012  1.082513  3.395778
   H ( 13)  2.716811  3.386050  2.148250  3.858650  3.388415  1.080974
   H ( 14)  4.665340  3.870976  3.403155  3.395818  2.151931  2.146695
   H ( 15)  1.099999  3.118083  2.213160  4.393631  4.914127  3.112931
             C (  7)   H (  8)   H (  9)   H ( 10)   H ( 11)   H ( 12)
   H (  8)  3.871214
   H (  9)  3.386024  2.479199
   H ( 10)  4.502852  2.471295  4.712480
   H ( 11)  3.982914  3.684548  5.431135  1.755568
   H ( 12)  2.152045  4.295585  2.472063  5.830816  5.806042
   H ( 13)  2.142490  4.283033  4.936869  3.673319  2.434183  4.283352
   H ( 14)  1.080298  4.950952  4.282700  5.428895  4.661476  2.483811
   H ( 15)  4.392585  3.204533  5.219733  1.778011  1.783403  5.983058
             H ( 13)   H ( 14)
   H ( 14)  2.460764
   H ( 15)  3.186026  5.211656
 
 A cutoff of  1.0D-14 yielded   8359 shell pairs
 There are     54493 function pairs (     69442 Cartesian)
 Smallest overlap matrix eigenvalue = 5.79E-07
 Linear dependence detected in AO basis
 Tighter screening thresholds may be required for diffuse basis sets
 Use S2THRESH > 14 and THRESH = 14 in case of SCF convergence issues
 Number of orthogonalized atomic orbitals = 330
 Maximum deviation from orthogonality = 1.688E-10

 Scale SEOQF with 1.000000e-02/1.000000e-01/1.000000e-01

 Standard Electronic Orientation quadrupole field applied
 Nucleus-field energy     =     0.0000000140 hartrees
 Guess from superposition of atomic densities
 Warning:  Energy on first SCF cycle will be non-variational
 SAD guess density has 49.913408 electrons

 -----------------------------------------------------------------------
  General SCF calculation program by
  Eric Jon Sundstrom, Paul Horn, Yuezhi Mao, Dmitri Zuev, Alec White,
  David Stuck, Shaama M.S., Shane Yost, Joonho Lee, David Small,
  Daniel Levine, Susi Lehtola, Hugh Burton, Evgeny Epifanovsky
 -----------------------------------------------------------------------
 Exchange:     0.1670 Hartree-Fock + 1.0000 wB97X-V + LR-HF
 Correlation:  1.0000 wB97X-V
 Using Euler-Maclaurin-Lebedev (99,590) quadrature formula
 Nonlocal Correlation:  VV10 with C = 0.0100 and b = 6.00 and scale = 1.00000
 Grid used for NLC:  SG-1 standard quadrature
Energy prior to optimization (guess energy) = -271.520918204350
Begin Timing: Total SCF Calculation
begin iterations for algorithm: DIIS         
the SCF tolerance is set to 1.00e-08
    1    -271.5209182043      1.94e-03     00000 
    2    -271.5595496863      1.24e-03     00000 
    3    -271.5808903122      1.38e-04     00000 
    4    -271.5813071515      4.75e-05     00000 
    5    -271.5813404692      1.67e-05     00000 
    6    -271.5813452059      4.29e-06     00000 
    7    -271.5813455549      1.94e-06     00000 
    8    -271.5813456199      3.35e-07     00000 
    9    -271.5813456229      6.08e-08     00000 
   10    -271.5813456231      3.06e-08     00000 
   11    -271.5813456231      6.31e-09     00000 Convergence criterion met
Timing for Total SCF: 1349.00s (wall), 2677.01s (cpu)

************** Final PCM Free Energy Summary **************
 G_electrostatic  =      -0.00252507 hartree =      -1.58450508 kcal/mol
 G_cavitation     =       0.00000000 hartree =       0.00000000 kcal/mol
 G_dispersion     =       0.00000000 hartree =       0.00000000 kcal/mol
 G_repulsion      =       0.00000000 hartree =       0.00000000 kcal/mol
 --------------------------------------------------
 Non-electrostatic Free Energy =       0.00000000 hartree =       0.00000000 kcal/mol
 Total                         =      -0.00252507 hartree =      -1.58450508 kcal/mol
 --------------------------------------------------
 SCF Energy (H0 + V/2)                       =    -271.58134562 
 Solute Internal Energy (H0)                 =    -271.57882055 
 Total Free Energy (H0 + V/2 + non-elec)     =    -271.58134562 hartree
                                             = -170419.86652540 kcal/mol
***********************************************************

E_pcm = -0.0025250696
Multipole orders to be included
        2
        3
computing dipole RHS
computing quadrupole RHS
total number of RHS in solve_reponses: 8
RHS batch sizes
        8
Beginning Block Conjugate Gradient Iterations. Batch Number: 0
computing hessian-vector products by finite difference
              1      5.83e-01     00000 Conjugate Gradient Iteration
computing hessian-vector products by finite difference
              2      1.92e-01     00000 Conjugate Gradient Iteration
computing hessian-vector products by finite difference
              3      4.46e-02     00000 Conjugate Gradient Iteration
computing hessian-vector products by finite difference
              4      1.04e-02     00000 Conjugate Gradient Iteration
computing hessian-vector products by finite difference
              5      2.11e-03     00000 Conjugate Gradient Iteration
computing hessian-vector products by finite difference
              6      5.76e-04     00000 Conjugate Gradient Iteration
computing hessian-vector products by finite difference
              7      1.99e-04     00000 Conjugate Gradient Iteration
computing hessian-vector products by finite difference
              8      3.17e-05     00000 Conjugate Gradient Iteration
computing hessian-vector products by finite difference
              9      3.76e-06     00000 Conjugate Gradient Iteration
computing hessian-vector products by finite difference
             10      5.49e-07     00000 Conjugate Gradient Iteration
computing hessian-vector products by finite difference
             11      1.08e-07     00000 Conjugate Gradient Iteration
computing hessian-vector products by finite difference
             12      2.76e-08     00000 Conjugate Gradient Iteration
computing hessian-vector products by finite difference
             13      5.74e-09     00000 CG Converged
batch 0 complete
Done Calculating Responses
TESTING ORTHOGONALIZATION OF MULTIPOLE BASIS
Multipole virts passed orthogonality test
Virts Per Order
           75
          125
 
 --------------------------------------------------------------
 
                    Orbital Energies (a.u.)
 --------------------------------------------------------------
 
 Alpha MOs
 -- Occupied --
-10.2836 -10.2749 -10.2742 -10.2723 -10.2714 -10.2706 -10.2634  -0.9960
 -0.9063  -0.8787  -0.8135  -0.7308  -0.7063  -0.6300  -0.5733  -0.5685
 -0.5350  -0.5301  -0.5145  -0.4881  -0.4728  -0.4421  -0.4418  -0.3490
 -0.3385
 -- Virtual --
  0.0625   0.0633   0.0663   0.0790   0.0845   0.1042   0.1103   0.1138
  0.1352   0.1532   0.1660   0.1666   0.1878   0.1884   0.1948   0.1998
  0.2210   0.2220   0.2330   0.2375   0.2513   0.2587   0.2603   0.2697
  0.2790   0.2795   0.2849   0.2922   0.2928   0.3002   0.3031   0.3078
  0.3180   0.3246   0.3329   0.3332   0.3482   0.3515   0.3632   0.3742
  0.3790   0.3797   0.3833   0.3877   0.3884   0.4010   0.4032   0.4067
  0.4100   0.4278   0.4287   0.4357   0.4407   0.4455   0.4483   0.4519
  0.4625   0.4656   0.4704   0.4804   0.4937   0.4945   0.5095   0.5153
  0.5169   0.5233   0.5295   0.5382   0.5432   0.5480   0.5514   0.5621
  0.5834   0.5867   0.5919   0.6000   0.6064   0.6215   0.6398   0.6423
  0.6539   0.6735   0.6788   0.6856   0.6885   0.6901   0.7208   0.7235
  0.7294   0.7351   0.7432   0.7580   0.7634   0.7640   0.7795   0.7874
  0.7884   0.7915   0.7929   0.8041   0.8065   0.8213   0.8248   0.8309
  0.8326   0.8356   0.8393   0.8512   0.8549   0.8751   0.8831   0.8939
  0.9040   0.9067   0.9352   0.9400   0.9519   1.0093   1.0175   1.0347
  1.0440   1.0592   1.0717   1.0800   1.0878   1.0965   1.1000   1.1368
  1.1605   1.1793   1.2455   1.2745   1.2937   1.3218   1.3468   1.3488
  1.3774   1.4321   1.4468   1.4555   1.4623   1.4796   1.5193   1.5342
  1.5973   1.6003   1.6143   1.6218   1.6633   1.6772   1.7329   1.7798
  1.7896   1.7943   1.7983   1.8146   1.8256   1.8680   1.8878   1.9089
  1.9158   1.9197   1.9508   1.9530   1.9775   1.9932   2.0139   2.0216
  2.0294   2.0466   2.0663   2.0949   2.1134   2.1210   2.1670   2.1734
  2.1951   2.2282   2.2334   2.2685   2.2871   2.3099   2.3904   2.3981
  2.3985   2.4022   2.4813   2.5005   2.5285   2.5506   2.5622   2.6067
  2.6165   2.6212   2.6688   2.6719   2.6908   2.7001   2.7501   2.7677
  2.7782   2.8026   2.8184   2.8434   2.8526   2.8967   2.9003   2.9122
  2.9369   2.9390   2.9517   2.9718   2.9844   3.0142   3.0202   3.0447
  3.0616   3.0850   3.0964   3.1095   3.1806   3.1953   3.2022   3.2184
  3.2218   3.2379   3.2883   3.3009   3.3201   3.3522   3.3591   3.3739
  3.3998   3.4378   3.4484   3.4513   3.4577   3.4707   3.4880   3.4936
  3.5026   3.5263   3.5357   3.5408   3.5550   3.5582   3.5893   3.6081
  3.6089   3.6315   3.6406   3.6859   3.6941   3.7484   3.7760   3.8113
  3.8296   3.8774   3.9085   3.9346   3.9432   3.9925   4.0305   4.0486
  4.1132   4.1910   4.2628   4.2718   4.2829   4.3130   4.3157   4.3286
  4.3433   4.3653   4.3837   4.3887   4.4167   4.4414   4.4623   4.5199
  4.5847   4.6309   4.7278   4.7492   4.8242   4.8769   4.9030   4.9389
  5.0134   5.0408   5.1603   5.2548   5.3520   5.3686   5.4913   5.5225
  5.6630   5.8439  22.5754  22.6535  22.8776  22.8838  22.9978  23.0548
 23.3998
 --------------------------------------------------------------
 
          Ground-State Mulliken Net Atomic Charges

     Atom                 Charge (a.u.)
  ----------------------------------------
      1 C                    -1.042892
      2 C                    -0.376081
      3 C                     0.875842
      4 C                    -0.493204
      5 C                    -0.484338
      6 C                    -0.346046
      7 C                    -0.504691
      8 H                     0.329057
      9 H                     0.317410
     10 H                     0.271580
     11 H                     0.269283
     12 H                     0.329742
     13 H                     0.323244
     14 H                     0.313882
     15 H                     0.217212
  ----------------------------------------
  Sum of atomic charges =     0.000000

 -----------------------------------------------------------------
                    Cartesian Multipole Moments
 -----------------------------------------------------------------
    Charge (ESU x 10^10)
                -0.0000
    Dipole Moment (Debye)
         X      -0.4132      Y      -0.2524      Z      -0.0686
       Tot       0.4890
    Quadrupole Moments (Debye-Ang)
        XX     -36.1649     XY       0.4626     YY     -39.0984
        XZ      -1.1417     YZ       1.2162     ZZ     -45.9305
    Octopole Moments (Debye-Ang^2)
       XXX     296.6804    XXY     -55.9081    XYY     103.9032
       YYY    -169.0411    XXZ       7.0706    XYZ      -4.6062
       YYZ       6.3462    XZZ     117.6596    YZZ     -70.5201
       ZZZ       8.0124
    Hexadecapole Moments (Debye-Ang^3)
      XXXX   -2087.7007   XXXY     361.2091   XXYY    -502.7053
      XYYY     374.2057   YYYY    -868.5883   XXXZ     -16.8381
      XXYZ      10.6667   XYYZ     -13.5939   YYYZ       8.0827
      XXZZ    -405.2449   XYZZ     154.9496   YYZZ    -191.1897
      XZZZ       2.5028   YZZZ     -11.5090   ZZZZ     -79.4915
 -----------------------------------------------------------------
Archival summary:
1\1\nid00566\SP\ProcedureUnspecified\BasisUnspecified\78\meili\MonSep2700:58:242021MonSep2700:58:242021\0\\#,ProcedureUnspecified,BasisUnspecified,\\0,1\C\C,1,1.39514\H,2,1.08012,1,119.949\C,1,1.39686,2,118.975,3,-179.738,0\H,4,1.08097,1,119.678,2,-179.334,0\C,4,1.39468,1,120.999,2,0.703066,0\H,6,1.0803,4,119.769,1,177.498,0\C,6,1.39376,4,119.857,1,-0.418436,0\H,8,1.08251,6,120.178,4,179.665,0\C,2,1.39752,1,120.335,3,179.184,0\H,10,1.07826,2,120.442,1,-179.582,0\C,1,1.51106,2,120.815,3,-2.62654,0\H,12,1.09031,1,108.891,2,-30.7366,0\H,12,1.09149,1,108.059,2,-146.802,0\H,12,1.1,1,114.997,2,91.2872,0\\\@

 Total job time:  30544.39s(wall), 60601.61s(cpu) 
 Mon Sep 27 00:58:29 2021

        *************************************************************
        *                                                           *
        *  Thank you very much for using Q-Chem.  Have a nice day.  *
        *                                                           *
        *************************************************************


Done Job For Fragment 1
calling putenv with: QCSCRATCH=/global/cscratch1/sd/meili 
calling putenv with: QCLOCALSCR=/tmp 
calling putenv with: QCTHREADS=32 
Doing General SCFMI
 Exchange:     0.1670 Hartree-Fock + 1.0000 wB97X-V + LR-HF
 Correlation:  1.0000 wB97X-V
 Using Euler-Maclaurin-Lebedev (99,590) quadrature formula
 Nonlocal Correlation:  VV10 with C = 0.0100 and b = 6.00 and scale = 1.00000
 Grid used for NLC:  SG-1 standard quadrature
performing fock build before subrot guess so that all methods have access
Printing subrot_rss_gen Method Specification:
Occupied Subspace Method is 0
Virtual Subspace Method is 0
Energy of the unrelaxed supersystem initial determinant -543.158114927307
performing fock build before subrot guess so that all methods have access
Printing subrot_rss_gen Method Specification:
Occupied Subspace Method is 0
Virtual Subspace Method is 0
Energy of the unrelaxed supersystem initial determinant w/ solvent -543.163193581711
write pseudocanon occs and virts to disk
write pseudocanon orbital energies to disk
Tolerance of ortho_decomp_scf: 1.00e-06
GDM subspace size: 20
Beginning the Orthogonal Decomposition of the Initial Supersystem Wavefunction
    1    -543.1414578150      1.96e-02     ortho_decomp Preconditoned Steepest Descent
    2    -543.1431342156      4.97e-04     ortho_decomp BFGS Step
    3    -543.1431397031      3.99e-05     ortho_decomp BFGS Step
    4    -543.1431397156      1.79e-06     ortho_decomp BFGS Step
    5    -543.1431397157      7.06e-08     ortho_decomp 00000 Convergence criterion met
 Hartree-Fock
 Hartree-Fock
 Hartree-Fock
Doing General SCFMI
 Exchange:     0.1670 Hartree-Fock + 1.0000 wB97X-V + LR-HF
 Correlation:  1.0000 wB97X-V
 Using Euler-Maclaurin-Lebedev (99,590) quadrature formula
 Nonlocal Correlation:  VV10 with C = 0.0100 and b = 6.00 and scale = 1.00000
 Grid used for NLC:  SG-1 standard quadrature
performing fock build at end of subrot_r(subrot) constructor so that all methods have access
<S^2> of initial wavefunction before polarization iterations 0.0000000000
Beginning iterations for the determination of the polarized wavefunction
Energy prior to optimization (guess energy) = -543.163193581712
Begin Timing: Total SCF Calculation
begin iterations for algorithm: DIIS         
the SCF tolerance is set to 1.00e-08
    1    -543.1631935817      4.66e-05     00000 
    2    -543.1634217883      1.75e-05     00000 
    3    -543.1634413296      9.89e-06     00000 
    4    -543.1634478978      2.81e-06     00000 
    5    -543.1634485430      1.24e-06     00000 
    6    -543.1634486710      5.63e-07     00000 
    7    -543.1634486912      2.47e-07     00000 
    8    -543.1634486933      1.27e-07     00000 
    9    -543.1634486939      5.66e-08     00000 
   10    -543.1634486947      2.42e-08     00000 
   11    -543.1634486941      1.11e-08     00000 
   12    -543.1634486941      3.52e-09     00000 Convergence criterion met
write pseudocanon occs and virts to disk
write pseudocanon orbital energies to disk
Timing for Total SCF: 9927.00s (wall), 19749.16s (cpu)
<S^2> of polarized wavefunction after polarization iterations 0.0000000000
relaxing scfmi constraint to allow all rotations in the entire AO span
Doing General SCFMI
 Exchange:     0.1670 Hartree-Fock + 1.0000 wB97X-V + LR-HF
 Correlation:  1.0000 wB97X-V
 Using Euler-Maclaurin-Lebedev (99,590) quadrature formula
 Nonlocal Correlation:  VV10 with C = 0.0100 and b = 6.00 and scale = 1.00000
 Grid used for NLC:  SG-1 standard quadrature
performing fock build at end of subrot_r(subrot) constructor so that all methods have access
<S^2> of polarized wavefunction before ct-allowed iterations 0.0000000000
Beginning iterations for the determination of the CT-Allowed wavefunction
Energy prior to optimization (guess energy) = -543.163448694088
Begin Timing: Total SCF Calculation
begin iterations for algorithm: DIIS         
the SCF tolerance is set to 1.00e-08
    1    -543.1634486941      6.15e-05     00000 
    2    -543.1643834873      7.21e-06     00000 
    3    -543.1644137222      1.21e-06     00000 
    4    -543.1644145740      6.84e-07     00000 
    5    -543.1644146853      1.36e-07     00000 
    6    -543.1644146944      5.09e-08     00000 
    7    -543.1644146954      1.65e-08     00000 
    8    -543.1644146957      6.34e-09     00000 Convergence criterion met
write pseudocanon occs and virts to disk
write pseudocanon orbital energies to disk
Timing for Total SCF: 6173.00s (wall), 12286.94s (cpu)
<S^2> of ct_allowed wavefunction after ct-allowed iterations 0.0000000000

================================
        Results of EDA2         
================================
Basic EDA Quantities
--------------------
Fragment Energies (Ha):
1 -271.5813294810
2 -271.5813456231
--------------------
  E_prp (kJ/mol) = 0.0000
  E_sol (kJ/mol) = -0.0104
  E_frz (kJ/mol) = -1.3509
  E_pol (kJ/mol) = -0.6698
  E_vct (kJ/mol) = -2.5363
  E_int (kJ/mol) = -4.5674
--------------------


Initial Wavefunction Decomposition
--------------------
  --------------------
  Orthogonal Fragment Subspace Decomposition:
  --------------------
     E_elec   (ELEC)   (kJ/mol) = -17.5772
     E_pauli  (PAULI)  (kJ/mol) = 29.7362
     E_disp   (DISP)   (kJ/mol) = -13.5098
     --------------------
     Terms summing to E_pauli:
     --------------------
        E_kep_pauli       (kJ/mol) = 37.9670
        E_disp_free_pauli (kJ/mol) = -8.2308
  --------------------
  Classical Frozen Decomposition:
  --------------------
     E_cls_elec  (CLS ELEC)  (kJ/mol) = -6.5363
     E_cls_pauli (CLS PAULI) (kJ/mol) = 5.1854
    [E_mod_pauli (MOD PAULI) (kJ/mol) = 18.6953 (CLS PAULI - DISP from orthogonal decomposition) ]
  --------------------
--------------------

Simplified EDA Summary (kJ/mol)
--------------------
 PREPARATION     0.0000
 SOLVATION       -0.0104
 FROZEN          12.1590      (does not include dispersion)
[PAULI           29.7362]     (if this is negligible, then frozen describes electrostatics)
 DISPERSION      -13.5098
 POLARIZATION    -0.6698
 CHARGE TRANSFER -2.5363
 TOTAL           -4.5674     (PRP + SOL + FRZ + DISP + POL + CT)
--------------------
 
 --------------------------------------------------------------
 
                    Orbital Energies (a.u.)
 --------------------------------------------------------------
 
 Alpha MOs
 -- Occupied --
-10.2835 -10.2833 -10.2773 -10.2751 -10.2743 -10.2737 -10.2729 -10.2725
-10.2714 -10.2708 -10.2708 -10.2701 -10.2633 -10.2628  -0.9972  -0.9953
 -0.9087  -0.9057  -0.8800  -0.8777  -0.8145  -0.8130  -0.7327  -0.7295
 -0.7085  -0.7052  -0.6335  -0.6275  -0.5754  -0.5728  -0.5704  -0.5674
 -0.5362  -0.5347  -0.5321  -0.5306  -0.5151  -0.5137  -0.4898  -0.4878
 -0.4737  -0.4715  -0.4447  -0.4433  -0.4409  -0.4394  -0.3503  -0.3480
 -0.3384  -0.3378
 -- Virtual --
  0.0555   0.0586   0.0619   0.0636   0.0666   0.0685   0.0766   0.0818
  0.0858   0.0985   0.1025   0.1040   0.1114   0.1124   0.1241   0.1309
  0.1378   0.1491   0.1532   0.1576   0.1644   0.1661   0.1715   0.1753
  0.1846   0.1877   0.1958   0.1980   0.2043   0.2076   0.2134   0.2148
  0.2199   0.2252   0.2322   0.2362   0.2425   0.2446   0.2469   0.2527
  0.2565   0.2582   0.2631   0.2644   0.2684   0.2698   0.2740   0.2753
  0.2792   0.2827   0.2862   0.2904   0.2957   0.2984   0.3013   0.3085
  0.3095   0.3122   0.3156   0.3166   0.3231   0.3255   0.3306   0.3334
  0.3363   0.3398   0.3429   0.3446   0.3483   0.3513   0.3552   0.3589
  0.3601   0.3659   0.3678   0.3718   0.3762   0.3786   0.3799   0.3806
  0.3848   0.3869   0.3924   0.3948   0.3971   0.3995   0.4042   0.4059
  0.4085   0.4122   0.4142   0.4190   0.4252   0.4293   0.4321   0.4354
  0.4369   0.4403   0.4416   0.4468   0.4504   0.4525   0.4548   0.4599
  0.4627   0.4643   0.4646   0.4712   0.4746   0.4791   0.4837   0.4852
  0.4904   0.4916   0.4984   0.5023   0.5030   0.5042   0.5063   0.5119
  0.5145   0.5198   0.5250   0.5263   0.5302   0.5332   0.5376   0.5415
  0.5452   0.5494   0.5523   0.5614   0.5646   0.5679   0.5722   0.5735
  0.5772   0.5856   0.5920   0.5943   0.5971   0.6026   0.6082   0.6126
  0.6167   0.6208   0.6341   0.6352   0.6408   0.6454   0.6493   0.6552
  0.6601   0.6639   0.6665   0.6761   0.6799   0.6847   0.6886   0.6904
  0.6977   0.7031   0.7039   0.7111   0.7178   0.7206   0.7275   0.7307
  0.7341   0.7403   0.7442   0.7469   0.7515   0.7539   0.7590   0.7613
  0.7635   0.7674   0.7714   0.7742   0.7762   0.7765   0.7831   0.7890
  0.7912   0.7935   0.7980   0.7997   0.8032   0.8070   0.8093   0.8159
  0.8173   0.8197   0.8236   0.8290   0.8314   0.8344   0.8364   0.8394
  0.8454   0.8512   0.8530   0.8573   0.8632   0.8654   0.8673   0.8727
  0.8736   0.8838   0.8871   0.8896   0.8949   0.9009   0.9072   0.9113
  0.9156   0.9227   0.9314   0.9359   0.9384   0.9478   0.9542   0.9582
  0.9668   0.9769   0.9811   0.9904   0.9924   1.0024   1.0124   1.0227
  1.0301   1.0420   1.0468   1.0552   1.0603   1.0653   1.0748   1.0821
  1.0849   1.0937   1.1012   1.1076   1.1146   1.1237   1.1288   1.1334
  1.1418   1.1601   1.1664   1.1751   1.1876   1.1972   1.2114   1.2263
  1.2375   1.2602   1.2769   1.2924   1.3037   1.3155   1.3247   1.3338
  1.3437   1.3599   1.3628   1.3671   1.3713   1.4005   1.4109   1.4274
  1.4539   1.4600   1.4626   1.4675   1.4739   1.4868   1.4878   1.4965
  1.5108   1.5303   1.5366   1.5421   1.5473   1.5567   1.5949   1.5963
  1.6133   1.6198   1.6288   1.6368   1.6506   1.6589   1.6690   1.6788
  1.6870   1.7017   1.7136   1.7746   1.7845   1.7895   1.7988   1.7998
  1.8083   1.8105   1.8232   1.8252   1.8387   1.8441   1.8580   1.8869
  1.8966   1.8988   1.9077   1.9214   1.9294   1.9316   1.9412   1.9446
  1.9503   1.9566   1.9716   1.9779   1.9834   1.9896   2.0027   2.0084
  2.0212   2.0226   2.0326   2.0424   2.0469   2.0548   2.0607   2.0648
  2.0841   2.0915   2.1051   2.1246   2.1280   2.1391   2.1484   2.1554
  2.1600   2.1835   2.1908   2.1918   2.2166   2.2194   2.2346   2.2436
  2.2463   2.2536   2.2692   2.2813   2.2911   2.3033   2.3070   2.3314
  2.3437   2.3619   2.4050   2.4078   2.4123   2.4190   2.4204   2.4276
  2.4482   2.4556   2.4955   2.5054   2.5142   2.5244   2.5381   2.5575
  2.5660   2.5819   2.5841   2.6046   2.6159   2.6246   2.6255   2.6334
  2.6415   2.6484   2.6792   2.6893   2.6946   2.7038   2.7069   2.7187
  2.7232   2.7412   2.7589   2.7608   2.7788   2.7811   2.7958   2.8042
  2.8063   2.8226   2.8276   2.8398   2.8494   2.8600   2.8676   2.8737
  2.9060   2.9103   2.9174   2.9247   2.9312   2.9356   2.9460   2.9476
  2.9503   2.9613   2.9636   2.9789   2.9834   2.9989   3.0038   3.0176
  3.0228   3.0262   3.0351   3.0474   3.0554   3.0710   3.0796   3.0840
  3.0933   3.1050   3.1086   3.1167   3.1261   3.1476   3.1895   3.2000
  3.2045   3.2136   3.2244   3.2310   3.2333   3.2441   3.2461   3.2550
  3.2554   3.2908   3.2974   3.3097   3.3249   3.3311   3.3390   3.3501
  3.3653   3.3722   3.3823   3.3852   3.3935   3.4046   3.4129   3.4309
  3.4453   3.4488   3.4554   3.4591   3.4645   3.4682   3.4704   3.4733
  3.4783   3.4892   3.4959   3.5026   3.5118   3.5167   3.5250   3.5271
  3.5387   3.5453   3.5479   3.5512   3.5569   3.5597   3.5649   3.5719
  3.5877   3.5948   3.5977   3.6013   3.6120   3.6178   3.6292   3.6299
  3.6427   3.6521   3.6546   3.6774   3.6963   3.7008   3.7012   3.7080
  3.7116   3.7246   3.7819   3.7976   3.8073   3.8233   3.8346   3.8452
  3.8862   3.8963   3.9124   3.9179   3.9428   3.9562   3.9591   3.9616
  3.9968   4.0070   4.0372   4.0453   4.0669   4.0826   4.1231   4.1343
  4.2079   4.2169   4.2700   4.2711   4.2812   4.2893   4.2964   4.3125
  4.3179   4.3222   4.3262   4.3289   4.3341   4.3392   4.3522   4.3570
  4.3671   4.3689   4.3821   4.3933   4.4040   4.4090   4.4264   4.4306
  4.4463   4.4644   4.4787   4.4835   4.5331   4.5361   4.6009   4.6133
  4.6313   4.6370   4.7341   4.7445   4.7600   4.7663   4.8190   4.8294
  4.8827   4.8891   4.9063   4.9302   4.9545   4.9764   5.0311   5.0523
  5.0564   5.0692   5.1702   5.1841   5.2697   5.2842   5.3531   5.3580
  5.3606   5.3784   5.4912   5.5022   5.5247   5.5408   5.6686   5.6864
  5.8168   5.8211  22.6319  22.6455  22.6728  22.6869  22.8968  22.9053
 22.9155  22.9334  23.0048  23.0236  23.0739  23.0857  23.4132  23.4198
 --------------------------------------------------------------
 
          Ground-State Mulliken Net Atomic Charges

     Atom                 Charge (a.u.)
  ----------------------------------------
      1 C                    -1.101718
      2 C                    -0.351744
      3 C                    -0.373941
      4 C                    -0.460428
      5 C                    -0.431657
      6 C                    -0.326073
      7 C                     0.629352
      8 H                     0.383103
      9 H                     0.314905
     10 H                     0.330521
     11 H                     0.333358
     12 H                     0.335101
     13 H                     0.279121
     14 H                     0.265290
     15 H                     0.217454
     16 C                    -1.068163
     17 C                    -0.312661
     18 C                     0.433866
     19 C                     0.015133
     20 C                    -0.576282
     21 C                    -0.418538
     22 C                    -0.421959
     23 H                     0.271447
     24 H                     0.228743
     25 H                     0.272357
     26 H                     0.282458
     27 H                     0.349395
     28 H                     0.350981
     29 H                     0.331019
     30 H                     0.219560
  ----------------------------------------
  Sum of atomic charges =     0.000000

 -----------------------------------------------------------------
                    Cartesian Multipole Moments
 -----------------------------------------------------------------
    Charge (ESU x 10^10)
                 0.0000
    Dipole Moment (Debye)
         X       0.2291      Y      -0.2462      Z       0.1428
       Tot       0.3653
    Quadrupole Moments (Debye-Ang)
        XX     -72.5526     XY       2.1625     YY     -83.2503
        XZ       0.6012     YZ      -2.2043     ZZ     -85.7180
    Octopole Moments (Debye-Ang^2)
       XXX       0.2622    XXY       6.7959    XYY     -15.1062
       YYY      27.4788    XXZ      10.0440    XYZ     -13.9032
       YYZ      14.1541    XZZ      12.3624    YZZ     -10.6991
       ZZZ       0.8157
    Hexadecapole Moments (Debye-Ang^3)
      XXXX   -4212.5318   XXXY     779.2463   XXYY   -1017.9407
      XYYY     844.6582   YYYY   -1615.6648   XXXZ     -96.0658
      XXYZ       1.2620   XYYZ     -24.3473   YYYZ      32.3468
      XXZZ    -822.9083   XYZZ     295.2766   YYZZ    -353.7657
      XZZZ     -82.4405   YZZZ      23.9742   ZZZZ    -369.8946
 -----------------------------------------------------------------
Archival summary:
1\1\nid00566\SP\ProcedureUnspecified\BasisUnspecified\1416\meili\MonSep2709:09:282021MonSep2709:09:282021\0\\#,ProcedureUnspecified,BasisUnspecified,\\0,1\C\H,1,1.07826\C,1,1.39752,2,120.442\H,3,1.08012,1,119.711,2,-0.3964,0\C,3,1.39514,1,120.335,2,-179.582,0\C,5,1.39686,3,118.975,1,-0.554612,0\H,6,1.08097,5,119.678,3,-179.334,0\C,6,1.39468,5,120.999,3,0.703066,0\H,8,1.0803,6,119.769,5,177.498,0\C,8,1.39376,6,119.857,5,-0.418436,0\H,10,1.08251,8,120.178,6,179.665,0\C,5,1.51106,3,120.815,1,176.557,0\H,12,1.09031,5,108.891,3,-30.7366,0\H,12,1.09149,5,108.059,3,-146.802,0\H,12,1.1,5,114.997,3,91.2872,0\H,4,2.42275,3,128.319,1,2.05082,0\C,16,1.08142,4,124.71,3,34.2914,0\C,17,1.39601,16,120.285,4,84.8486,0\H,18,1.07416,17,122.015,16,-0.133513,0\C,18,1.39571,17,120.088,16,179.451,0\H,20,1.07798,18,119.343,17,178.392,0\C,20,1.39493,18,120.688,17,-0.180473,0\C,22,1.3968,20,119.196,18,0.347918,0\H,23,1.07966,22,119.755,20,179.72,0\C,17,1.39834,16,120.076,4,-95.6643,0\H,25,1.08134,17,119.959,16,0.731387,0\C,22,1.50124,20,120.312,18,-179.201,0\H,27,1.08863,22,107.701,20,-141.059,0\H,27,1.0919,22,109.622,20,-24.0684,0\H,27,1.1,22,114.071,20,99.5103,0\\\@

 Total job time:  89242.64s(wall), 58611.48s(cpu) 
 Mon Sep 27 09:09:31 2021

        *************************************************************
        *                                                           *
        *  Thank you very much for using Q-Chem.  Have a nice day.  *
        *                                                           *
        *************************************************************


