
Running Job 1 of 1 SSI-052PHE-111PHE-1_SMD_TZVPD.in
qchem SSI-052PHE-111PHE-1_SMD_TZVPD.in_38289.0 /tmp/qchem38289/ 0
/global/common/cori/software/qchem/5.2/exe/qcprog.exe_s SSI-052PHE-111PHE-1_SMD_TZVPD.in_38289.0 /tmp/qchem38289/
                  Welcome to Q-Chem
     A Quantum Leap Into The Future Of Chemistry


 Q-Chem 5.2, Q-Chem, Inc., Pleasanton, CA (2019)

 License issued to: National Energy Research Scientific Computing Center

 Yihan Shao,  Zhengting Gan,  E. Epifanovsky,  A. T. B. Gilbert,  M. Wormit,  
 J. Kussmann,  A. W. Lange,  A. Behn,  Jia Deng,  Xintian Feng,  D. Ghosh,  
 M. Goldey,  P. R. Horn,  L. D. Jacobson,  I. Kaliman,  T. Kus,  A. Landau,  
 Jie Liu,  E. I. Proynov,  R. M. Richard,  R. P. Steele,  E. J. Sundstrom,  
 H. L. Woodcock III,  P. M. Zimmerman,  D. Zuev,  B. Albrecht,  E. Alguire,  
 S. A. Baeppler,  D. Barton,  Z. Benda,  Y. A. Bernard,  E. J. Berquist,  
 K. B. Bravaya,  H. Burton,  D. Casanova,  Chun-Min Chang,  Yunqing Chen,  
 A. Chien,  K. D. Closser,  M. P. Coons,  S. Coriani,  S. Dasgupta,  
 A. L. Dempwolff,  M. Diedenhofen,  Hainam Do,  R. G. Edgar,  Po-Tung Fang,  
 S. Faraji,  S. Fatehi,  Qingguo Feng,  K. D. Fenk,  J. Fosso-Tande,  
 J. Gayvert,  Qinghui Ge,  A. Ghysels,  G. Gidofalvi,  J. Gomes,  
 J. Gonthier,  A. Gunina,  D. Hait,  M. W. D. Hanson-Heine,  
 P. H. P. Harbach,  A. W. Hauser,  M. F. Herbst,  J. E. Herr,  
 E. G. Hohenstein,  Z. C. Holden,  Kerwin Hui,  B. C. Huynh,  T.-C. Jagau,  
 Hyunjun Ji,  B. Kaduk,  K. Khistyaev,  Jaehoon Kim,  P. Klunzinger,  K. Koh,  
 D. Kosenkov,  L. Koulias,  T. Kowalczyk,  C. M. Krauter,  A. Kunitsa,  
 Ka Un Lao,  A. Laurent,  K. V. Lawler,  Joonho Lee,  D. Lefrancois,  
 S. Lehtola,  D. S. Levine,  Yi-Pei Li,  You-Sheng Lin,  Fenglai Liu,  
 E. Livshits,  A. Luenser,  P. Manohar,  E. Mansoor,  S. F. Manzer,  
 Shan-Ping Mao,  Yuezhi Mao,  N. Mardirossian,  A. V. Marenich,  
 T. Markovich,  L. A. Martinez-Martinez,  S. A. Maurer,  N. J. Mayhall,  
 S. C. McKenzie,  J.-M. Mewes,  P. Morgante,  A. F. Morrison,  
 J. W. Mullinax,  K. Nanda,  T. S. Nguyen-Beck,  R. Olivares-Amaya,  
 J. A. Parkhill,  Zheng Pei,  T. M. Perrine,  F. Plasser,  P. Pokhilko,  
 S. Prager,  A. Prociuk,  E. Ramos,  D. R. Rehn,  F. Rob,  M. Scheurer,  
 M. Schneider,  N. Sergueev,  S. M. Sharada,  S. Sharma,  D. W. Small,  
 T. Stauch,  T. Stein,  Yu-Chuan Su,  A. J. W. Thom,  A. Tkatchenko,  
 T. Tsuchimochi,  N. M. Tubman,  L. Vogt,  M. L. Vidal,  O. Vydrov,  
 M. A. Watson,  J. Wenzel,  M. de Wergifosse,  T. A. Wesolowski,  A. White,  
 J. Witte,  A. Yamada,  Jun Yang,  K. Yao,  S. Yeganeh,  S. R. Yost,  
 Zhi-Qiang You,  A. Zech,  Igor Ying Zhang,  Xing Zhang,  Yan Zhao,  
 Ying Zhu,  B. R. Brooks,  G. K. L. Chan,  C. J. Cramer,  M. S. Gordon,  
 W. J. Hehre,  A. Klamt,  M. W. Schmidt,  C. D. Sherrill,  D. G. Truhlar,  
 A. Aspuru-Guzik,  R. Baer,  A. T. Bell,  N. A. Besley,  Jeng-Da Chai,  
 A. E. DePrince, III,  R. A. DiStasio Jr.,  A. Dreuw,  B. D. Dunietz,  
 T. R. Furlani,  Chao-Ping Hsu,  Yousung Jung,  Jing Kong,  D. S. Lambrecht,  
 WanZhen Liang,  C. Ochsenfeld,  V. A. Rassolov,  L. V. Slipchenko,  
 J. E. Subotnik,  T. Van Voorhis,  J. M. Herbert,  A. I. Krylov,  
 P. M. W. Gill,  M. Head-Gordon

 Contributors to earlier versions of Q-Chem not listed above: 
 R. D. Adamson,  B. Austin,  J. Baker,  G. J. O. Beran,  K. Brandhorst,  
 S. T. Brown,  E. F. C. Byrd,  A. K. Chakraborty,  C.-L. Cheng,  
 Siu Hung Chien,  D. M. Chipman,  D. L. Crittenden,  H. Dachsel,  
 R. J. Doerksen,  A. D. Dutoi,  L. Fusti-Molnar,  W. A. Goddard III,  
 A. Golubeva-Zadorozhnaya,  S. R. Gwaltney,  G. Hawkins,  A. Heyden,  
 S. Hirata,  G. Kedziora,  F. J. Keil,  C. Kelley,  Jihan Kim,  R. A. King,  
 R. Z. Khaliullin,  P. P. Korambath,  W. Kurlancheek,  A. M. Lee,  M. S. Lee,  
 S. V. Levchenko,  Ching Yeh Lin,  D. Liotard,  R. C. Lochan,  I. Lotan,  
 P. E. Maslen,  N. Nair,  D. P. O'Neill,  D. Neuhauser,  E. Neuscamman,  
 C. M. Oana,  R. Olson,  B. Peters,  R. Peverati,  P. A. Pieniazek,  
 Y. M. Rhee,  J. Ritchie,  M. A. Rohrdanz,  E. Rosta,  N. J. Russ,  
 H. F. Schaefer III,  N. E. Schultz,  N. Shenvi,  A. C. Simmonett,  A. Sodt,  
 D. Stuck,  K. S. Thanthiriwatte,  V. Vanovschi,  Tao Wang,  A. Warshel,  
 C. F. Williams,  Q. Wu,  X. Xu,  W. Zhang

 Please cite Q-Chem as follows:
 Y. Shao et al., Mol. Phys. 113, 184-215 (2015)
 DOI: 10.1080/00268976.2014.952696

 Q-Chem 5.2.0 for Intel X86 EM64T Linux

 Parts of Q-Chem use Armadillo 8.300.2 (Tropical Shenanigans).
 http://arma.sourceforge.net/

 Q-Chem begins on Tue Sep 28 09:50:07 2021  

Host: cori09
0

     Scratch files written to /tmp/qchem38289//
 May1019 |scratch|qcdevops|jenkins|workspace|build_RNUM -1
Processing $rem in /global/common/cori/software/qchem/5.2/config/preferences:
	 MEM_TOTAL  96000 
NAlpha2: 100
NElect   100
Mult     1
Symmetry turned off for PCM/SM12/SMD calculation

 Q-Chem warning in module libgen/rem_setup.C, line 2803:

 Neither GIA nor STOLL is specified by user. Use STOLL as the default


Checking the input file for inconsistencies... 	...done.

--------------------------------------------------------------
User input:
--------------------------------------------------------------
$comment
SSI-052PHE-111PHE-1.pdb
$end

$molecule
0 1
--
0 1
C    4.821283993299    1.167330547909   -0.974019151882
C    1.361283993299   -1.292669452091   -1.543019151882
C    1.957283993299   -0.681669452091   -2.628019151882
C    1.885283993299   -1.105669452091   -0.271019151882
C    3.080283993299    0.116330547909   -2.452019151882
C    3.006283993299   -0.303669452091   -0.088019151882
C    3.618283993299    0.297330547909   -1.178019151882
H    0.493283993299   -1.921669452091   -1.684019151882
H    1.551283993299   -0.834669452091   -3.617019151882
H    1.421283993299   -1.582669452091    0.580980848118
H    3.540283993299    0.588330547909   -3.309019151882
H    3.402283993299   -0.155669452091    0.904980848118
H    5.550283993299    0.959330547909   -1.756019151882
H    5.281283993299    0.896330547909   -0.022019151882
H    4.584599993299    2.241400547909   -0.955319151882
--
0 1
C   -4.029716006701    0.265330547909    3.438980848118
C   -1.935716006701    0.231330547909   -0.310019151882
C   -1.680716006701   -0.741669452091    0.632980848118
C   -2.888716006701    1.199330547909   -0.049019151882
C   -2.373716006701   -0.748669452091    1.837980848118
C   -3.582716006701    1.202330547909    1.160980848118
C   -3.343716006701    0.216330547909    2.106980848118
H   -1.388716006701    0.249330547909   -1.243019151882
H   -0.945716006701   -1.506669452091    0.432980848118
H   -3.103716006701    1.950330547909   -0.796019151882
H   -2.162716006701   -1.521669452091    2.560980848118
H   -4.321716006701    1.959330547909    1.350980848118
H   -4.180716006701   -0.752669452091    3.800980848118
H   -5.016716006701    0.716330547909    3.323980848118
H   -3.454072006701    0.838820547909    4.180430848118
$end

$rem
JOBTYPE			EDA
EDA2			1
method			wB97X-V
BASIS			def2-TZVPD
XC_GRID			000099000590
NL_GRID			1
UNRESTRICTED		FALSE
MAX_SCF_CYCLES		200
SYMMETRY		FALSE
SYM_IGNORE		TRUE
MEM_STATIC		2000
BASIS_LIN_DEP_THRESH 	6
THRESH 			14
SCF_CONVERGENCE 	8
SCF_PRINT_FRGM 		TRUE
SOLVENT_METHOD          SMD
$end

$SMX
SOLVENT			WATER
$END
--------------------------------------------------------------
 ----------------------------------------------------------------
             Standard Nuclear Orientation (Angstroms)
    I     Atom           X                Y                Z
 ----------------------------------------------------------------
    1      C       4.8212839933     1.1673305479    -0.9740191519
    2      C       1.3612839933    -1.2926694521    -1.5430191519
    3      C       1.9572839933    -0.6816694521    -2.6280191519
    4      C       1.8852839933    -1.1056694521    -0.2710191519
    5      C       3.0802839933     0.1163305479    -2.4520191519
    6      C       3.0062839933    -0.3036694521    -0.0880191519
    7      C       3.6182839933     0.2973305479    -1.1780191519
    8      H       0.4932839933    -1.9216694521    -1.6840191519
    9      H       1.5512839933    -0.8346694521    -3.6170191519
   10      H       1.4212839933    -1.5826694521     0.5809808481
   11      H       3.5402839933     0.5883305479    -3.3090191519
   12      H       3.4022839933    -0.1556694521     0.9049808481
   13      H       5.5502839933     0.9593305479    -1.7560191519
   14      H       5.2812839933     0.8963305479    -0.0220191519
   15      H       4.5845999933     2.2414005479    -0.9553191519
   16      C      -4.0297160067     0.2653305479     3.4389808481
   17      C      -1.9357160067     0.2313305479    -0.3100191519
   18      C      -1.6807160067    -0.7416694521     0.6329808481
   19      C      -2.8887160067     1.1993305479    -0.0490191519
   20      C      -2.3737160067    -0.7486694521     1.8379808481
   21      C      -3.5827160067     1.2023305479     1.1609808481
   22      C      -3.3437160067     0.2163305479     2.1069808481
   23      H      -1.3887160067     0.2493305479    -1.2430191519
   24      H      -0.9457160067    -1.5066694521     0.4329808481
   25      H      -3.1037160067     1.9503305479    -0.7960191519
   26      H      -2.1627160067    -1.5216694521     2.5609808481
   27      H      -4.3217160067     1.9593305479     1.3509808481
   28      H      -4.1807160067    -0.7526694521     3.8009808481
   29      H      -5.0167160067     0.7163305479     3.3239808481
   30      H      -3.4540720067     0.8388205479     4.1804308481
 ----------------------------------------------------------------
 Nuclear Repulsion Energy =         754.08726516 hartrees
 There are       50 alpha and       50 beta electrons
 Requested basis set is def2-TZVPD
 There are 262 shells and 662 basis functions

 Total QAlloc Memory Limit  96000 MB
 Mega-Array Size      1956 MB
 MEM_STATIC part      2000 MB
 
 Citation of the SMD model:
 Marenich, A.V.; Cramer, C.J.; Truhlar, D.G.
 J. Phys. Chem. B 2009, 113, 6378-6396.
 iSolventCode=           1
 Solvent: water                                                           
 
 vradii
            1           2           3           4           5           6
    1   1.8500000   1.8500000   1.8500000   1.8500000   1.8500000   1.8500000
            7           8           9          10          11          12
    1   1.8500000   1.2000000   1.2000000   1.2000000   1.2000000   1.2000000
           13          14          15          16          17          18
    1   1.2000000   1.2000000   1.2000000   1.8500000   1.8500000   1.8500000
           19          20          21          22          23          24
    1   1.8500000   1.8500000   1.8500000   1.8500000   1.2000000   1.2000000
           25          26          27          28          29          30
    1   1.2000000   1.2000000   1.2000000   1.2000000   1.2000000   1.2000000
 Changing PCM_VDW_RADII to SMD_RADIUS
 Discretize the solute cavity surface with Lebedev spheres
	Using 110 Lebedev grid points for each H atom
	Using 194 Lebedev grid points for other atoms
	Atomic van der Waals radii will be scaled by 1.20
 Remove points where switching function is < 1.0e-08
 Keep 2141 surface tesserae and discard 2335 interior tesserae
 Molecular Surface Area = 261.778 Angst**2
 A cutoff of  1.0D-14 yielded  28075 shell pairs
 There are    179607 function pairs (    226208 Cartesian)
 Smallest overlap matrix eigenvalue = 4.59E-07
 Linear dependence detected in AO basis
 Tighter screening thresholds may be required for diffuse basis sets
 Use S2THRESH > 14 and THRESH = 14 in case of SCF convergence issues
 Number of orthogonalized atomic orbitals = 658
 Maximum deviation from orthogonality = 1.526E-10

 Scale SEOQF with 1.000000e-02/1.000000e-01/1.000000e-01

 Standard Electronic Orientation quadrupole field applied
 Nucleus-field energy     =    -0.0000000251 hartrees

 -----------------------------------------------------------------------
  General SCF calculation program by
  Eric Jon Sundstrom, Paul Horn, Yuezhi Mao, Dmitri Zuev, Alec White,
  David Stuck, Shaama M.S., Shane Yost, Joonho Lee, David Small,
  Daniel Levine, Susi Lehtola, Hugh Burton, Evgeny Epifanovsky
 -----------------------------------------------------------------------
================================================================
                 ALMO-EDA with the EDA2 driver                  
================================================================
 The second-generation ALMO-EDA (for DFT):                      
 P. R. Horn, Y. Mao and M. Head-Gordon, PCCP, 18, 23067 (2016)  
 Decomposition of the frozen energy:                            
 P. R. Horn, Y. Mao and M. Head-Gordon, JCP, 144, 114107 (2016) 
 FERF model for polarization:                                   
 P. R. Horn and M. Head-Gordon, JCP, 143, 114111 (2015)         
Using eda2 option set 1
Option set summary: Frozen orbital wavefunction, initial wavefunction decomposition, and nDQ polarization.
--------------------------------
Printing EDA Options
--------------------------------
eda_child_super_basis      0
fragmo_guess_mode          0
child_mp                   1
child_mp_orders            232
cls_elec                   1
cls_disp                   0
scfmi_mode                 1
scfmi_occs                 0
scfmi_virts                0
frz_relax                  0
frz_relax_method           0
dc_pen_start               0
dc_pen_conv                0
dc_pen_increment           0
dc_pen_steps               0
dc_pen_thresh_factor       0
dc_pen_pre_newton_thresh   0
frz_ortho_decomp           1
frz_ortho_decomp_conv      6
frgm_method                2
scfmi_freeze_ss            0
separate_rehyb             0
plot_diff_den              0
eda_nocv                   0
eda_vct_relax              1
disp_free_x                0
disp_free_c                0
eda_bsse                   0
eda_pct_a                  0
eda_covp                   0
--------------------------------
Attempting to make child job directory: /tmp/qchem38289//Frg1/
Attempting to make child job directory: /tmp/qchem38289//Frg2/
Creating input file /tmp/qchem38289/Frg1.input
using default PutDataFrgm: nothing
calling putenv with: QCSCRATCH=/tmp/qchem38289/ 
calling putenv with: QCLOCALSCR=/tmp/qchem38289/ 
Spawning Job For Fragment 0
                  Welcome to Q-Chem
     A Quantum Leap Into The Future Of Chemistry


 Q-Chem 5.2, Q-Chem, Inc., Pleasanton, CA (2019)

 License issued to: National Energy Research Scientific Computing Center

 Yihan Shao,  Zhengting Gan,  E. Epifanovsky,  A. T. B. Gilbert,  M. Wormit,  
 J. Kussmann,  A. W. Lange,  A. Behn,  Jia Deng,  Xintian Feng,  D. Ghosh,  
 M. Goldey,  P. R. Horn,  L. D. Jacobson,  I. Kaliman,  T. Kus,  A. Landau,  
 Jie Liu,  E. I. Proynov,  R. M. Richard,  R. P. Steele,  E. J. Sundstrom,  
 H. L. Woodcock III,  P. M. Zimmerman,  D. Zuev,  B. Albrecht,  E. Alguire,  
 S. A. Baeppler,  D. Barton,  Z. Benda,  Y. A. Bernard,  E. J. Berquist,  
 K. B. Bravaya,  H. Burton,  D. Casanova,  Chun-Min Chang,  Yunqing Chen,  
 A. Chien,  K. D. Closser,  M. P. Coons,  S. Coriani,  S. Dasgupta,  
 A. L. Dempwolff,  M. Diedenhofen,  Hainam Do,  R. G. Edgar,  Po-Tung Fang,  
 S. Faraji,  S. Fatehi,  Qingguo Feng,  K. D. Fenk,  J. Fosso-Tande,  
 J. Gayvert,  Qinghui Ge,  A. Ghysels,  G. Gidofalvi,  J. Gomes,  
 J. Gonthier,  A. Gunina,  D. Hait,  M. W. D. Hanson-Heine,  
 P. H. P. Harbach,  A. W. Hauser,  M. F. Herbst,  J. E. Herr,  
 E. G. Hohenstein,  Z. C. Holden,  Kerwin Hui,  B. C. Huynh,  T.-C. Jagau,  
 Hyunjun Ji,  B. Kaduk,  K. Khistyaev,  Jaehoon Kim,  P. Klunzinger,  K. Koh,  
 D. Kosenkov,  L. Koulias,  T. Kowalczyk,  C. M. Krauter,  A. Kunitsa,  
 Ka Un Lao,  A. Laurent,  K. V. Lawler,  Joonho Lee,  D. Lefrancois,  
 S. Lehtola,  D. S. Levine,  Yi-Pei Li,  You-Sheng Lin,  Fenglai Liu,  
 E. Livshits,  A. Luenser,  P. Manohar,  E. Mansoor,  S. F. Manzer,  
 Shan-Ping Mao,  Yuezhi Mao,  N. Mardirossian,  A. V. Marenich,  
 T. Markovich,  L. A. Martinez-Martinez,  S. A. Maurer,  N. J. Mayhall,  
 S. C. McKenzie,  J.-M. Mewes,  P. Morgante,  A. F. Morrison,  
 J. W. Mullinax,  K. Nanda,  T. S. Nguyen-Beck,  R. Olivares-Amaya,  
 J. A. Parkhill,  Zheng Pei,  T. M. Perrine,  F. Plasser,  P. Pokhilko,  
 S. Prager,  A. Prociuk,  E. Ramos,  D. R. Rehn,  F. Rob,  M. Scheurer,  
 M. Schneider,  N. Sergueev,  S. M. Sharada,  S. Sharma,  D. W. Small,  
 T. Stauch,  T. Stein,  Yu-Chuan Su,  A. J. W. Thom,  A. Tkatchenko,  
 T. Tsuchimochi,  N. M. Tubman,  L. Vogt,  M. L. Vidal,  O. Vydrov,  
 M. A. Watson,  J. Wenzel,  M. de Wergifosse,  T. A. Wesolowski,  A. White,  
 J. Witte,  A. Yamada,  Jun Yang,  K. Yao,  S. Yeganeh,  S. R. Yost,  
 Zhi-Qiang You,  A. Zech,  Igor Ying Zhang,  Xing Zhang,  Yan Zhao,  
 Ying Zhu,  B. R. Brooks,  G. K. L. Chan,  C. J. Cramer,  M. S. Gordon,  
 W. J. Hehre,  A. Klamt,  M. W. Schmidt,  C. D. Sherrill,  D. G. Truhlar,  
 A. Aspuru-Guzik,  R. Baer,  A. T. Bell,  N. A. Besley,  Jeng-Da Chai,  
 A. E. DePrince, III,  R. A. DiStasio Jr.,  A. Dreuw,  B. D. Dunietz,  
 T. R. Furlani,  Chao-Ping Hsu,  Yousung Jung,  Jing Kong,  D. S. Lambrecht,  
 WanZhen Liang,  C. Ochsenfeld,  V. A. Rassolov,  L. V. Slipchenko,  
 J. E. Subotnik,  T. Van Voorhis,  J. M. Herbert,  A. I. Krylov,  
 P. M. W. Gill,  M. Head-Gordon

 Contributors to earlier versions of Q-Chem not listed above: 
 R. D. Adamson,  B. Austin,  J. Baker,  G. J. O. Beran,  K. Brandhorst,  
 S. T. Brown,  E. F. C. Byrd,  A. K. Chakraborty,  C.-L. Cheng,  
 Siu Hung Chien,  D. M. Chipman,  D. L. Crittenden,  H. Dachsel,  
 R. J. Doerksen,  A. D. Dutoi,  L. Fusti-Molnar,  W. A. Goddard III,  
 A. Golubeva-Zadorozhnaya,  S. R. Gwaltney,  G. Hawkins,  A. Heyden,  
 S. Hirata,  G. Kedziora,  F. J. Keil,  C. Kelley,  Jihan Kim,  R. A. King,  
 R. Z. Khaliullin,  P. P. Korambath,  W. Kurlancheek,  A. M. Lee,  M. S. Lee,  
 S. V. Levchenko,  Ching Yeh Lin,  D. Liotard,  R. C. Lochan,  I. Lotan,  
 P. E. Maslen,  N. Nair,  D. P. O'Neill,  D. Neuhauser,  E. Neuscamman,  
 C. M. Oana,  R. Olson,  B. Peters,  R. Peverati,  P. A. Pieniazek,  
 Y. M. Rhee,  J. Ritchie,  M. A. Rohrdanz,  E. Rosta,  N. J. Russ,  
 H. F. Schaefer III,  N. E. Schultz,  N. Shenvi,  A. C. Simmonett,  A. Sodt,  
 D. Stuck,  K. S. Thanthiriwatte,  V. Vanovschi,  Tao Wang,  A. Warshel,  
 C. F. Williams,  Q. Wu,  X. Xu,  W. Zhang

 Please cite Q-Chem as follows:
 Y. Shao et al., Mol. Phys. 113, 184-215 (2015)
 DOI: 10.1080/00268976.2014.952696

 Q-Chem 5.2.0 for Intel X86 EM64T Linux

 Parts of Q-Chem use Armadillo 8.300.2 (Tropical Shenanigans).
 http://arma.sourceforge.net/

 Q-Chem begins on Tue Sep 28 09:50:14 2021  

Host: cori09
0

     Scratch files written to /tmp/qchem38289//Frg1//
 May1019 |scratch|qcdevops|jenkins|workspace|build_RNUM -1
Processing $rem in /global/common/cori/software/qchem/5.2/config/preferences:
	 MEM_TOTAL  96000 
NAlpha2: 50
NElect   50
Mult     1
Symmetry turned off for PCM/SM12/SMD calculation

Checking the input file for inconsistencies... 	...done.

--------------------------------------------------------------
User input:
--------------------------------------------------------------
$molecule
0 1
 6	4.8212839933	1.1673305479	-0.9740191519
 6	1.3612839933	-1.2926694521	-1.5430191519
 6	1.9572839933	-0.6816694521	-2.6280191519
 6	1.8852839933	-1.1056694521	-0.2710191519
 6	3.0802839933	0.1163305479	-2.4520191519
 6	3.0062839933	-0.3036694521	-0.0880191519
 6	3.6182839933	0.2973305479	-1.1780191519
 1	0.4932839933	-1.9216694521	-1.6840191519
 1	1.5512839933	-0.8346694521	-3.6170191519
 1	1.4212839933	-1.5826694521	0.5809808481
 1	3.5402839933	0.5883305479	-3.3090191519
 1	3.4022839933	-0.1556694521	0.9049808481
 1	5.5502839933	0.9593305479	-1.7560191519
 1	5.2812839933	0.8963305479	-0.0220191519
 1	4.5845999933	2.2414005479	-0.9553191519
$end
$rem
EDA2		1
METHOD		WB97X-V
BASIS		DEF2-TZVPD
XC_GRID		000099000590
NL_GRID		1
UNRESTRICTED		FALSE
MAX_SCF_CYCLES		200
SYMMETRY		FALSE
SYM_IGNORE		TRUE
BASIS_LIN_DEP_THRESH		6
THRESH		14
SCF_CONVERGENCE		8
SCF_PRINT_FRGM		TRUE
SOLVENT_METHOD		SMD
!required keywords
JOBTYPE		SP
SYM_IGNORE		TRUE
SUBSYSTEM		TRUE
GEN_SCFMAN		TRUE
CHILD_INSTRUCTION		2
SYM_IGNORE		TRUE
SCFMI		0
RI_K 0		
PARI_K 0		
MIN_PARI_K 0		
IARI_K 0		
OCC_RI_K 0		
PURECART		1111
MEM_STATIC		2000
MEM_TOTAL		96000
GUI		0
CHILD_MP		1
CHILD_MP_ORDERS		232
FRZ_RELAX		0
FRZ_RELAX_METHOD		0
EDA_CLS_ELEC		1
EDA_CLS_DISP		0
FRZ_ORTHO_DECOMP		1
EDA2		FALSE
FRGM_METHOD		FALSE
CIS_N_ROOTS  0
LOCAL_CIS    0
CIS_RLX_DNS  1
$end
$smx
SOLVENT			WATER
$end
--------------------------------------------------------------
 ----------------------------------------------------------------
             Standard Nuclear Orientation (Angstroms)
    I     Atom           X                Y                Z
 ----------------------------------------------------------------
    1      C       4.8212839933     1.1673305479    -0.9740191519
    2      C       1.3612839933    -1.2926694521    -1.5430191519
    3      C       1.9572839933    -0.6816694521    -2.6280191519
    4      C       1.8852839933    -1.1056694521    -0.2710191519
    5      C       3.0802839933     0.1163305479    -2.4520191519
    6      C       3.0062839933    -0.3036694521    -0.0880191519
    7      C       3.6182839933     0.2973305479    -1.1780191519
    8      H       0.4932839933    -1.9216694521    -1.6840191519
    9      H       1.5512839933    -0.8346694521    -3.6170191519
   10      H       1.4212839933    -1.5826694521     0.5809808481
   11      H       3.5402839933     0.5883305479    -3.3090191519
   12      H       3.4022839933    -0.1556694521     0.9049808481
   13      H       5.5502839933     0.9593305479    -1.7560191519
   14      H       5.2812839933     0.8963305479    -0.0220191519
   15      H       4.5845999933     2.2414005479    -0.9553191519
 ----------------------------------------------------------------
 Nuclear Repulsion Energy =         270.64238723 hartrees
 There are       25 alpha and       25 beta electrons
 Requested basis set is def2-TZVPD
 There are 131 shells and 331 basis functions

 Total QAlloc Memory Limit  96000 MB
 Mega-Array Size      1956 MB
 MEM_STATIC part      2000 MB
 
 Citation of the SMD model:
 Marenich, A.V.; Cramer, C.J.; Truhlar, D.G.
 J. Phys. Chem. B 2009, 113, 6378-6396.
 iSolventCode=           1
 Solvent: water                                                           
 
 vradii
            1           2           3           4           5           6
    1   1.8500000   1.8500000   1.8500000   1.8500000   1.8500000   1.8500000
            7           8           9          10          11          12
    1   1.8500000   1.2000000   1.2000000   1.2000000   1.2000000   1.2000000
           13          14          15
    1   1.2000000   1.2000000   1.2000000
 Changing PCM_VDW_RADII to SMD_RADIUS
 Discretize the solute cavity surface with Lebedev spheres
	Using 110 Lebedev grid points for each H atom
	Using 194 Lebedev grid points for other atoms
	Atomic van der Waals radii will be scaled by 1.20
 Remove points where switching function is < 1.0e-08
 Keep 1092 surface tesserae and discard 1146 interior tesserae
 Molecular Surface Area = 131.755 Angst**2

                       Distance Matrix (Angstroms)
             C (  1)   C (  2)   C (  3)   C (  4)   C (  5)   C (  6)
   C (  2)  4.283335
   C (  3)  3.789065  1.380493
   C (  4)  3.778999  1.388355  2.395915
   C (  5)  2.513994  2.401359  1.388852  2.770933
   C (  6)  2.498612  2.408562  2.773966  1.390444  2.402160
   C (  7)  1.498574  2.784847  2.412439  2.407145  1.394733  1.387027
   H (  8)  5.364476  1.081178  2.138231  2.144782  3.381691  3.388260
   H (  9)  4.656861  2.132449  1.079984  3.373531  2.144637  3.853937
   H ( 10)  4.641177  2.144546  3.375911  1.081078  3.852009  2.143741
   H ( 11)  2.725514  3.377123  2.140689  3.852026  1.081126  3.384621
   H ( 12)  2.700839  3.383955  3.853153  2.141673  3.383359  1.079245
   H ( 13)  1.089141  4.760735  4.045110  4.461129  2.701104  3.293832
   H ( 14)  1.091488  4.740418  4.508913  3.950041  3.370119  2.572932
   H ( 15)  1.099998  4.819212  4.271423  4.354015  3.003165  3.117799
             C (  7)   H (  8)   H (  9)   H ( 10)   H ( 11)   H ( 12)
   H (  8)  3.865957
   H (  9)  3.391553  2.457117
   H ( 10)  3.384566  2.471099  4.266100
   H ( 11)  2.152191  4.269067  2.464937  4.933103
   H ( 12)  2.142604  4.275975  4.933125  2.462857  4.281399
   H ( 13)  2.122487  5.820532  4.761697  5.382562  2.567012  3.596950
   H ( 14)  2.112038  5.798992  5.461986  4.626948  3.732334  2.344499
   H ( 15)  2.182377  5.882263  5.074235  5.195219  3.059925  3.256460
             H ( 13)   H ( 14)
   H ( 14)  1.755872
   H ( 15)  1.793703  1.779222
 
 A cutoff of  1.0D-14 yielded   8362 shell pairs
 There are     54512 function pairs (     69469 Cartesian)
 Smallest overlap matrix eigenvalue = 5.39E-07
 Linear dependence detected in AO basis
 Tighter screening thresholds may be required for diffuse basis sets
 Use S2THRESH > 14 and THRESH = 14 in case of SCF convergence issues
 Number of orthogonalized atomic orbitals = 330
 Maximum deviation from orthogonality = 1.812E-10

 Scale SEOQF with 1.000000e-02/1.000000e-01/1.000000e-01

 Standard Electronic Orientation quadrupole field applied
 Nucleus-field energy     =    -0.0000000100 hartrees
 Guess from superposition of atomic densities
 Warning:  Energy on first SCF cycle will be non-variational
 SAD guess density has 49.913408 electrons

 -----------------------------------------------------------------------
  General SCF calculation program by
  Eric Jon Sundstrom, Paul Horn, Yuezhi Mao, Dmitri Zuev, Alec White,
  David Stuck, Shaama M.S., Shane Yost, Joonho Lee, David Small,
  Daniel Levine, Susi Lehtola, Hugh Burton, Evgeny Epifanovsky
 -----------------------------------------------------------------------
 Exchange:     0.1670 Hartree-Fock + 1.0000 wB97X-V + LR-HF
 Correlation:  1.0000 wB97X-V
 Using Euler-Maclaurin-Lebedev (99,590) quadrature formula
 Nonlocal Correlation:  VV10 with C = 0.0100 and b = 6.00 and scale = 1.00000
 Grid used for NLC:  SG-1 standard quadrature
Energy prior to optimization (guess energy) = -271.518571644299
Begin Timing: Total SCF Calculation
begin iterations for algorithm: DIIS         
the SCF tolerance is set to 1.00e-08
    1    -271.5185716443      1.99e-03     00000 
    2    -271.5600712282      1.30e-03     00000 
    3    -271.5847739864      1.56e-04     00000 
    4    -271.5854662666      4.72e-05     00000 
    5    -271.5855177741      2.13e-05     00000 
    6    -271.5855254018      5.12e-06     00000 
    7    -271.5855260872      9.88e-07     00000 
    8    -271.5855261119      3.83e-07     00000 
    9    -271.5855261151      9.44e-08     00000 
   10    -271.5855261154      2.42e-08     00000 
   11    -271.5855261154      1.05e-08     00000 
   12    -271.5855261154      5.88e-09     00000 Convergence criterion met
Timing for Total SCF: 1259.00s (wall), 2497.55s (cpu)
(3)  G-ENP(liq) elect-nuc-pol free energy of system     -271.585526115 a.u.
(4)  G-CDS(liq) cavity-dispersion-solvent structure 
     free energy                                                3.1473 kcal/mol
(6)  G-S(liq) free energy of system                     -271.580510610 a.u.
E_pcm = -0.0073408223
E_cds = 0.0050155050
Multipole orders to be included
        2
        3
computing dipole RHS
computing quadrupole RHS
total number of RHS in solve_reponses: 8
RHS batch sizes
        8
Beginning Block Conjugate Gradient Iterations. Batch Number: 0
computing hessian-vector products by finite difference
              1      6.31e-01     00000 Conjugate Gradient Iteration
computing hessian-vector products by finite difference
              2      1.99e-01     00000 Conjugate Gradient Iteration
computing hessian-vector products by finite difference
              3      4.71e-02     00000 Conjugate Gradient Iteration
computing hessian-vector products by finite difference
              4      1.15e-02     00000 Conjugate Gradient Iteration
computing hessian-vector products by finite difference
              5      2.65e-03     00000 Conjugate Gradient Iteration
computing hessian-vector products by finite difference
              6      7.67e-04     00000 Conjugate Gradient Iteration
computing hessian-vector products by finite difference
              7      1.54e-04     00000 Conjugate Gradient Iteration
computing hessian-vector products by finite difference
              8      2.50e-05     00000 Conjugate Gradient Iteration
computing hessian-vector products by finite difference
              9      3.47e-06     00000 Conjugate Gradient Iteration
computing hessian-vector products by finite difference
             10      7.06e-07     00000 Conjugate Gradient Iteration
computing hessian-vector products by finite difference
             11      1.27e-07     00000 Conjugate Gradient Iteration
computing hessian-vector products by finite difference
             12      1.77e-08     00000 Conjugate Gradient Iteration
computing hessian-vector products by finite difference
             13      2.97e-09     00000 CG Converged
batch 0 complete
Done Calculating Responses
TESTING ORTHOGONALIZATION OF MULTIPOLE BASIS
Multipole virts passed orthogonality test
Virts Per Order
           75
          125
 
 --------------------------------------------------------------
 
                    Orbital Energies (a.u.)
 --------------------------------------------------------------
 
 Alpha MOs
 -- Occupied --
-10.2755 -10.2667 -10.2658 -10.2635 -10.2629 -10.2625 -10.2526  -0.9952
 -0.9033  -0.8751  -0.8072  -0.7257  -0.6999  -0.6247  -0.5696  -0.5596
 -0.5303  -0.5243  -0.5083  -0.4789  -0.4706  -0.4350  -0.4342  -0.3468
 -0.3351
 -- Virtual --
  0.0672   0.0683   0.0736   0.0845   0.0898   0.1097   0.1159   0.1181
  0.1409   0.1584   0.1708   0.1748   0.1918   0.1954   0.2002   0.2075
  0.2279   0.2315   0.2399   0.2457   0.2544   0.2637   0.2665   0.2777
  0.2832   0.2874   0.2900   0.2976   0.3003   0.3069   0.3083   0.3169
  0.3246   0.3295   0.3356   0.3412   0.3567   0.3585   0.3716   0.3791
  0.3839   0.3877   0.3909   0.3944   0.3966   0.4057   0.4082   0.4130
  0.4182   0.4338   0.4358   0.4413   0.4467   0.4534   0.4571   0.4578
  0.4697   0.4761   0.4799   0.4875   0.4987   0.5025   0.5183   0.5218
  0.5246   0.5309   0.5396   0.5421   0.5487   0.5535   0.5564   0.5708
  0.5872   0.5921   0.6014   0.6022   0.6058   0.6260   0.6442   0.6488
  0.6685   0.6805   0.6840   0.6902   0.6930   0.7048   0.7269   0.7295
  0.7343   0.7357   0.7483   0.7641   0.7688   0.7715   0.7814   0.7896
  0.7974   0.8008   0.8053   0.8068   0.8131   0.8278   0.8309   0.8381
  0.8413   0.8420   0.8510   0.8598   0.8628   0.8774   0.8947   0.8983
  0.9157   0.9250   0.9375   0.9522   0.9551   1.0145   1.0328   1.0459
  1.0515   1.0652   1.0768   1.0818   1.0953   1.0982   1.1077   1.1485
  1.1698   1.1818   1.2611   1.2813   1.3020   1.3294   1.3538   1.3600
  1.3839   1.4432   1.4542   1.4658   1.4687   1.4883   1.5351   1.5479
  1.6059   1.6119   1.6275   1.6310   1.6709   1.6835   1.7461   1.7837
  1.7961   1.8059   1.8104   1.8232   1.8358   1.8721   1.8905   1.9159
  1.9242   1.9371   1.9528   1.9703   1.9921   2.0003   2.0172   2.0293
  2.0409   2.0510   2.0751   2.0991   2.1169   2.1287   2.1787   2.1872
  2.2032   2.2385   2.2540   2.2777   2.2938   2.3177   2.3974   2.4087
  2.4133   2.4196   2.4831   2.5164   2.5466   2.5605   2.5735   2.6066
  2.6289   2.6414   2.6730   2.6811   2.7029   2.7142   2.7669   2.7824
  2.7945   2.8235   2.8267   2.8567   2.8698   2.9061   2.9166   2.9208
  2.9436   2.9453   2.9765   2.9856   2.9987   3.0189   3.0240   3.0595
  3.0704   3.0954   3.1082   3.1425   3.1824   3.1926   3.2061   3.2262
  3.2372   3.2508   3.2949   3.3057   3.3499   3.3634   3.3725   3.3854
  3.4079   3.4462   3.4524   3.4585   3.4675   3.4833   3.4946   3.5091
  3.5150   3.5397   3.5464   3.5532   3.5684   3.5840   3.5913   3.6112
  3.6342   3.6399   3.6677   3.7028   3.7213   3.7598   3.7853   3.8202
  3.8580   3.9025   3.9200   3.9674   3.9753   4.0031   4.0492   4.0655
  4.1247   4.2116   4.2789   4.2913   4.3025   4.3234   4.3343   4.3461
  4.3617   4.3799   4.4056   4.4153   4.4467   4.4624   4.4937   4.5453
  4.6113   4.6371   4.7695   4.7900   4.8423   4.8925   4.9118   4.9524
  5.0388   5.0612   5.1796   5.2775   5.3909   5.4038   5.5133   5.5428
  5.6840   5.8570  22.5791  22.6890  22.9068  22.9201  23.0287  23.1055
 23.4459
 --------------------------------------------------------------
 
          Ground-State Mulliken Net Atomic Charges

     Atom                 Charge (a.u.)
  ----------------------------------------
      1 C                    -1.079488
      2 C                    -0.549521
      3 C                    -0.537102
      4 C                    -0.571060
      5 C                    -0.393095
      6 C                    -0.438287
      7 C                     0.828097
      8 H                     0.397491
      9 H                     0.372135
     10 H                     0.370245
     11 H                     0.401540
     12 H                     0.377112
     13 H                     0.282576
     14 H                     0.296534
     15 H                     0.242823
  ----------------------------------------
  Sum of atomic charges =     0.000000

 -----------------------------------------------------------------
                    Cartesian Multipole Moments
 -----------------------------------------------------------------
    Charge (ESU x 10^10)
                 0.0000
    Dipole Moment (Debye)
         X       0.4237      Y       0.3035      Z       0.0675
       Tot       0.5255
    Quadrupole Moments (Debye-Ang)
        XX     -38.2372     XY       4.9725     YY     -43.2192
        XZ       0.3086     YZ      -1.2052     ZZ     -37.8606
    Octopole Moments (Debye-Ang^2)
       XXX    -340.6331    XXY      30.3289    XYY    -128.1314
       YYY      32.1070    XXZ      52.8395    XYZ      -9.1142
       YYZ      57.1708    XZZ    -110.8754    YZZ       9.6055
       ZZZ     146.2653
    Hexadecapole Moments (Debye-Ang^3)
      XXXX   -2405.9541   XXXY      25.7777   XXYY    -485.8056
      XYYY     -32.4625   YYYY    -267.8287   XXXZ     424.0868
      XXYZ     -47.3823   XYYZ     158.5991   YYYZ     -42.1376
      XXZZ    -505.5054   XYZZ       0.2341   YYZZ    -171.9447
      XZZZ     405.7453   YZZZ     -36.5864   ZZZZ    -657.5596
 -----------------------------------------------------------------
Archival summary:
1\1\nid00567\SP\ProcedureUnspecified\BasisUnspecified\78\meili\TueSep2816:56:482021TueSep2816:56:482021\0\\#,ProcedureUnspecified,BasisUnspecified,\\0,1\C\C,1,1.38703\H,2,1.07924,1,120.115\C,2,1.39044,1,120.147,3,-179.606,0\H,4,1.08108,2,119.789,1,179.129,0\C,4,1.38835,2,120.169,1,-0.962339,0\H,6,1.08118,4,120.056,2,179.615,0\C,6,1.38049,4,119.836,2,0.100101,0\H,8,1.07998,6,119.652,4,179.579,0\C,8,1.38885,6,120.251,4,0.150408,0\H,10,1.08113,8,119.632,6,179.869,0\C,1,1.49857,2,119.919,3,-0.759827,0\H,12,1.08914,1,109.19,2,138.479,0\H,12,1.09149,1,108.235,2,22.0253,0\H,12,1.1,1,113.357,2,-98.4588,0\\\@

 Total job time:  25596.55s(wall), 50284.69s(cpu) 
 Tue Sep 28 16:56:51 2021

        *************************************************************
        *                                                           *
        *  Thank you very much for using Q-Chem.  Have a nice day.  *
        *                                                           *
        *************************************************************


Done Job For Fragment 0
calling putenv with: QCSCRATCH=/global/cscratch1/sd/meili 
calling putenv with: QCLOCALSCR=/tmp 
calling putenv with: QCTHREADS=32 
Creating input file /tmp/qchem38289/Frg2.input
using default PutDataFrgm: nothing
calling putenv with: QCSCRATCH=/tmp/qchem38289/ 
calling putenv with: QCLOCALSCR=/tmp/qchem38289/ 
Spawning Job For Fragment 1
                  Welcome to Q-Chem
     A Quantum Leap Into The Future Of Chemistry


 Q-Chem 5.2, Q-Chem, Inc., Pleasanton, CA (2019)

 License issued to: National Energy Research Scientific Computing Center

 Yihan Shao,  Zhengting Gan,  E. Epifanovsky,  A. T. B. Gilbert,  M. Wormit,  
 J. Kussmann,  A. W. Lange,  A. Behn,  Jia Deng,  Xintian Feng,  D. Ghosh,  
 M. Goldey,  P. R. Horn,  L. D. Jacobson,  I. Kaliman,  T. Kus,  A. Landau,  
 Jie Liu,  E. I. Proynov,  R. M. Richard,  R. P. Steele,  E. J. Sundstrom,  
 H. L. Woodcock III,  P. M. Zimmerman,  D. Zuev,  B. Albrecht,  E. Alguire,  
 S. A. Baeppler,  D. Barton,  Z. Benda,  Y. A. Bernard,  E. J. Berquist,  
 K. B. Bravaya,  H. Burton,  D. Casanova,  Chun-Min Chang,  Yunqing Chen,  
 A. Chien,  K. D. Closser,  M. P. Coons,  S. Coriani,  S. Dasgupta,  
 A. L. Dempwolff,  M. Diedenhofen,  Hainam Do,  R. G. Edgar,  Po-Tung Fang,  
 S. Faraji,  S. Fatehi,  Qingguo Feng,  K. D. Fenk,  J. Fosso-Tande,  
 J. Gayvert,  Qinghui Ge,  A. Ghysels,  G. Gidofalvi,  J. Gomes,  
 J. Gonthier,  A. Gunina,  D. Hait,  M. W. D. Hanson-Heine,  
 P. H. P. Harbach,  A. W. Hauser,  M. F. Herbst,  J. E. Herr,  
 E. G. Hohenstein,  Z. C. Holden,  Kerwin Hui,  B. C. Huynh,  T.-C. Jagau,  
 Hyunjun Ji,  B. Kaduk,  K. Khistyaev,  Jaehoon Kim,  P. Klunzinger,  K. Koh,  
 D. Kosenkov,  L. Koulias,  T. Kowalczyk,  C. M. Krauter,  A. Kunitsa,  
 Ka Un Lao,  A. Laurent,  K. V. Lawler,  Joonho Lee,  D. Lefrancois,  
 S. Lehtola,  D. S. Levine,  Yi-Pei Li,  You-Sheng Lin,  Fenglai Liu,  
 E. Livshits,  A. Luenser,  P. Manohar,  E. Mansoor,  S. F. Manzer,  
 Shan-Ping Mao,  Yuezhi Mao,  N. Mardirossian,  A. V. Marenich,  
 T. Markovich,  L. A. Martinez-Martinez,  S. A. Maurer,  N. J. Mayhall,  
 S. C. McKenzie,  J.-M. Mewes,  P. Morgante,  A. F. Morrison,  
 J. W. Mullinax,  K. Nanda,  T. S. Nguyen-Beck,  R. Olivares-Amaya,  
 J. A. Parkhill,  Zheng Pei,  T. M. Perrine,  F. Plasser,  P. Pokhilko,  
 S. Prager,  A. Prociuk,  E. Ramos,  D. R. Rehn,  F. Rob,  M. Scheurer,  
 M. Schneider,  N. Sergueev,  S. M. Sharada,  S. Sharma,  D. W. Small,  
 T. Stauch,  T. Stein,  Yu-Chuan Su,  A. J. W. Thom,  A. Tkatchenko,  
 T. Tsuchimochi,  N. M. Tubman,  L. Vogt,  M. L. Vidal,  O. Vydrov,  
 M. A. Watson,  J. Wenzel,  M. de Wergifosse,  T. A. Wesolowski,  A. White,  
 J. Witte,  A. Yamada,  Jun Yang,  K. Yao,  S. Yeganeh,  S. R. Yost,  
 Zhi-Qiang You,  A. Zech,  Igor Ying Zhang,  Xing Zhang,  Yan Zhao,  
 Ying Zhu,  B. R. Brooks,  G. K. L. Chan,  C. J. Cramer,  M. S. Gordon,  
 W. J. Hehre,  A. Klamt,  M. W. Schmidt,  C. D. Sherrill,  D. G. Truhlar,  
 A. Aspuru-Guzik,  R. Baer,  A. T. Bell,  N. A. Besley,  Jeng-Da Chai,  
 A. E. DePrince, III,  R. A. DiStasio Jr.,  A. Dreuw,  B. D. Dunietz,  
 T. R. Furlani,  Chao-Ping Hsu,  Yousung Jung,  Jing Kong,  D. S. Lambrecht,  
 WanZhen Liang,  C. Ochsenfeld,  V. A. Rassolov,  L. V. Slipchenko,  
 J. E. Subotnik,  T. Van Voorhis,  J. M. Herbert,  A. I. Krylov,  
 P. M. W. Gill,  M. Head-Gordon

 Contributors to earlier versions of Q-Chem not listed above: 
 R. D. Adamson,  B. Austin,  J. Baker,  G. J. O. Beran,  K. Brandhorst,  
 S. T. Brown,  E. F. C. Byrd,  A. K. Chakraborty,  C.-L. Cheng,  
 Siu Hung Chien,  D. M. Chipman,  D. L. Crittenden,  H. Dachsel,  
 R. J. Doerksen,  A. D. Dutoi,  L. Fusti-Molnar,  W. A. Goddard III,  
 A. Golubeva-Zadorozhnaya,  S. R. Gwaltney,  G. Hawkins,  A. Heyden,  
 S. Hirata,  G. Kedziora,  F. J. Keil,  C. Kelley,  Jihan Kim,  R. A. King,  
 R. Z. Khaliullin,  P. P. Korambath,  W. Kurlancheek,  A. M. Lee,  M. S. Lee,  
 S. V. Levchenko,  Ching Yeh Lin,  D. Liotard,  R. C. Lochan,  I. Lotan,  
 P. E. Maslen,  N. Nair,  D. P. O'Neill,  D. Neuhauser,  E. Neuscamman,  
 C. M. Oana,  R. Olson,  B. Peters,  R. Peverati,  P. A. Pieniazek,  
 Y. M. Rhee,  J. Ritchie,  M. A. Rohrdanz,  E. Rosta,  N. J. Russ,  
 H. F. Schaefer III,  N. E. Schultz,  N. Shenvi,  A. C. Simmonett,  A. Sodt,  
 D. Stuck,  K. S. Thanthiriwatte,  V. Vanovschi,  Tao Wang,  A. Warshel,  
 C. F. Williams,  Q. Wu,  X. Xu,  W. Zhang

 Please cite Q-Chem as follows:
 Y. Shao et al., Mol. Phys. 113, 184-215 (2015)
 DOI: 10.1080/00268976.2014.952696

 Q-Chem 5.2.0 for Intel X86 EM64T Linux

 Parts of Q-Chem use Armadillo 8.300.2 (Tropical Shenanigans).
 http://arma.sourceforge.net/

 Q-Chem begins on Tue Sep 28 16:56:54 2021  

Host: cori09
0

     Scratch files written to /tmp/qchem38289//Frg2//
 May1019 |scratch|qcdevops|jenkins|workspace|build_RNUM -1
Processing $rem in /global/common/cori/software/qchem/5.2/config/preferences:
	 MEM_TOTAL  96000 
NAlpha2: 50
NElect   50
Mult     1
Symmetry turned off for PCM/SM12/SMD calculation

Checking the input file for inconsistencies... 	...done.

--------------------------------------------------------------
User input:
--------------------------------------------------------------
$molecule
0 1
 6	-4.0297160067	0.2653305479	3.4389808481
 6	-1.9357160067	0.2313305479	-0.3100191519
 6	-1.6807160067	-0.7416694521	0.6329808481
 6	-2.8887160067	1.1993305479	-0.0490191519
 6	-2.3737160067	-0.7486694521	1.8379808481
 6	-3.5827160067	1.2023305479	1.1609808481
 6	-3.3437160067	0.2163305479	2.1069808481
 1	-1.3887160067	0.2493305479	-1.2430191519
 1	-0.9457160067	-1.5066694521	0.4329808481
 1	-3.1037160067	1.9503305479	-0.7960191519
 1	-2.1627160067	-1.5216694521	2.5609808481
 1	-4.3217160067	1.9593305479	1.3509808481
 1	-4.1807160067	-0.7526694521	3.8009808481
 1	-5.0167160067	0.7163305479	3.3239808481
 1	-3.4540720067	0.8388205479	4.1804308481
$end
$rem
EDA2		1
METHOD		WB97X-V
BASIS		DEF2-TZVPD
XC_GRID		000099000590
NL_GRID		1
UNRESTRICTED		FALSE
MAX_SCF_CYCLES		200
SYMMETRY		FALSE
SYM_IGNORE		TRUE
BASIS_LIN_DEP_THRESH		6
THRESH		14
SCF_CONVERGENCE		8
SCF_PRINT_FRGM		TRUE
SOLVENT_METHOD		SMD
!required keywords
JOBTYPE		SP
SYM_IGNORE		TRUE
SUBSYSTEM		TRUE
GEN_SCFMAN		TRUE
CHILD_INSTRUCTION		2
SYM_IGNORE		TRUE
SCFMI		0
RI_K 0		
PARI_K 0		
MIN_PARI_K 0		
IARI_K 0		
OCC_RI_K 0		
PURECART		1111
MEM_STATIC		2000
MEM_TOTAL		96000
GUI		0
CHILD_MP		1
CHILD_MP_ORDERS		232
FRZ_RELAX		0
FRZ_RELAX_METHOD		0
EDA_CLS_ELEC		1
EDA_CLS_DISP		0
FRZ_ORTHO_DECOMP		1
EDA2		FALSE
FRGM_METHOD		FALSE
CIS_N_ROOTS  0
LOCAL_CIS    0
CIS_RLX_DNS  1
$end
$smx
SOLVENT			WATER
$end
--------------------------------------------------------------
 ----------------------------------------------------------------
             Standard Nuclear Orientation (Angstroms)
    I     Atom           X                Y                Z
 ----------------------------------------------------------------
    1      C      -4.0297160067     0.2653305479     3.4389808481
    2      C      -1.9357160067     0.2313305479    -0.3100191519
    3      C      -1.6807160067    -0.7416694521     0.6329808481
    4      C      -2.8887160067     1.1993305479    -0.0490191519
    5      C      -2.3737160067    -0.7486694521     1.8379808481
    6      C      -3.5827160067     1.2023305479     1.1609808481
    7      C      -3.3437160067     0.2163305479     2.1069808481
    8      H      -1.3887160067     0.2493305479    -1.2430191519
    9      H      -0.9457160067    -1.5066694521     0.4329808481
   10      H      -3.1037160067     1.9503305479    -0.7960191519
   11      H      -2.1627160067    -1.5216694521     2.5609808481
   12      H      -4.3217160067     1.9593305479     1.3509808481
   13      H      -4.1807160067    -0.7526694521     3.8009808481
   14      H      -5.0167160067     0.7163305479     3.3239808481
   15      H      -3.4540720067     0.8388205479     4.1804308481
 ----------------------------------------------------------------
 Nuclear Repulsion Energy =         270.61565033 hartrees
 There are       25 alpha and       25 beta electrons
 Requested basis set is def2-TZVPD
 There are 131 shells and 331 basis functions

 Total QAlloc Memory Limit  96000 MB
 Mega-Array Size      1956 MB
 MEM_STATIC part      2000 MB
 
 Citation of the SMD model:
 Marenich, A.V.; Cramer, C.J.; Truhlar, D.G.
 J. Phys. Chem. B 2009, 113, 6378-6396.
 iSolventCode=           1
 Solvent: water                                                           
 
 vradii
            1           2           3           4           5           6
    1   1.8500000   1.8500000   1.8500000   1.8500000   1.8500000   1.8500000
            7           8           9          10          11          12
    1   1.8500000   1.2000000   1.2000000   1.2000000   1.2000000   1.2000000
           13          14          15
    1   1.2000000   1.2000000   1.2000000
 Changing PCM_VDW_RADII to SMD_RADIUS
 Discretize the solute cavity surface with Lebedev spheres
	Using 110 Lebedev grid points for each H atom
	Using 194 Lebedev grid points for other atoms
	Atomic van der Waals radii will be scaled by 1.20
 Remove points where switching function is < 1.0e-08
 Keep 1049 surface tesserae and discard 1189 interior tesserae
 Molecular Surface Area = 131.805 Angst**2

                       Distance Matrix (Angstroms)
             C (  1)   C (  2)   C (  3)   C (  4)   C (  5)   C (  6)
   C (  2)  4.294298
   C (  3)  3.795456  1.378769
   C (  4)  3.786870  1.383240  2.385764
   C (  5)  2.516691  2.401280  1.390080  2.760561
   C (  6)  2.503410  2.412321  2.770474  1.394900  2.392992
   C (  7)  1.499073  2.797245  2.419919  2.412810  1.394448  1.387167
   H (  8)  5.375524  1.081676  2.141663  2.139658  3.385083  3.391321
   H (  9)  4.656938  2.133727  1.079560  3.366008  2.141909  3.849991
   H ( 10)  4.651013  2.134334  3.363604  1.080849  3.841283  2.149138
   H ( 11)  2.729458  3.371525  2.134926  3.839664  1.079249  3.375882
   H ( 12)  2.704560  3.381997  3.845232  2.142683  3.371222  1.074835
   H ( 13)  1.090949  4.786293  4.035634  4.505782  2.668077  3.339046
   H ( 14)  1.091236  4.788919  4.527266  4.017313  3.367472  2.640288
   H ( 15)  1.100002  4.778974  4.269326  4.282271  3.028922  3.043972
             C (  7)   H (  8)   H (  9)   H ( 10)   H ( 11)   H ( 12)
   H (  8)  3.878868
   H (  9)  3.394320  2.467541
   H ( 10)  3.389951  2.456509  4.256554
   H ( 11)  2.149772  4.266841  2.451469  4.920337
   H ( 12)  2.136836  4.272637  4.924759  2.468444  4.271152
   H ( 13)  2.123480  5.851598  4.730451  5.440455  2.490238  3.657503
   H ( 14)  2.128384  5.851321  5.465588  4.707093  3.706228  2.433270
   H ( 15)  2.167687  5.833267  5.082967  5.111092  3.140403  3.164512
             H ( 13)   H ( 14)
   H ( 14)  1.756242
   H ( 15)  1.790205  1.786160
 
 A cutoff of  1.0D-14 yielded   8361 shell pairs
 There are     54523 function pairs (     69485 Cartesian)
 Smallest overlap matrix eigenvalue = 5.38E-07
 Linear dependence detected in AO basis
 Tighter screening thresholds may be required for diffuse basis sets
 Use S2THRESH > 14 and THRESH = 14 in case of SCF convergence issues
 Number of orthogonalized atomic orbitals = 330
 Maximum deviation from orthogonality = 2.791E-10

 Scale SEOQF with 1.000000e-01/1.000000e-01/1.000000e-01

 Standard Electronic Orientation quadrupole field applied
 Nucleus-field energy     =    -0.0000000005 hartrees
 Guess from superposition of atomic densities
 Warning:  Energy on first SCF cycle will be non-variational
 SAD guess density has 49.913408 electrons

 -----------------------------------------------------------------------
  General SCF calculation program by
  Eric Jon Sundstrom, Paul Horn, Yuezhi Mao, Dmitri Zuev, Alec White,
  David Stuck, Shaama M.S., Shane Yost, Joonho Lee, David Small,
  Daniel Levine, Susi Lehtola, Hugh Burton, Evgeny Epifanovsky
 -----------------------------------------------------------------------
 Exchange:     0.1670 Hartree-Fock + 1.0000 wB97X-V + LR-HF
 Correlation:  1.0000 wB97X-V
 Using Euler-Maclaurin-Lebedev (99,590) quadrature formula
 Nonlocal Correlation:  VV10 with C = 0.0100 and b = 6.00 and scale = 1.00000
 Grid used for NLC:  SG-1 standard quadrature
Energy prior to optimization (guess energy) = -271.518559555779
Begin Timing: Total SCF Calculation
begin iterations for algorithm: DIIS         
the SCF tolerance is set to 1.00e-08
    1    -271.5185595558      1.99e-03     00000 
    2    -271.5600151170      1.30e-03     00000 
    3    -271.5846763548      1.55e-04     00000 
    4    -271.5853611373      4.68e-05     00000 
    5    -271.5854118836      2.10e-05     00000 
    6    -271.5854194248      5.13e-06     00000 
    7    -271.5854201066      1.22e-06     00000 
    8    -271.5854201370      4.40e-07     00000 
    9    -271.5854201415      1.06e-07     00000 
   10    -271.5854201418      2.85e-08     00000 
   11    -271.5854201418      1.45e-08     00000 
   12    -271.5854201418      3.98e-09     00000 Convergence criterion met
Timing for Total SCF: 1256.00s (wall), 2475.24s (cpu)
(3)  G-ENP(liq) elect-nuc-pol free energy of system     -271.585420142 a.u.
(4)  G-CDS(liq) cavity-dispersion-solvent structure 
     free energy                                                3.1437 kcal/mol
(6)  G-S(liq) free energy of system                     -271.580410354 a.u.
E_pcm = -0.0072598327
E_cds = 0.0050097877
Multipole orders to be included
        2
        3
computing dipole RHS
computing quadrupole RHS
total number of RHS in solve_reponses: 8
RHS batch sizes
        8
Beginning Block Conjugate Gradient Iterations. Batch Number: 0
computing hessian-vector products by finite difference
              1      6.04e-01     00000 Conjugate Gradient Iteration
computing hessian-vector products by finite difference
              2      1.79e-01     00000 Conjugate Gradient Iteration
computing hessian-vector products by finite difference
