
Running Job 1 of 1 SSI-013GLU-039ARG-1_PCM_TZVPD.in
qchem SSI-013GLU-039ARG-1_PCM_TZVPD.in_14641.0 /tmp/qchem14641/ 0
/global/common/cori/software/qchem/5.2/exe/qcprog.exe_s SSI-013GLU-039ARG-1_PCM_TZVPD.in_14641.0 /tmp/qchem14641/
                  Welcome to Q-Chem
     A Quantum Leap Into The Future Of Chemistry


 Q-Chem 5.2, Q-Chem, Inc., Pleasanton, CA (2019)

 License issued to: National Energy Research Scientific Computing Center

 Yihan Shao,  Zhengting Gan,  E. Epifanovsky,  A. T. B. Gilbert,  M. Wormit,  
 J. Kussmann,  A. W. Lange,  A. Behn,  Jia Deng,  Xintian Feng,  D. Ghosh,  
 M. Goldey,  P. R. Horn,  L. D. Jacobson,  I. Kaliman,  T. Kus,  A. Landau,  
 Jie Liu,  E. I. Proynov,  R. M. Richard,  R. P. Steele,  E. J. Sundstrom,  
 H. L. Woodcock III,  P. M. Zimmerman,  D. Zuev,  B. Albrecht,  E. Alguire,  
 S. A. Baeppler,  D. Barton,  Z. Benda,  Y. A. Bernard,  E. J. Berquist,  
 K. B. Bravaya,  H. Burton,  D. Casanova,  Chun-Min Chang,  Yunqing Chen,  
 A. Chien,  K. D. Closser,  M. P. Coons,  S. Coriani,  S. Dasgupta,  
 A. L. Dempwolff,  M. Diedenhofen,  Hainam Do,  R. G. Edgar,  Po-Tung Fang,  
 S. Faraji,  S. Fatehi,  Qingguo Feng,  K. D. Fenk,  J. Fosso-Tande,  
 J. Gayvert,  Qinghui Ge,  A. Ghysels,  G. Gidofalvi,  J. Gomes,  
 J. Gonthier,  A. Gunina,  D. Hait,  M. W. D. Hanson-Heine,  
 P. H. P. Harbach,  A. W. Hauser,  M. F. Herbst,  J. E. Herr,  
 E. G. Hohenstein,  Z. C. Holden,  Kerwin Hui,  B. C. Huynh,  T.-C. Jagau,  
 Hyunjun Ji,  B. Kaduk,  K. Khistyaev,  Jaehoon Kim,  P. Klunzinger,  K. Koh,  
 D. Kosenkov,  L. Koulias,  T. Kowalczyk,  C. M. Krauter,  A. Kunitsa,  
 Ka Un Lao,  A. Laurent,  K. V. Lawler,  Joonho Lee,  D. Lefrancois,  
 S. Lehtola,  D. S. Levine,  Yi-Pei Li,  You-Sheng Lin,  Fenglai Liu,  
 E. Livshits,  A. Luenser,  P. Manohar,  E. Mansoor,  S. F. Manzer,  
 Shan-Ping Mao,  Yuezhi Mao,  N. Mardirossian,  A. V. Marenich,  
 T. Markovich,  L. A. Martinez-Martinez,  S. A. Maurer,  N. J. Mayhall,  
 S. C. McKenzie,  J.-M. Mewes,  P. Morgante,  A. F. Morrison,  
 J. W. Mullinax,  K. Nanda,  T. S. Nguyen-Beck,  R. Olivares-Amaya,  
 J. A. Parkhill,  Zheng Pei,  T. M. Perrine,  F. Plasser,  P. Pokhilko,  
 S. Prager,  A. Prociuk,  E. Ramos,  D. R. Rehn,  F. Rob,  M. Scheurer,  
 M. Schneider,  N. Sergueev,  S. M. Sharada,  S. Sharma,  D. W. Small,  
 T. Stauch,  T. Stein,  Yu-Chuan Su,  A. J. W. Thom,  A. Tkatchenko,  
 T. Tsuchimochi,  N. M. Tubman,  L. Vogt,  M. L. Vidal,  O. Vydrov,  
 M. A. Watson,  J. Wenzel,  M. de Wergifosse,  T. A. Wesolowski,  A. White,  
 J. Witte,  A. Yamada,  Jun Yang,  K. Yao,  S. Yeganeh,  S. R. Yost,  
 Zhi-Qiang You,  A. Zech,  Igor Ying Zhang,  Xing Zhang,  Yan Zhao,  
 Ying Zhu,  B. R. Brooks,  G. K. L. Chan,  C. J. Cramer,  M. S. Gordon,  
 W. J. Hehre,  A. Klamt,  M. W. Schmidt,  C. D. Sherrill,  D. G. Truhlar,  
 A. Aspuru-Guzik,  R. Baer,  A. T. Bell,  N. A. Besley,  Jeng-Da Chai,  
 A. E. DePrince, III,  R. A. DiStasio Jr.,  A. Dreuw,  B. D. Dunietz,  
 T. R. Furlani,  Chao-Ping Hsu,  Yousung Jung,  Jing Kong,  D. S. Lambrecht,  
 WanZhen Liang,  C. Ochsenfeld,  V. A. Rassolov,  L. V. Slipchenko,  
 J. E. Subotnik,  T. Van Voorhis,  J. M. Herbert,  A. I. Krylov,  
 P. M. W. Gill,  M. Head-Gordon

 Contributors to earlier versions of Q-Chem not listed above: 
 R. D. Adamson,  B. Austin,  J. Baker,  G. J. O. Beran,  K. Brandhorst,  
 S. T. Brown,  E. F. C. Byrd,  A. K. Chakraborty,  C.-L. Cheng,  
 Siu Hung Chien,  D. M. Chipman,  D. L. Crittenden,  H. Dachsel,  
 R. J. Doerksen,  A. D. Dutoi,  L. Fusti-Molnar,  W. A. Goddard III,  
 A. Golubeva-Zadorozhnaya,  S. R. Gwaltney,  G. Hawkins,  A. Heyden,  
 S. Hirata,  G. Kedziora,  F. J. Keil,  C. Kelley,  Jihan Kim,  R. A. King,  
 R. Z. Khaliullin,  P. P. Korambath,  W. Kurlancheek,  A. M. Lee,  M. S. Lee,  
 S. V. Levchenko,  Ching Yeh Lin,  D. Liotard,  R. C. Lochan,  I. Lotan,  
 P. E. Maslen,  N. Nair,  D. P. O'Neill,  D. Neuhauser,  E. Neuscamman,  
 C. M. Oana,  R. Olson,  B. Peters,  R. Peverati,  P. A. Pieniazek,  
 Y. M. Rhee,  J. Ritchie,  M. A. Rohrdanz,  E. Rosta,  N. J. Russ,  
 H. F. Schaefer III,  N. E. Schultz,  N. Shenvi,  A. C. Simmonett,  A. Sodt,  
 D. Stuck,  K. S. Thanthiriwatte,  V. Vanovschi,  Tao Wang,  A. Warshel,  
 C. F. Williams,  Q. Wu,  X. Xu,  W. Zhang

 Please cite Q-Chem as follows:
 Y. Shao et al., Mol. Phys. 113, 184-215 (2015)
 DOI: 10.1080/00268976.2014.952696

 Q-Chem 5.2.0 for Intel X86 EM64T Linux

 Parts of Q-Chem use Armadillo 8.300.2 (Tropical Shenanigans).
 http://arma.sourceforge.net/

 Q-Chem begins on Sun Sep 26 03:01:28 2021  

Host: cori01
0

     Scratch files written to /tmp/qchem14641//
 May1019 |scratch|qcdevops|jenkins|workspace|build_RNUM -1
Processing $rem in /global/common/cori/software/qchem/5.2/config/preferences:
	 MEM_TOTAL  96000 
NAlpha2: 72
NElect   72
Mult     1
Symmetry turned off for PCM/SM12/SMD calculation

 Q-Chem warning in module libgen/rem_setup.C, line 2803:

 Neither GIA nor STOLL is specified by user. Use STOLL as the default


Checking the input file for inconsistencies... 	...done.

--------------------------------------------------------------
User input:
--------------------------------------------------------------
$comment
SSI-013GLU-039ARG-1.pdb
$end

$molecule
0 1
--
-1 1
C    1.854611274441    0.069479735961    2.500573636128
C    2.215611274441   -0.927520264039    1.398573636128
O    1.620611274441   -0.837520264039    0.299573636128
O    3.092611274441   -1.792520264039    1.615573636128
H    0.785611274441    0.296479735961    2.472573636128
H    2.395611274441    1.000479735961    2.314573636128
H    2.120641274441   -0.285940264039    3.507004636128
--
1 1
C   -2.686388725559    2.373479735961   -0.625426363872
C   -1.532388725559    0.276479735961   -1.291426363872
N   -0.867388725559    0.227479735961   -0.151426363872
N   -2.389388725559    1.260479735961   -1.538426363872
N   -1.338388725559   -0.664520264039   -2.192426363872
H   -0.969388725559    0.967479735961    0.514573636128
H   -0.053388725559   -0.385520264039   -0.068426363872
H   -2.785388725559    1.308479735961   -2.479426363872
H   -1.807388725559   -0.600520264039   -3.083426363872
H   -0.650388725559   -1.381520264039   -2.028426363872
H   -3.135388725559    3.184479735961   -1.193426363872
H   -1.755388725559    2.781479735961   -0.226426363872
H   -3.331738725559    2.078049735961    0.214959636128
$end

$rem
JOBTYPE			EDA
EDA2			1
method			wB97X-V
BASIS			def2-TZVPD
XC_GRID			000099000590
NL_GRID			1
UNRESTRICTED		FALSE
MAX_SCF_CYCLES		200
SYMMETRY		FALSE
SYM_IGNORE		TRUE
MEM_STATIC		2000
BASIS_LIN_DEP_THRESH 	6
THRESH 			14
SCF_CONVERGENCE 	8
SCF_PRINT_FRGM 		TRUE
SOLVENT_METHOD          PCM
$end

$PCM
THEORY                  CPCM
METHOD                  SWIG
SOLVER                  INVERSION
RADII                   UFF
HPOINTS                 302
HEAVYPOINTS             302
PRINTLEVEL              0
$END

$SOLVENT
DIELECTRIC              78.390000 ! water
$END
--------------------------------------------------------------
 ----------------------------------------------------------------
             Standard Nuclear Orientation (Angstroms)
    I     Atom           X                Y                Z
 ----------------------------------------------------------------
    1      C       1.8546112744     0.0694797360     2.5005736361
    2      C       2.2156112744    -0.9275202640     1.3985736361
    3      O       1.6206112744    -0.8375202640     0.2995736361
    4      O       3.0926112744    -1.7925202640     1.6155736361
    5      H       0.7856112744     0.2964797360     2.4725736361
    6      H       2.3956112744     1.0004797360     2.3145736361
    7      H       2.1206412744    -0.2859402640     3.5070046361
    8      C      -2.6863887256     2.3734797360    -0.6254263639
    9      C      -1.5323887256     0.2764797360    -1.2914263639
   10      N      -0.8673887256     0.2274797360    -0.1514263639
   11      N      -2.3893887256     1.2604797360    -1.5384263639
   12      N      -1.3383887256    -0.6645202640    -2.1924263639
   13      H      -0.9693887256     0.9674797360     0.5145736361
   14      H      -0.0533887256    -0.3855202640    -0.0684263639
   15      H      -2.7853887256     1.3084797360    -2.4794263639
   16      H      -1.8073887256    -0.6005202640    -3.0834263639
   17      H      -0.6503887256    -1.3815202640    -2.0284263639
   18      H      -3.1353887256     3.1844797360    -1.1934263639
   19      H      -1.7553887256     2.7814797360    -0.2264263639
   20      H      -3.3317387256     2.0780497360     0.2149596361
 ----------------------------------------------------------------
 Nuclear Repulsion Energy =         444.39647946 hartrees
 There are       36 alpha and       36 beta electrons
 Requested basis set is def2-TZVPD
 There are 174 shells and 438 basis functions

 Total QAlloc Memory Limit  96000 MB
 Mega-Array Size      1956 MB
 MEM_STATIC part      2000 MB
 Discretize the solute cavity surface with Lebedev spheres
	Using 302 Lebedev grid points for each H atom
	Using 302 Lebedev grid points for other atoms
	Atomic van der Waals radii will be scaled by 1.20
 Remove points where switching function is < 1.0e-08
 Keep 2354 surface tesserae and discard 3686 interior tesserae
 Molecular Surface Area = 241.071 Angst**2
 A cutoff of  1.0D-14 yielded  13298 shell pairs
 There are     84164 function pairs (    105398 Cartesian)
 Smallest overlap matrix eigenvalue = 1.16E-05

 Scale SEOQF with 1.000000e-01/1.000000e-01/1.000000e-01

 Standard Electronic Orientation quadrupole field applied

 -----------------------------------------------------------------------
  General SCF calculation program by
  Eric Jon Sundstrom, Paul Horn, Yuezhi Mao, Dmitri Zuev, Alec White,
  David Stuck, Shaama M.S., Shane Yost, Joonho Lee, David Small,
  Daniel Levine, Susi Lehtola, Hugh Burton, Evgeny Epifanovsky
 -----------------------------------------------------------------------
================================================================
                 ALMO-EDA with the EDA2 driver                  
================================================================
 The second-generation ALMO-EDA (for DFT):                      
 P. R. Horn, Y. Mao and M. Head-Gordon, PCCP, 18, 23067 (2016)  
 Decomposition of the frozen energy:                            
 P. R. Horn, Y. Mao and M. Head-Gordon, JCP, 144, 114107 (2016) 
 FERF model for polarization:                                   
 P. R. Horn and M. Head-Gordon, JCP, 143, 114111 (2015)         
Using eda2 option set 1
Option set summary: Frozen orbital wavefunction, initial wavefunction decomposition, and nDQ polarization.
--------------------------------
Printing EDA Options
--------------------------------
eda_child_super_basis      0
fragmo_guess_mode          0
child_mp                   1
child_mp_orders            232
cls_elec                   1
cls_disp                   0
scfmi_mode                 1
scfmi_occs                 0
scfmi_virts                0
frz_relax                  0
frz_relax_method           0
dc_pen_start               0
dc_pen_conv                0
dc_pen_increment           0
dc_pen_steps               0
dc_pen_thresh_factor       0
dc_pen_pre_newton_thresh   0
frz_ortho_decomp           1
frz_ortho_decomp_conv      6
frgm_method                2
scfmi_freeze_ss            0
separate_rehyb             0
plot_diff_den              0
eda_nocv                   0
eda_vct_relax              1
disp_free_x                0
disp_free_c                0
eda_bsse                   0
eda_pct_a                  0
eda_covp                   0
--------------------------------
Attempting to make child job directory: /tmp/qchem14641//Frg1/
Attempting to make child job directory: /tmp/qchem14641//Frg2/
Creating input file /tmp/qchem14641/Frg1.input
using default PutDataFrgm: nothing
calling putenv with: QCSCRATCH=/tmp/qchem14641/ 
calling putenv with: QCLOCALSCR=/tmp/qchem14641/ 
Spawning Job For Fragment 0
                  Welcome to Q-Chem
     A Quantum Leap Into The Future Of Chemistry


 Q-Chem 5.2, Q-Chem, Inc., Pleasanton, CA (2019)

 License issued to: National Energy Research Scientific Computing Center

 Yihan Shao,  Zhengting Gan,  E. Epifanovsky,  A. T. B. Gilbert,  M. Wormit,  
 J. Kussmann,  A. W. Lange,  A. Behn,  Jia Deng,  Xintian Feng,  D. Ghosh,  
 M. Goldey,  P. R. Horn,  L. D. Jacobson,  I. Kaliman,  T. Kus,  A. Landau,  
 Jie Liu,  E. I. Proynov,  R. M. Richard,  R. P. Steele,  E. J. Sundstrom,  
 H. L. Woodcock III,  P. M. Zimmerman,  D. Zuev,  B. Albrecht,  E. Alguire,  
 S. A. Baeppler,  D. Barton,  Z. Benda,  Y. A. Bernard,  E. J. Berquist,  
 K. B. Bravaya,  H. Burton,  D. Casanova,  Chun-Min Chang,  Yunqing Chen,  
 A. Chien,  K. D. Closser,  M. P. Coons,  S. Coriani,  S. Dasgupta,  
 A. L. Dempwolff,  M. Diedenhofen,  Hainam Do,  R. G. Edgar,  Po-Tung Fang,  
 S. Faraji,  S. Fatehi,  Qingguo Feng,  K. D. Fenk,  J. Fosso-Tande,  
 J. Gayvert,  Qinghui Ge,  A. Ghysels,  G. Gidofalvi,  J. Gomes,  
 J. Gonthier,  A. Gunina,  D. Hait,  M. W. D. Hanson-Heine,  
 P. H. P. Harbach,  A. W. Hauser,  M. F. Herbst,  J. E. Herr,  
 E. G. Hohenstein,  Z. C. Holden,  Kerwin Hui,  B. C. Huynh,  T.-C. Jagau,  
 Hyunjun Ji,  B. Kaduk,  K. Khistyaev,  Jaehoon Kim,  P. Klunzinger,  K. Koh,  
 D. Kosenkov,  L. Koulias,  T. Kowalczyk,  C. M. Krauter,  A. Kunitsa,  
 Ka Un Lao,  A. Laurent,  K. V. Lawler,  Joonho Lee,  D. Lefrancois,  
 S. Lehtola,  D. S. Levine,  Yi-Pei Li,  You-Sheng Lin,  Fenglai Liu,  
 E. Livshits,  A. Luenser,  P. Manohar,  E. Mansoor,  S. F. Manzer,  
 Shan-Ping Mao,  Yuezhi Mao,  N. Mardirossian,  A. V. Marenich,  
 T. Markovich,  L. A. Martinez-Martinez,  S. A. Maurer,  N. J. Mayhall,  
 S. C. McKenzie,  J.-M. Mewes,  P. Morgante,  A. F. Morrison,  
 J. W. Mullinax,  K. Nanda,  T. S. Nguyen-Beck,  R. Olivares-Amaya,  
 J. A. Parkhill,  Zheng Pei,  T. M. Perrine,  F. Plasser,  P. Pokhilko,  
 S. Prager,  A. Prociuk,  E. Ramos,  D. R. Rehn,  F. Rob,  M. Scheurer,  
 M. Schneider,  N. Sergueev,  S. M. Sharada,  S. Sharma,  D. W. Small,  
 T. Stauch,  T. Stein,  Yu-Chuan Su,  A. J. W. Thom,  A. Tkatchenko,  
 T. Tsuchimochi,  N. M. Tubman,  L. Vogt,  M. L. Vidal,  O. Vydrov,  
 M. A. Watson,  J. Wenzel,  M. de Wergifosse,  T. A. Wesolowski,  A. White,  
 J. Witte,  A. Yamada,  Jun Yang,  K. Yao,  S. Yeganeh,  S. R. Yost,  
 Zhi-Qiang You,  A. Zech,  Igor Ying Zhang,  Xing Zhang,  Yan Zhao,  
 Ying Zhu,  B. R. Brooks,  G. K. L. Chan,  C. J. Cramer,  M. S. Gordon,  
 W. J. Hehre,  A. Klamt,  M. W. Schmidt,  C. D. Sherrill,  D. G. Truhlar,  
 A. Aspuru-Guzik,  R. Baer,  A. T. Bell,  N. A. Besley,  Jeng-Da Chai,  
 A. E. DePrince, III,  R. A. DiStasio Jr.,  A. Dreuw,  B. D. Dunietz,  
 T. R. Furlani,  Chao-Ping Hsu,  Yousung Jung,  Jing Kong,  D. S. Lambrecht,  
 WanZhen Liang,  C. Ochsenfeld,  V. A. Rassolov,  L. V. Slipchenko,  
 J. E. Subotnik,  T. Van Voorhis,  J. M. Herbert,  A. I. Krylov,  
 P. M. W. Gill,  M. Head-Gordon

 Contributors to earlier versions of Q-Chem not listed above: 
 R. D. Adamson,  B. Austin,  J. Baker,  G. J. O. Beran,  K. Brandhorst,  
 S. T. Brown,  E. F. C. Byrd,  A. K. Chakraborty,  C.-L. Cheng,  
 Siu Hung Chien,  D. M. Chipman,  D. L. Crittenden,  H. Dachsel,  
 R. J. Doerksen,  A. D. Dutoi,  L. Fusti-Molnar,  W. A. Goddard III,  
 A. Golubeva-Zadorozhnaya,  S. R. Gwaltney,  G. Hawkins,  A. Heyden,  
 S. Hirata,  G. Kedziora,  F. J. Keil,  C. Kelley,  Jihan Kim,  R. A. King,  
 R. Z. Khaliullin,  P. P. Korambath,  W. Kurlancheek,  A. M. Lee,  M. S. Lee,  
 S. V. Levchenko,  Ching Yeh Lin,  D. Liotard,  R. C. Lochan,  I. Lotan,  
 P. E. Maslen,  N. Nair,  D. P. O'Neill,  D. Neuhauser,  E. Neuscamman,  
 C. M. Oana,  R. Olson,  B. Peters,  R. Peverati,  P. A. Pieniazek,  
 Y. M. Rhee,  J. Ritchie,  M. A. Rohrdanz,  E. Rosta,  N. J. Russ,  
 H. F. Schaefer III,  N. E. Schultz,  N. Shenvi,  A. C. Simmonett,  A. Sodt,  
 D. Stuck,  K. S. Thanthiriwatte,  V. Vanovschi,  Tao Wang,  A. Warshel,  
 C. F. Williams,  Q. Wu,  X. Xu,  W. Zhang

 Please cite Q-Chem as follows:
 Y. Shao et al., Mol. Phys. 113, 184-215 (2015)
 DOI: 10.1080/00268976.2014.952696

 Q-Chem 5.2.0 for Intel X86 EM64T Linux

 Parts of Q-Chem use Armadillo 8.300.2 (Tropical Shenanigans).
 http://arma.sourceforge.net/

 Q-Chem begins on Sun Sep 26 03:01:32 2021  

Host: cori01
0

     Scratch files written to /tmp/qchem14641//Frg1//
 May1019 |scratch|qcdevops|jenkins|workspace|build_RNUM -1
Processing $rem in /global/common/cori/software/qchem/5.2/config/preferences:
	 MEM_TOTAL  96000 
NAlpha2: 32
NElect   32
Mult     1
Symmetry turned off for PCM/SM12/SMD calculation

Checking the input file for inconsistencies... 	...done.

--------------------------------------------------------------
User input:
--------------------------------------------------------------
$molecule
-1 1
 6	1.8546112744	0.0694797360	2.5005736361
 6	2.2156112744	-0.9275202640	1.3985736361
 8	1.6206112744	-0.8375202640	0.2995736361
 8	3.0926112744	-1.7925202640	1.6155736361
 1	0.7856112744	0.2964797360	2.4725736361
 1	2.3956112744	1.0004797360	2.3145736361
 1	2.1206412744	-0.2859402640	3.5070046361
$end
$rem
EDA2		1
METHOD		WB97X-V
BASIS		DEF2-TZVPD
XC_GRID		000099000590
NL_GRID		1
UNRESTRICTED		FALSE
MAX_SCF_CYCLES		200
SYMMETRY		FALSE
SYM_IGNORE		TRUE
BASIS_LIN_DEP_THRESH		6
THRESH		14
SCF_CONVERGENCE		8
SCF_PRINT_FRGM		TRUE
SOLVENT_METHOD		PCM
!required keywords
JOBTYPE		SP
SYM_IGNORE		TRUE
SUBSYSTEM		TRUE
GEN_SCFMAN		TRUE
CHILD_INSTRUCTION		2
SYM_IGNORE		TRUE
SCFMI		0
RI_K 0		
PARI_K 0		
MIN_PARI_K 0		
IARI_K 0		
OCC_RI_K 0		
PURECART		1111
MEM_STATIC		2000
MEM_TOTAL		96000
GUI		0
CHILD_MP		1
CHILD_MP_ORDERS		232
FRZ_RELAX		0
FRZ_RELAX_METHOD		0
EDA_CLS_ELEC		1
EDA_CLS_DISP		0
FRZ_ORTHO_DECOMP		1
EDA2		FALSE
FRGM_METHOD		FALSE
CIS_N_ROOTS  0
LOCAL_CIS    0
CIS_RLX_DNS  1
$end
$pcm
THEORY                  CPCM
METHOD                  SWIG
SOLVER                  INVERSION
RADII                   UFF
HPOINTS                 302
HEAVYPOINTS             302
PRINTLEVEL              0
$end
$solvent
DIELECTRIC              78.390000 ! water
$end
--------------------------------------------------------------
 ----------------------------------------------------------------
             Standard Nuclear Orientation (Angstroms)
    I     Atom           X                Y                Z
 ----------------------------------------------------------------
    1      C       1.8546112744     0.0694797360     2.5005736361
    2      C       2.2156112744    -0.9275202640     1.3985736361
    3      O       1.6206112744    -0.8375202640     0.2995736361
    4      O       3.0926112744    -1.7925202640     1.6155736361
    5      H       0.7856112744     0.2964797360     2.4725736361
    6      H       2.3956112744     1.0004797360     2.3145736361
    7      H       2.1206412744    -0.2859402640     3.5070046361
 ----------------------------------------------------------------
 Nuclear Repulsion Energy =         112.41542543 hartrees
 There are       16 alpha and       16 beta electrons
 Requested basis set is def2-TZVPD
 There are 69 shells and 181 basis functions

 Total QAlloc Memory Limit  96000 MB
 Mega-Array Size      1956 MB
 MEM_STATIC part      2000 MB
 Discretize the solute cavity surface with Lebedev spheres
	Using 302 Lebedev grid points for each H atom
	Using 302 Lebedev grid points for other atoms
	Atomic van der Waals radii will be scaled by 1.20
 Remove points where switching function is < 1.0e-08
 Keep 1011 surface tesserae and discard 1103 interior tesserae
 Molecular Surface Area = 120.633 Angst**2

                       Distance Matrix (Angstroms)
             C (  1)   C (  2)   O (  3)   O (  4)   H (  5)   H (  6)
   C (  2)  1.529292
   O (  3)  2.392030  1.252967
   O (  4)  2.404769  1.250777  2.193323
   H (  5)  1.093194  2.167153  2.589423  3.228098
   H (  6)  1.092720  2.142111  2.835330  2.962306  1.764279
   H (  7)  1.099999  2.205930  3.292702  2.606150  1.786495  1.775493

 
 A cutoff of  1.0D-14 yielded   2391 shell pairs
 There are     16695 function pairs (     21491 Cartesian)
 Smallest overlap matrix eigenvalue = 1.73E-05

 Scale SEOQF with 1.000000e-01/1.000000e-01/1.000000e-01

 Standard Electronic Orientation quadrupole field applied
 Nucleus-field energy     =    -0.0000000018 hartrees
 Guess from superposition of atomic densities
 Warning:  Energy on first SCF cycle will be non-variational
 SAD guess density has 30.625312 electrons

 -----------------------------------------------------------------------
  General SCF calculation program by
  Eric Jon Sundstrom, Paul Horn, Yuezhi Mao, Dmitri Zuev, Alec White,
  David Stuck, Shaama M.S., Shane Yost, Joonho Lee, David Small,
  Daniel Levine, Susi Lehtola, Hugh Burton, Evgeny Epifanovsky
 -----------------------------------------------------------------------
 Exchange:     0.1670 Hartree-Fock + 1.0000 wB97X-V + LR-HF
 Correlation:  1.0000 wB97X-V
 Using Euler-Maclaurin-Lebedev (99,590) quadrature formula
 Nonlocal Correlation:  VV10 with C = 0.0100 and b = 6.00 and scale = 1.00000
 Grid used for NLC:  SG-1 standard quadrature
Energy prior to optimization (guess energy) = -227.760932438036
Begin Timing: Total SCF Calculation
begin iterations for algorithm: DIIS         
the SCF tolerance is set to 1.00e-08
    1    -227.7609324380      1.66e-02     00000 
    2    -225.5833808102      2.55e-02     00000 
    3    -228.5772503015      4.13e-03     00000 
    4    -228.6362768927      1.37e-03     00000 
    5    -228.6423667686      1.98e-04     00000 
    6    -228.6426070567      9.77e-05     00000 
    7    -228.6426318582      5.85e-05     00000 
    8    -228.6426432776      1.42e-05     00000 
    9    -228.6426445923      2.93e-06     00000 
   10    -228.6426446952      4.37e-07     00000 
   11    -228.6426446981      1.96e-07     00000 
   12    -228.6426446985      6.54e-08     00000 
   13    -228.6426446986      1.60e-08     00000 
   14    -228.6426446986      2.82e-09     00000 Convergence criterion met
Timing for Total SCF: 298.00s (wall), 583.58s (cpu)

************** Final PCM Free Energy Summary **************
 G_electrostatic  =      -0.10199233 hartree =     -64.00115153 kcal/mol
 G_cavitation     =       0.00000000 hartree =       0.00000000 kcal/mol
 G_dispersion     =       0.00000000 hartree =       0.00000000 kcal/mol
 G_repulsion      =       0.00000000 hartree =       0.00000000 kcal/mol
 --------------------------------------------------
 Non-electrostatic Free Energy =       0.00000000 hartree =       0.00000000 kcal/mol
 Total                         =      -0.10199233 hartree =     -64.00115153 kcal/mol
 --------------------------------------------------
 SCF Energy (H0 + V/2)                       =    -228.64264470 
 Solute Internal Energy (H0)                 =    -228.54065237 
 Total Free Energy (H0 + V/2 + non-elec)     =    -228.64264470 hartree
                                             = -143475.42502284 kcal/mol
***********************************************************

E_pcm = -0.1019923276
Multipole orders to be included
        2
        3
computing dipole RHS
computing quadrupole RHS
total number of RHS in solve_reponses: 8
RHS batch sizes
        8
Beginning Block Conjugate Gradient Iterations. Batch Number: 0
computing hessian-vector products by finite difference
              1      6.15e-01     00000 Conjugate Gradient Iteration
computing hessian-vector products by finite difference
              2      2.27e-01     00000 Conjugate Gradient Iteration
computing hessian-vector products by finite difference
              3      5.92e-02     00000 Conjugate Gradient Iteration
computing hessian-vector products by finite difference
              4      1.52e-02     00000 Conjugate Gradient Iteration
computing hessian-vector products by finite difference
              5      2.62e-03     00000 Conjugate Gradient Iteration
computing hessian-vector products by finite difference
              6      5.79e-04     00000 Conjugate Gradient Iteration
computing hessian-vector products by finite difference
              7      9.63e-05     00000 Conjugate Gradient Iteration
computing hessian-vector products by finite difference
              8      1.19e-05     00000 Conjugate Gradient Iteration
computing hessian-vector products by finite difference
              9      1.84e-06     00000 Conjugate Gradient Iteration
computing hessian-vector products by finite difference
             10      2.17e-07     00000 Conjugate Gradient Iteration
computing hessian-vector products by finite difference
             11      3.99e-08     00000 Conjugate Gradient Iteration
computing hessian-vector products by finite difference
             12      9.81e-09     00000 CG Converged
batch 0 complete
Done Calculating Responses
TESTING ORTHOGONALIZATION OF MULTIPOLE BASIS
Multipole virts passed orthogonality test
Virts Per Order
        48
        80
 
 --------------------------------------------------------------
 
                    Orbital Energies (a.u.)
 --------------------------------------------------------------
 
 Alpha MOs
 -- Occupied --
-19.1221 -19.1211 -10.3259 -10.2414  -1.1320  -1.0303  -0.8281  -0.5928
 -0.5279  -0.5170  -0.5156  -0.4631  -0.4432  -0.3286  -0.3268  -0.3080
 -- Virtual --
  0.0632   0.0953   0.0956   0.1054   0.1303   0.1403   0.1425   0.1459
  0.1686   0.1900   0.1997   0.2200   0.2328   0.2354   0.2631   0.2688
  0.2986   0.3102   0.3340   0.3479   0.3561   0.3643   0.3717   0.3768
  0.3872   0.4064   0.4243   0.4294   0.4323   0.4592   0.4736   0.4783
  0.4911   0.4962   0.5034   0.5226   0.5583   0.5805   0.5962   0.6128
  0.6346   0.6438   0.6463   0.6586   0.6692   0.6797   0.6928   0.7098
  0.7224   0.7355   0.7885   0.7986   0.8108   0.8220   0.8474   0.8561
  0.8655   0.9836   0.9977   0.9999   1.0094   1.0413   1.0694   1.1082
  1.1529   1.2311   1.2555   1.2726   1.2903   1.3152   1.3550   1.3809
  1.4407   1.5556   1.6039   1.7409   1.8257   1.8682   1.8835   1.9242
  1.9297   1.9530   1.9622   1.9737   2.0230   2.1072   2.1305   2.1857
  2.2109   2.2251   2.3155   2.3436   2.4220   2.4523   2.4866   2.4985
  2.5747   2.5838   2.6362   2.6576   2.7854   2.8173   2.8539   2.9195
  2.9416   3.0339   3.0776   3.1547   3.2192   3.2432   3.2794   3.2963
  3.3492   3.3591   3.3899   3.4082   3.4230   3.5313   3.5922   3.6013
  3.6116   3.6775   3.7141   3.7374   3.7484   3.8374   3.9690   4.0441
  4.0833   4.2112   4.3368   4.5779   4.6000   4.6557   4.8083   4.8213
  4.9890   5.3334   5.3598   5.3683   5.3768   5.4979   5.7107   5.7798
  5.8221   6.0287   6.2360   6.3395   6.3596   6.6182   6.6318   6.7258
  6.7485   6.7616   6.9484   6.9835   7.0455   7.2479   7.3433   7.3883
  7.4157  22.5796  23.7225  44.2215  44.3642
 --------------------------------------------------------------
 
          Ground-State Mulliken Net Atomic Charges

     Atom                 Charge (a.u.)
  ----------------------------------------
      1 C                    -0.412659
      2 C                     0.298087
      3 O                    -0.677257
      4 O                    -0.672899
      5 H                     0.164799
      6 H                     0.130016
      7 H                     0.169914
  ----------------------------------------
  Sum of atomic charges =    -1.000000

 -----------------------------------------------------------------
                    Cartesian Multipole Moments
 -----------------------------------------------------------------
    Charge (ESU x 10^10)
                -4.8032
    Dipole Moment (Debye)
         X     -11.6902      Y       7.4057      Z      -3.3913
       Tot      14.2481
    Quadrupole Moments (Debye-Ang)
        XX     -58.7850     XY      21.1299     YY     -38.8106
        XZ     -12.5546     YZ       8.1199     ZZ     -31.7206
    Octopole Moments (Debye-Ang^2)
       XXX    -270.2192    XXY      85.3058    XYY     -94.6703
       YYY      86.7743    XXZ     -83.9035    XYZ      28.1817
       YYZ     -56.5658    XZZ     -78.6816    YZZ      34.0482
       ZZZ    -129.7621
    Hexadecapole Moments (Debye-Ang^3)
      XXXX   -1148.7512   XXXY     364.0282   XXYY    -291.6568
      XYYY     236.1078   YYYY    -263.8028   XXXZ    -419.4752
      XXYZ     119.6771   XYYZ    -143.8307   YYYZ     107.5598
      XXZZ    -302.3278   XYZZ     101.5959   YYZZ    -151.7598
      XZZZ    -305.4511   YZZZ      94.2889   ZZZZ    -530.0786
 -----------------------------------------------------------------
Archival summary:
1\1\nid00562\SP\ProcedureUnspecified\BasisUnspecified\223(1-,1)\meili\SunSep2604:25:222021SunSep2604:25:222021\0\\#,ProcedureUnspecified,BasisUnspecified,\\-1,1\C\O,1,1.25078\O,1,1.25297,2,122.331\C,1,1.52929,2,119.43,3,-179.484,0\H,4,1.09272,1,108.416,2,98.096,0\H,4,1.09319,1,110.35,2,-144.261,0\H,4,1.1,1,113.052,2,-21.789,0\\\@

 Total job time:  5031.71s(wall), 9806.94s(cpu) 
 Sun Sep 26 04:25:23 2021

        *************************************************************
        *                                                           *
        *  Thank you very much for using Q-Chem.  Have a nice day.  *
        *                                                           *
        *************************************************************


Done Job For Fragment 0
calling putenv with: QCSCRATCH=/global/cscratch1/sd/meili 
calling putenv with: QCLOCALSCR=/tmp 
calling putenv with: QCTHREADS=32 
Creating input file /tmp/qchem14641/Frg2.input
using default PutDataFrgm: nothing
calling putenv with: QCSCRATCH=/tmp/qchem14641/ 
calling putenv with: QCLOCALSCR=/tmp/qchem14641/ 
Spawning Job For Fragment 1
                  Welcome to Q-Chem
     A Quantum Leap Into The Future Of Chemistry


 Q-Chem 5.2, Q-Chem, Inc., Pleasanton, CA (2019)

 License issued to: National Energy Research Scientific Computing Center

 Yihan Shao,  Zhengting Gan,  E. Epifanovsky,  A. T. B. Gilbert,  M. Wormit,  
 J. Kussmann,  A. W. Lange,  A. Behn,  Jia Deng,  Xintian Feng,  D. Ghosh,  
 M. Goldey,  P. R. Horn,  L. D. Jacobson,  I. Kaliman,  T. Kus,  A. Landau,  
 Jie Liu,  E. I. Proynov,  R. M. Richard,  R. P. Steele,  E. J. Sundstrom,  
 H. L. Woodcock III,  P. M. Zimmerman,  D. Zuev,  B. Albrecht,  E. Alguire,  
 S. A. Baeppler,  D. Barton,  Z. Benda,  Y. A. Bernard,  E. J. Berquist,  
 K. B. Bravaya,  H. Burton,  D. Casanova,  Chun-Min Chang,  Yunqing Chen,  
 A. Chien,  K. D. Closser,  M. P. Coons,  S. Coriani,  S. Dasgupta,  
 A. L. Dempwolff,  M. Diedenhofen,  Hainam Do,  R. G. Edgar,  Po-Tung Fang,  
 S. Faraji,  S. Fatehi,  Qingguo Feng,  K. D. Fenk,  J. Fosso-Tande,  
 J. Gayvert,  Qinghui Ge,  A. Ghysels,  G. Gidofalvi,  J. Gomes,  
 J. Gonthier,  A. Gunina,  D. Hait,  M. W. D. Hanson-Heine,  
 P. H. P. Harbach,  A. W. Hauser,  M. F. Herbst,  J. E. Herr,  
 E. G. Hohenstein,  Z. C. Holden,  Kerwin Hui,  B. C. Huynh,  T.-C. Jagau,  
 Hyunjun Ji,  B. Kaduk,  K. Khistyaev,  Jaehoon Kim,  P. Klunzinger,  K. Koh,  
 D. Kosenkov,  L. Koulias,  T. Kowalczyk,  C. M. Krauter,  A. Kunitsa,  
 Ka Un Lao,  A. Laurent,  K. V. Lawler,  Joonho Lee,  D. Lefrancois,  
 S. Lehtola,  D. S. Levine,  Yi-Pei Li,  You-Sheng Lin,  Fenglai Liu,  
 E. Livshits,  A. Luenser,  P. Manohar,  E. Mansoor,  S. F. Manzer,  
 Shan-Ping Mao,  Yuezhi Mao,  N. Mardirossian,  A. V. Marenich,  
 T. Markovich,  L. A. Martinez-Martinez,  S. A. Maurer,  N. J. Mayhall,  
 S. C. McKenzie,  J.-M. Mewes,  P. Morgante,  A. F. Morrison,  
 J. W. Mullinax,  K. Nanda,  T. S. Nguyen-Beck,  R. Olivares-Amaya,  
 J. A. Parkhill,  Zheng Pei,  T. M. Perrine,  F. Plasser,  P. Pokhilko,  
 S. Prager,  A. Prociuk,  E. Ramos,  D. R. Rehn,  F. Rob,  M. Scheurer,  
 M. Schneider,  N. Sergueev,  S. M. Sharada,  S. Sharma,  D. W. Small,  
 T. Stauch,  T. Stein,  Yu-Chuan Su,  A. J. W. Thom,  A. Tkatchenko,  
 T. Tsuchimochi,  N. M. Tubman,  L. Vogt,  M. L. Vidal,  O. Vydrov,  
 M. A. Watson,  J. Wenzel,  M. de Wergifosse,  T. A. Wesolowski,  A. White,  
 J. Witte,  A. Yamada,  Jun Yang,  K. Yao,  S. Yeganeh,  S. R. Yost,  
 Zhi-Qiang You,  A. Zech,  Igor Ying Zhang,  Xing Zhang,  Yan Zhao,  
 Ying Zhu,  B. R. Brooks,  G. K. L. Chan,  C. J. Cramer,  M. S. Gordon,  
 W. J. Hehre,  A. Klamt,  M. W. Schmidt,  C. D. Sherrill,  D. G. Truhlar,  
 A. Aspuru-Guzik,  R. Baer,  A. T. Bell,  N. A. Besley,  Jeng-Da Chai,  
 A. E. DePrince, III,  R. A. DiStasio Jr.,  A. Dreuw,  B. D. Dunietz,  
 T. R. Furlani,  Chao-Ping Hsu,  Yousung Jung,  Jing Kong,  D. S. Lambrecht,  
 WanZhen Liang,  C. Ochsenfeld,  V. A. Rassolov,  L. V. Slipchenko,  
 J. E. Subotnik,  T. Van Voorhis,  J. M. Herbert,  A. I. Krylov,  
 P. M. W. Gill,  M. Head-Gordon

 Contributors to earlier versions of Q-Chem not listed above: 
 R. D. Adamson,  B. Austin,  J. Baker,  G. J. O. Beran,  K. Brandhorst,  
 S. T. Brown,  E. F. C. Byrd,  A. K. Chakraborty,  C.-L. Cheng,  
 Siu Hung Chien,  D. M. Chipman,  D. L. Crittenden,  H. Dachsel,  
 R. J. Doerksen,  A. D. Dutoi,  L. Fusti-Molnar,  W. A. Goddard III,  
 A. Golubeva-Zadorozhnaya,  S. R. Gwaltney,  G. Hawkins,  A. Heyden,  
 S. Hirata,  G. Kedziora,  F. J. Keil,  C. Kelley,  Jihan Kim,  R. A. King,  
 R. Z. Khaliullin,  P. P. Korambath,  W. Kurlancheek,  A. M. Lee,  M. S. Lee,  
 S. V. Levchenko,  Ching Yeh Lin,  D. Liotard,  R. C. Lochan,  I. Lotan,  
 P. E. Maslen,  N. Nair,  D. P. O'Neill,  D. Neuhauser,  E. Neuscamman,  
 C. M. Oana,  R. Olson,  B. Peters,  R. Peverati,  P. A. Pieniazek,  
 Y. M. Rhee,  J. Ritchie,  M. A. Rohrdanz,  E. Rosta,  N. J. Russ,  
 H. F. Schaefer III,  N. E. Schultz,  N. Shenvi,  A. C. Simmonett,  A. Sodt,  
 D. Stuck,  K. S. Thanthiriwatte,  V. Vanovschi,  Tao Wang,  A. Warshel,  
 C. F. Williams,  Q. Wu,  X. Xu,  W. Zhang

 Please cite Q-Chem as follows:
 Y. Shao et al., Mol. Phys. 113, 184-215 (2015)
 DOI: 10.1080/00268976.2014.952696

 Q-Chem 5.2.0 for Intel X86 EM64T Linux

 Parts of Q-Chem use Armadillo 8.300.2 (Tropical Shenanigans).
 http://arma.sourceforge.net/

 Q-Chem begins on Sun Sep 26 04:25:24 2021  

Host: cori01
0

     Scratch files written to /tmp/qchem14641//Frg2//
 May1019 |scratch|qcdevops|jenkins|workspace|build_RNUM -1
Processing $rem in /global/common/cori/software/qchem/5.2/config/preferences:
	 MEM_TOTAL  96000 
NAlpha2: 40
NElect   40
Mult     1
Symmetry turned off for PCM/SM12/SMD calculation

Checking the input file for inconsistencies... 	...done.

--------------------------------------------------------------
User input:
--------------------------------------------------------------
$molecule
1 1
 6	-2.6863887256	2.3734797360	-0.6254263639
 6	-1.5323887256	0.2764797360	-1.2914263639
 7	-0.8673887256	0.2274797360	-0.1514263639
 7	-2.3893887256	1.2604797360	-1.5384263639
 7	-1.3383887256	-0.6645202640	-2.1924263639
 1	-0.9693887256	0.9674797360	0.5145736361
 1	-0.0533887256	-0.3855202640	-0.0684263639
 1	-2.7853887256	1.3084797360	-2.4794263639
 1	-1.8073887256	-0.6005202640	-3.0834263639
 1	-0.6503887256	-1.3815202640	-2.0284263639
 1	-3.1353887256	3.1844797360	-1.1934263639
 1	-1.7553887256	2.7814797360	-0.2264263639
 1	-3.3317387256	2.0780497360	0.2149596361
$end
$rem
EDA2		1
METHOD		WB97X-V
BASIS		DEF2-TZVPD
XC_GRID		000099000590
NL_GRID		1
UNRESTRICTED		FALSE
MAX_SCF_CYCLES		200
SYMMETRY		FALSE
SYM_IGNORE		TRUE
BASIS_LIN_DEP_THRESH		6
THRESH		14
SCF_CONVERGENCE		8
SCF_PRINT_FRGM		TRUE
SOLVENT_METHOD		PCM
!required keywords
JOBTYPE		SP
SYM_IGNORE		TRUE
SUBSYSTEM		TRUE
GEN_SCFMAN		TRUE
CHILD_INSTRUCTION		2
SYM_IGNORE		TRUE
SCFMI		0
RI_K 0		
PARI_K 0		
MIN_PARI_K 0		
IARI_K 0		
OCC_RI_K 0		
PURECART		1111
MEM_STATIC		2000
MEM_TOTAL		96000
GUI		0
CHILD_MP		1
CHILD_MP_ORDERS		232
FRZ_RELAX		0
FRZ_RELAX_METHOD		0
EDA_CLS_ELEC		1
EDA_CLS_DISP		0
FRZ_ORTHO_DECOMP		1
EDA2		FALSE
FRGM_METHOD		FALSE
CIS_N_ROOTS  0
LOCAL_CIS    0
CIS_RLX_DNS  1
$end
$pcm
THEORY                  CPCM
METHOD                  SWIG
SOLVER                  INVERSION
RADII                   UFF
HPOINTS                 302
HEAVYPOINTS             302
PRINTLEVEL              0
$end
$solvent
DIELECTRIC              78.390000 ! water
$end
--------------------------------------------------------------
 ----------------------------------------------------------------
             Standard Nuclear Orientation (Angstroms)
    I     Atom           X                Y                Z
 ----------------------------------------------------------------
    1      C      -2.6863887256     2.3734797360    -0.6254263639
    2      C      -1.5323887256     0.2764797360    -1.2914263639
    3      N      -0.8673887256     0.2274797360    -0.1514263639
    4      N      -2.3893887256     1.2604797360    -1.5384263639
    5      N      -1.3383887256    -0.6645202640    -2.1924263639
    6      H      -0.9693887256     0.9674797360     0.5145736361
    7      H      -0.0533887256    -0.3855202640    -0.0684263639
    8      H      -2.7853887256     1.3084797360    -2.4794263639
    9      H      -1.8073887256    -0.6005202640    -3.0834263639
   10      H      -0.6503887256    -1.3815202640    -2.0284263639
   11      H      -3.1353887256     3.1844797360    -1.1934263639
   12      H      -1.7553887256     2.7814797360    -0.2264263639
   13      H      -3.3317387256     2.0780497360     0.2149596361
 ----------------------------------------------------------------
 Nuclear Repulsion Energy =         193.98078965 hartrees
 There are       20 alpha and       20 beta electrons
 Requested basis set is def2-TZVPD
 There are 105 shells and 257 basis functions

 Total QAlloc Memory Limit  96000 MB
 Mega-Array Size      1956 MB
 MEM_STATIC part      2000 MB
 Discretize the solute cavity surface with Lebedev spheres
	Using 302 Lebedev grid points for each H atom
	Using 302 Lebedev grid points for other atoms
	Atomic van der Waals radii will be scaled by 1.20
 Remove points where switching function is < 1.0e-08
 Keep 1561 surface tesserae and discard 2365 interior tesserae
 Molecular Surface Area = 152.636 Angst**2

                       Distance Matrix (Angstroms)
             C (  1)   C (  2)   N (  3)   N (  4)   N (  5)   H (  6)
   C (  2)  2.484488
   N (  3)  2.852850  1.320691
   N (  4)  1.469880  1.328049  2.303767
   N (  5)  3.674512  1.317163  2.276661  2.288655
   H (  6)  2.494900  2.013973  1.000780  2.513376  3.182363
   H (  7)  3.854221  2.030127  1.022377  3.213582  2.498088  1.734807
   H (  8)  2.140407  2.011561  3.204196  1.022057  2.463515  3.518263
   H (  9)  3.957156  2.013956  3.188386  2.487784  1.008929  4.013287
   H ( 10)  4.495968  2.017438  2.481753  3.200685  1.007139  3.476552
   H ( 11)  1.087173  3.321999  3.869553  2.092204  4.363715  3.538914
   H ( 12)  1.091983  2.731113  2.705011  2.106357  3.989231  2.111273
   H ( 13)  1.100002  2.958465  3.103525  2.151931  4.158202  2.627514
             H (  7)   H (  8)   H (  9)   H ( 10)   H ( 11)   H ( 12)
   H (  8)  4.018256
   H (  9)  3.494705  2.228358
   H ( 10)  2.278163  3.463773  1.749753
   H ( 11)  4.848634  2.301233  4.434175  5.265055
   H ( 12)  3.598841  2.882124  4.427536  4.668918  1.732599
   H ( 13)  4.110604  2.854900  4.514170  4.918439  1.801747  1.781717

 
 A cutoff of  1.0D-14 yielded   5441 shell pairs
 There are     33177 function pairs (     41513 Cartesian)
 Smallest overlap matrix eigenvalue = 1.72E-05

 Scale SEOQF with 1.000000e-01/1.000000e-01/1.000000e-01

 Standard Electronic Orientation quadrupole field applied
 Nucleus-field energy     =     0.0000000018 hartrees
 Guess from superposition of atomic densities
 Warning:  Energy on first SCF cycle will be non-variational
 SAD guess density has 40.388232 electrons

 -----------------------------------------------------------------------
  General SCF calculation program by
  Eric Jon Sundstrom, Paul Horn, Yuezhi Mao, Dmitri Zuev, Alec White,
  David Stuck, Shaama M.S., Shane Yost, Joonho Lee, David Small,
  Daniel Levine, Susi Lehtola, Hugh Burton, Evgeny Epifanovsky
 -----------------------------------------------------------------------
 Exchange:     0.1670 Hartree-Fock + 1.0000 wB97X-V + LR-HF
 Correlation:  1.0000 wB97X-V
 Using Euler-Maclaurin-Lebedev (99,590) quadrature formula
 Nonlocal Correlation:  VV10 with C = 0.0100 and b = 6.00 and scale = 1.00000
 Grid used for NLC:  SG-1 standard quadrature
Energy prior to optimization (guess energy) = -244.725531817568
Begin Timing: Total SCF Calculation
begin iterations for algorithm: DIIS         
the SCF tolerance is set to 1.00e-08
    1    -244.7255318176      7.92e-03     00000 
    2    -244.9393619289      6.24e-03     00000 
    3    -245.1794895516      3.11e-04     00000 
    4    -245.1801184529      1.80e-04     00000 
    5    -245.1803384948      3.63e-05     00000 
    6    -245.1803483763      1.41e-05     00000 
    7    -245.1803500773      2.44e-06     00000 
    8    -245.1803501665      8.18e-07     00000 
    9    -245.1803501786      3.36e-07     00000 
   10    -245.1803501804      1.03e-07     00000 
   11    -245.1803501807      4.14e-08     00000 
   12    -245.1803501807      1.24e-08     00000 
   13    -245.1803501807      1.68e-09     00000 Convergence criterion met
Timing for Total SCF: 797.00s (wall), 1578.75s (cpu)

************** Final PCM Free Energy Summary **************
 G_electrostatic  =      -0.08168323 hartree =     -51.25700053 kcal/mol
 G_cavitation     =       0.00000000 hartree =       0.00000000 kcal/mol
 G_dispersion     =       0.00000000 hartree =       0.00000000 kcal/mol
 G_repulsion      =       0.00000000 hartree =       0.00000000 kcal/mol
 --------------------------------------------------
 Non-electrostatic Free Energy =       0.00000000 hartree =       0.00000000 kcal/mol
 Total                         =      -0.08168323 hartree =     -51.25700053 kcal/mol
 --------------------------------------------------
 SCF Energy (H0 + V/2)                       =    -245.18035018 
 Solute Internal Energy (H0)                 =    -245.09866695 
 Total Free Energy (H0 + V/2 + non-elec)     =    -245.18035018 hartree
                                             = -153852.99184147 kcal/mol
***********************************************************

E_pcm = -0.0816832301
Multipole orders to be included
        2
        3
computing dipole RHS
computing quadrupole RHS
total number of RHS in solve_reponses: 8
RHS batch sizes
        8
Beginning Block Conjugate Gradient Iterations. Batch Number: 0
computing hessian-vector products by finite difference
              1      4.49e-01     00000 Conjugate Gradient Iteration
computing hessian-vector products by finite difference
              2      1.69e-01     00000 Conjugate Gradient Iteration
computing hessian-vector products by finite difference
              3      4.60e-02     00000 Conjugate Gradient Iteration
computing hessian-vector products by finite difference
              4      1.21e-02     00000 Conjugate Gradient Iteration
computing hessian-vector products by finite difference
              5      1.67e-03     00000 Conjugate Gradient Iteration
computing hessian-vector products by finite difference
              6      2.65e-04     00000 Conjugate Gradient Iteration
computing hessian-vector products by finite difference
              7      3.56e-05     00000 Conjugate Gradient Iteration
computing hessian-vector products by finite difference
              8      5.15e-06     00000 Conjugate Gradient Iteration
computing hessian-vector products by finite difference
              9      7.99e-07     00000 Conjugate Gradient Iteration
computing hessian-vector products by finite difference
             10      9.21e-08     00000 Conjugate Gradient Iteration
computing hessian-vector products by finite difference
             11      1.10e-08     00000 Conjugate Gradient Iteration
computing hessian-vector products by finite difference
             12      1.98e-09     00000 CG Converged
batch 0 complete
Done Calculating Responses
TESTING ORTHOGONALIZATION OF MULTIPOLE BASIS
Multipole virts passed orthogonality test
Virts Per Order
           60
          100
 
 --------------------------------------------------------------
 
                    Orbital Energies (a.u.)
 --------------------------------------------------------------
 
 Alpha MOs
 -- Occupied --
-14.4839 -14.4772 -14.4751 -10.4499 -10.3309  -1.2011  -1.0817  -1.0719
 -0.8791  -0.7935  -0.7504  -0.7175  -0.6460  -0.6409  -0.6216  -0.5963
 -0.5518  -0.5313  -0.4273  -0.4034
 -- Virtual --
  0.0482   0.0748   0.0774   0.0860   0.1125   0.1153   0.1235   0.1402
  0.1596   0.1663   0.1776   0.1860   0.1920   0.1975   0.2085   0.2227
  0.2318   0.2352   0.2377   0.2529   0.2640   0.2736   0.2803   0.2894
  0.2998   0.3048   0.3077   0.3129   0.3264   0.3273   0.3400   0.3484
  0.3514   0.3645   0.3657   0.3820   0.3959   0.3991   0.4034   0.4204
  0.4251   0.4365   0.4466   0.4516   0.4586   0.4634   0.4727   0.4865
  0.4908   0.4921   0.5013   0.5047   0.5136   0.5168   0.5290   0.5375
  0.5461   0.5566   0.5664   0.5817   0.5948   0.6080   0.6329   0.6408
  0.6464   0.6551   0.6664   0.6806   0.7049   0.7145   0.7398   0.7427
  0.7703   0.7844   0.8007   0.8111   0.8179   0.8274   0.8445   0.8504
  0.8546   0.8735   0.8876   0.8989   0.9161   0.9517   0.9635   0.9838
  1.0126   1.0352   1.0491   1.0667   1.0744   1.0813   1.0924   1.1140
  1.1422   1.1734   1.2011   1.2348   1.2432   1.3115   1.3426   1.3826
  1.4060   1.4376   1.4575   1.4590   1.5320   1.5507   1.6269   1.6540
  1.6624   1.6905   1.7202   1.7680   1.8194   1.8236   1.8483   1.8627
  1.8750   1.8916   1.9042   1.9304   1.9690   1.9895   2.0170   2.0477
  2.0895   2.1007   2.1217   2.1469   2.1791   2.1961   2.2617   2.3013
  2.3125   2.3259   2.3428   2.3839   2.3980   2.4547   2.4778   2.4951
  2.5218   2.5589   2.5975   2.6029   2.6348   2.6582   2.6831   2.7089
  2.7645   2.7922   2.8173   2.8581   2.8692   2.8790   2.9204   2.9316
  3.0063   3.0927   3.1085   3.1290   3.1484   3.1637   3.1866   3.2312
  3.2385   3.2722   3.2935   3.2974   3.3350   3.3546   3.3896   3.4054
  3.4287   3.4696   3.5185   3.5356   3.5882   3.6209   3.6653   3.7116
  3.7784   3.8076   3.9137   3.9366   4.0311   4.0634   4.1247   4.1553
  4.2393   4.3101   4.3455   4.3724   4.4161   4.4596   4.5682   4.5893
  4.6505   4.8101   4.8273   4.8507   4.9123   4.9710   4.9928   5.0228
  5.0896   5.0964   5.1098   5.1282   5.1605   5.1849   5.2518   5.3115
  5.3476   5.3755   5.4178   5.4339   5.4823   5.4959   5.5614   5.6222
  5.6728   5.7288   5.7889   5.8751   6.1240   6.1538   6.3351   6.4426
 22.6466  23.6269  32.3084  32.4252  32.7845
 --------------------------------------------------------------
 
          Ground-State Mulliken Net Atomic Charges

     Atom                 Charge (a.u.)
  ----------------------------------------
      1 C                    -0.828723
      2 C                     0.546292
      3 N                    -0.269585
      4 N                    -0.088250
      5 N                    -0.265093
      6 H                     0.192374
      7 H                     0.222698
      8 H                     0.257185
      9 H                     0.201075
     10 H                     0.199137
     11 H                     0.256767
     12 H                     0.300309
     13 H                     0.275813
  ----------------------------------------
  Sum of atomic charges =     1.000000

 -----------------------------------------------------------------
                    Cartesian Multipole Moments
 -----------------------------------------------------------------
    Charge (ESU x 10^10)
                 4.8032
    Dipole Moment (Debye)
         X      -7.0480      Y       2.4964      Z      -6.4936
       Tot       9.9032
    Quadrupole Moments (Debye-Ang)
        XX     -13.4283     XY     -11.1658     YY     -18.2734
        XZ      13.9072     YZ       0.6058     ZZ     -10.6762
    Octopole Moments (Debye-Ang^2)
       XXX     118.1160    XXY       8.9416    XYY      27.7936
       YYY     -48.3532    XXZ       1.0464    XYZ      10.1776
       YYZ      21.0480    XZZ      11.6600    YZZ     -23.1862
       ZZZ      46.6556
    Hexadecapole Moments (Debye-Ang^3)
      XXXX    -593.3235   XXXY      94.4447   XXYY    -107.0610
      XYYY     119.3166   YYYY    -301.0117   XXXZ    -104.7758
      XXYZ     -25.1058   XYYZ     -31.3865   YYYZ      25.3812
      XXZZ     -81.0380   XYZZ      40.4082   YYZZ     -96.1420
      XZZZ     -60.7123   YZZZ      46.0705   ZZZZ    -210.4486
 -----------------------------------------------------------------
Archival summary:
1\1\nid00562\SP\ProcedureUnspecified\BasisUnspecified\328(1+,1)\meili\SunSep2608:13:012021SunSep2608:13:012021\0\\#,ProcedureUnspecified,BasisUnspecified,\\1,1\C\N,1,1.31716\H,2,1.00714,1,119.857\H,2,1.00893,1,119.361,3,-173.23,0\N,1,1.32069,2,119.327,3,-3.42668,0\H,5,1.00078,1,119.715,2,176.404,0\H,5,1.02238,1,119.552,2,15.2655,0\N,1,1.32805,2,119.812,3,176.5,0\H,8,1.02206,1,117.133,2,-7.30183,0\C,8,1.46988,1,125.163,2,-179.422,0\H,10,1.08717,8,108.892,1,160.682,0\H,10,1.09198,8,109.731,1,45.8786,0\H,10,1.1,8,112.937,1,-75.6231,0\\\@

 Total job time:  13657.57s(wall), 26781.52s(cpu) 
 Sun Sep 26 08:13:02 2021

        *************************************************************
        *                                                           *
        *  Thank you very much for using Q-Chem.  Have a nice day.  *
        *                                                           *
        *************************************************************


Done Job For Fragment 1
calling putenv with: QCSCRATCH=/global/cscratch1/sd/meili 
calling putenv with: QCLOCALSCR=/tmp 
calling putenv with: QCTHREADS=32 
Doing General SCFMI
 Exchange:     0.1670 Hartree-Fock + 1.0000 wB97X-V + LR-HF
 Correlation:  1.0000 wB97X-V
 Using Euler-Maclaurin-Lebedev (99,590) quadrature formula
 Nonlocal Correlation:  VV10 with C = 0.0100 and b = 6.00 and scale = 1.00000
 Grid used for NLC:  SG-1 standard quadrature
performing fock build before subrot guess so that all methods have access
Printing subrot_rss_gen Method Specification:
Occupied Subspace Method is 0
Virtual Subspace Method is 0
Energy of the unrelaxed supersystem initial determinant -473.760065312293
performing fock build before subrot guess so that all methods have access
Printing subrot_rss_gen Method Specification:
Occupied Subspace Method is 0
Virtual Subspace Method is 0
Energy of the unrelaxed supersystem initial determinant w/ solvent -473.829346719335
write pseudocanon occs and virts to disk
write pseudocanon orbital energies to disk
Tolerance of ortho_decomp_scf: 1.00e-06
GDM subspace size: 20
Beginning the Orthogonal Decomposition of the Initial Supersystem Wavefunction
    1    -473.5690793587      9.66e-02     ortho_decomp Preconditoned Steepest Descent
    2    -473.5830282588      2.58e-03     ortho_decomp BFGS Step
    3    -473.5830839415      2.40e-04     ortho_decomp BFGS Step
    4    -473.5830840873      1.11e-05     ortho_decomp BFGS Step
    5    -473.5830840879      3.81e-07     ortho_decomp 00000 Convergence criterion met
 Hartree-Fock
 Hartree-Fock
 Hartree-Fock
Doing General SCFMI
 Exchange:     0.1670 Hartree-Fock + 1.0000 wB97X-V + LR-HF
 Correlation:  1.0000 wB97X-V
 Using Euler-Maclaurin-Lebedev (99,590) quadrature formula
 Nonlocal Correlation:  VV10 with C = 0.0100 and b = 6.00 and scale = 1.00000
 Grid used for NLC:  SG-1 standard quadrature
performing fock build at end of subrot_r(subrot) constructor so that all methods have access
<S^2> of initial wavefunction before polarization iterations 0.0000000000
Beginning iterations for the determination of the polarized wavefunction
Energy prior to optimization (guess energy) = -473.829346719335
Begin Timing: Total SCF Calculation
begin iterations for algorithm: DIIS         
the SCF tolerance is set to 1.00e-08
    1    -473.8293467193      2.85e-04     00000 
    2    -473.8338056008      1.02e-04     00000 
    3    -473.8342522315      6.49e-05     00000 
    4    -473.8343900370      2.22e-05     00000 
    5    -473.8344136868      1.04e-05     00000 
    6    -473.8344191243      5.82e-06     00000 
    7    -473.8344205506      2.00e-06     00000 
    8    -473.8344207740      7.66e-07     00000 
    9    -473.8344208061      2.79e-07     00000 
   10    -473.8344208086      1.18e-07     00000 
   11    -473.8344208092      3.97e-08     00000 
   12    -473.8344208093      2.04e-08     00000 
   13    -473.8344208093      8.13e-09     00000 Convergence criterion met
write pseudocanon occs and virts to disk
write pseudocanon orbital energies to disk
Timing for Total SCF: 3004.00s (wall), 5967.16s (cpu)
<S^2> of polarized wavefunction after polarization iterations 0.0000000000
relaxing scfmi constraint to allow all rotations in the entire AO span
Doing General SCFMI
 Exchange:     0.1670 Hartree-Fock + 1.0000 wB97X-V + LR-HF
 Correlation:  1.0000 wB97X-V
 Using Euler-Maclaurin-Lebedev (99,590) quadrature formula
 Nonlocal Correlation:  VV10 with C = 0.0100 and b = 6.00 and scale = 1.00000
 Grid used for NLC:  SG-1 standard quadrature
performing fock build at end of subrot_r(subrot) constructor so that all methods have access
<S^2> of polarized wavefunction before ct-allowed iterations 0.0000000000
Beginning iterations for the determination of the CT-Allowed wavefunction
Energy prior to optimization (guess energy) = -473.834420809284
Begin Timing: Total SCF Calculation
begin iterations for algorithm: DIIS         
the SCF tolerance is set to 1.00e-08
    1    -473.8344208093      2.38e-04     00000 
    2    -473.8411486037      4.18e-05     00000 
    3    -473.8414581020      2.39e-05     00000 
    4    -473.8414961817      9.44e-06     00000 
    5    -473.8415050369      3.04e-06     00000 
    6    -473.8415058658      9.30e-07     00000 
    7    -473.8415060039      4.12e-07     00000 
    8    -473.8415060272      9.05e-08     00000 
    9    -473.8415060295      4.35e-08     00000 
   10    -473.8415060299      1.58e-08     00000 
   11    -473.8415060300      4.46e-09     00000 Convergence criterion met
write pseudocanon occs and virts to disk
write pseudocanon orbital energies to disk
Timing for Total SCF: 2526.00s (wall), 5017.67s (cpu)
<S^2> of ct_allowed wavefunction after ct-allowed iterations 0.0000000000

================================
        Results of EDA2         
================================
Basic EDA Quantities
--------------------
Fragment Energies (Ha):
1 -228.6426446986
2 -245.1803501807
--------------------
  E_prp (kJ/mol) = 0.0000
  E_sol (kJ/mol) = 300.3454
  E_frz (kJ/mol) = -317.0224
  E_pol (kJ/mol) = -13.3222
  E_vct (kJ/mol) = -18.6025
  E_int (kJ/mol) = -48.6016
--------------------


Initial Wavefunction Decomposition
--------------------
  --------------------
  Orthogonal Fragment Subspace Decomposition:
  --------------------
     E_elec   (ELEC)   (kJ/mol) = -423.9919
     E_pauli  (PAULI)  (kJ/mol) = 123.1500
     E_disp   (DISP)   (kJ/mol) = -16.1804
     --------------------
     Terms summing to E_pauli:
     --------------------
        E_kep_pauli       (kJ/mol) = 147.6474
        E_disp_free_pauli (kJ/mol) = -24.4974
  --------------------
  Classical Frozen Decomposition:
  --------------------
     E_cls_elec  (CLS ELEC)  (kJ/mol) = -382.6092
     E_cls_pauli (CLS PAULI) (kJ/mol) = 65.5869
    [E_mod_pauli (MOD PAULI) (kJ/mol) = 81.7673 (CLS PAULI - DISP from orthogonal decomposition) ]
  --------------------
--------------------

Simplified EDA Summary (kJ/mol)
--------------------
 PREPARATION     0.0000
 SOLVATION       300.3454
 FROZEN          -300.8419      (does not include dispersion)
[PAULI           123.1500]     (if this is negligible, then frozen describes electrostatics)
 DISPERSION      -16.1804
 POLARIZATION    -13.3222
 CHARGE TRANSFER -18.6025
 TOTAL           -48.6016     (PRP + SOL + FRZ + DISP + POL + CT)
--------------------
 
 --------------------------------------------------------------
 
                    Orbital Energies (a.u.)
 --------------------------------------------------------------
 
 Alpha MOs
 -- Occupied --
-19.1399 -19.1333 -14.4735 -14.4649 -14.4469 -10.4346 -10.3408 -10.3257
-10.2497  -1.1868  -1.1479  -1.0710  -1.0549  -1.0451  -0.8713  -0.8373
 -0.7783  -0.7365  -0.7063  -0.6364  -0.6278  -0.6110  -0.5993  -0.5882
 -0.5436  -0.5378  -0.5292  -0.5275  -0.5250  -0.4745  -0.4549  -0.4098
 -0.3940  -0.3449  -0.3419  -0.3230
 -- Virtual --
  0.0498   0.0679   0.0735   0.0852   0.0929   0.0973   0.1022   0.1126
  0.1196   0.1271   0.1310   0.1353   0.1438   0.1495   0.1602   0.1634
  0.1740   0.1797   0.1833   0.1882   0.1970   0.2048   0.2081   0.2198
  0.2262   0.2275   0.2286   0.2372   0.2418   0.2508   0.2562   0.2611
  0.2705   0.2748   0.2829   0.2844   0.2903   0.2998   0.3034   0.3040
  0.3111   0.3166   0.3246   0.3303   0.3341   0.3416   0.3466   0.3490
  0.3501   0.3587   0.3682   0.3711   0.3761   0.3812   0.3913   0.3984
  0.4000   0.4049   0.4060   0.4100   0.4154   0.4208   0.4240   0.4351
  0.4366   0.4379   0.4454   0.4573   0.4656   0.4700   0.4726   0.4750
  0.4777   0.4865   0.4892   0.4914   0.4995   0.5020   0.5120   0.5169
  0.5175   0.5258   0.5336   0.5380   0.5410   0.5475   0.5552   0.5591
  0.5716   0.5757   0.5896   0.5933   0.5971   0.6082   0.6171   0.6196
  0.6233   0.6331   0.6379   0.6469   0.6515   0.6614   0.6730   0.6745
  0.6815   0.6854   0.6917   0.6995   0.7069   0.7165   0.7212   0.7227
  0.7269   0.7337   0.7489   0.7581   0.7638   0.7810   0.7881   0.7902
  0.7944   0.8027   0.8170   0.8203   0.8310   0.8354   0.8437   0.8544
  0.8646   0.8671   0.8757   0.8789   0.8935   0.9034   0.9069   0.9231
  0.9334   0.9387   0.9560   0.9744   0.9851   0.9884   1.0029   1.0168
  1.0327   1.0503   1.0577   1.0678   1.0744   1.0770   1.0817   1.0945
  1.1007   1.1068   1.1249   1.1258   1.1423   1.1446   1.1664   1.1915
  1.2038   1.2164   1.2291   1.2536   1.2727   1.2747   1.2903   1.3084
  1.3281   1.3414   1.3550   1.3626   1.3724   1.4004   1.4214   1.4429
  1.4506   1.4689   1.4757   1.4968   1.5234   1.5660   1.5996   1.6214
  1.6309   1.6673   1.6942   1.7172   1.7396   1.7527   1.7957   1.8076
  1.8439   1.8482   1.8700   1.8777   1.8872   1.8943   1.9034   1.9071
  1.9326   1.9422   1.9503   1.9662   1.9816   1.9889   1.9949   2.0089
  2.0135   2.0297   2.0511   2.0634   2.0820   2.1186   2.1341   2.1417
  2.1684   2.1767   2.1904   2.2092   2.2181   2.2248   2.2298   2.2782
  2.2956   2.3297   2.3471   2.3609   2.3697   2.4011   2.4040   2.4137
  2.4636   2.4815   2.4835   2.4978   2.5113   2.5246   2.5432   2.5588
  2.5637   2.5922   2.6007   2.6120   2.6428   2.6506   2.6640   2.6670
  2.6860   2.7035   2.7311   2.7800   2.8026   2.8113   2.8328   2.8424
  2.8529   2.8607   2.8978   2.9041   2.9315   2.9402   2.9461   2.9525
  2.9894   3.0723   3.0803   3.1082   3.1235   3.1348   3.1595   3.1679
  3.1908   3.2048   3.2198   3.2377   3.2542   3.2624   3.2826   3.2901
  3.3051   3.3179   3.3352   3.3458   3.3631   3.3676   3.3802   3.3875
  3.4190   3.4277   3.4291   3.4351   3.4484   3.4695   3.4969   3.5349
  3.5510   3.5803   3.6061   3.6201   3.6395   3.6597   3.6626   3.6778
  3.7111   3.7295   3.7338   3.7417   3.7609   3.8061   3.8339   3.8691
  3.9481   3.9671   3.9904   4.0569   4.0701   4.0840   4.0914   4.1483
  4.1762   4.2191   4.2538   4.3232   4.3408   4.3618   4.3923   4.4547
  4.4757   4.5757   4.5877   4.6090   4.6203   4.6622   4.6710   4.8197
  4.8404   4.8508   4.8688   4.9209   4.9347   5.0014   5.0077   5.0316
  5.0480   5.1261   5.1370   5.1391   5.1605   5.1901   5.2156   5.2735
  5.3332   5.3371   5.3545   5.3700   5.3723   5.3787   5.4137   5.4463
  5.4606   5.4889   5.5144   5.5314   5.5963   5.6750   5.7033   5.7204
  5.7378   5.8068   5.8210   5.8243   5.9025   6.0333   6.1441   6.1807
  6.2425   6.3410   6.3670   6.3895   6.4692   6.6220   6.6555   6.7493
  6.7614   6.7777   6.9551   7.0353   7.0611   7.2540   7.3539   7.4041
  7.4515  22.5953  22.6637  23.6777  23.7389  32.3836  32.5051  32.8419
 44.3216  44.4119
 --------------------------------------------------------------
 
          Ground-State Mulliken Net Atomic Charges

     Atom                 Charge (a.u.)
  ----------------------------------------
      1 C                    -0.427154
      2 C                     0.331940
      3 O                    -0.748141
      4 O                    -0.657502
      5 H                     0.121251
      6 H                     0.150529
      7 H                     0.176562
      8 C                    -0.818240
      9 C                     0.548964
     10 N                    -0.084772
     11 N                    -0.096758
     12 N                    -0.247116
     13 H                     0.167548
     14 H                     0.106112
     15 H                     0.251265
     16 H                     0.197226
     17 H                     0.191399
     18 H                     0.264947
     19 H                     0.304642
     20 H                     0.267297
  ----------------------------------------
  Sum of atomic charges =     0.000000

 -----------------------------------------------------------------
                    Cartesian Multipole Moments
 -----------------------------------------------------------------
    Charge (ESU x 10^10)
                -0.0000
    Dipole Moment (Debye)
         X     -17.3616      Y       9.4085      Z      -9.1102
       Tot      21.7472
    Quadrupole Moments (Debye-Ang)
        XX     -71.4212     XY       9.7433     YY     -57.0659
        XZ       1.8122     YZ       8.4337     ZZ     -42.1082
    Octopole Moments (Debye-Ang^2)
       XXX    -138.9231    XXY      89.2169    XYY     -62.3338
       YYY      34.7887    XXZ     -76.9712    XYZ      36.6798
       YYZ     -33.3334    XZZ     -61.1991    YZZ       9.7100
       ZZZ     -75.7390
    Hexadecapole Moments (Debye-Ang^3)
      XXXX   -1726.3494   XXXY     453.4159   XXYY    -396.2806
      XYYY     354.6727   YYYY    -565.5291   XXXZ    -516.6066
      XXYZ      91.7197   XYYZ    -173.3486   YYYZ     131.4006
      XXZZ    -378.1992   XYZZ     140.2033   YYZZ    -246.7834
      XZZZ    -361.0424   YZZZ     138.3743   ZZZZ    -733.8143
 -----------------------------------------------------------------
Archival summary:
1\1\nid00562\SP\ProcedureUnspecified\BasisUnspecified\23411\meili\SunSep2610:43:572021SunSep2610:43:572021\0\\#,ProcedureUnspecified,BasisUnspecified,\\0,1\O\C,1,1.25297\O,2,1.25078,1,122.331\C,2,1.52929,1,118.237,3,179.49,0\H,4,1.09272,2,108.416,1,-81.4091,0\H,4,1.09319,2,110.35,1,36.2337,0\H,4,1.1,2,113.052,1,158.706,0\H,1,1.77257,2,130.457,3,145.133,0\N,8,1.02238,1,157.169,2,69.025,0\H,9,1.00078,8,118.065,1,-33.0564,0\C,9,1.32069,8,119.552,1,128.39,0\N,11,1.31716,9,119.327,8,15.2655,0\H,12,1.00714,11,119.857,9,-3.42668,0\H,12,1.00893,11,119.361,9,-176.657,0\N,11,1.32805,9,120.861,8,-164.66,0\H,15,1.02206,11,117.133,9,172.624,0\C,15,1.46988,11,125.163,9,0.50366,0\H,17,1.08717,15,108.892,11,160.682,0\H,17,1.09198,15,109.731,11,45.8786,0\H,17,1.1,15,112.937,11,-75.6231,0\\\@

 Total job time:  27750.94s(wall), 18012.98s(cpu) 
 Sun Sep 26 10:43:59 2021

        *************************************************************
        *                                                           *
        *  Thank you very much for using Q-Chem.  Have a nice day.  *
        *                                                           *
        *************************************************************


