
Running Job 1 of 1 SSI-012ASP-026TYR-1_PCM_TZVPD.in
qchem SSI-012ASP-026TYR-1_PCM_TZVPD.in_53566.0 /tmp/qchem53566/ 0
/global/common/cori/software/qchem/5.2/exe/qcprog.exe_s SSI-012ASP-026TYR-1_PCM_TZVPD.in_53566.0 /tmp/qchem53566/
                  Welcome to Q-Chem
     A Quantum Leap Into The Future Of Chemistry


 Q-Chem 5.2, Q-Chem, Inc., Pleasanton, CA (2019)

 License issued to: National Energy Research Scientific Computing Center

 Yihan Shao,  Zhengting Gan,  E. Epifanovsky,  A. T. B. Gilbert,  M. Wormit,  
 J. Kussmann,  A. W. Lange,  A. Behn,  Jia Deng,  Xintian Feng,  D. Ghosh,  
 M. Goldey,  P. R. Horn,  L. D. Jacobson,  I. Kaliman,  T. Kus,  A. Landau,  
 Jie Liu,  E. I. Proynov,  R. M. Richard,  R. P. Steele,  E. J. Sundstrom,  
 H. L. Woodcock III,  P. M. Zimmerman,  D. Zuev,  B. Albrecht,  E. Alguire,  
 S. A. Baeppler,  D. Barton,  Z. Benda,  Y. A. Bernard,  E. J. Berquist,  
 K. B. Bravaya,  H. Burton,  D. Casanova,  Chun-Min Chang,  Yunqing Chen,  
 A. Chien,  K. D. Closser,  M. P. Coons,  S. Coriani,  S. Dasgupta,  
 A. L. Dempwolff,  M. Diedenhofen,  Hainam Do,  R. G. Edgar,  Po-Tung Fang,  
 S. Faraji,  S. Fatehi,  Qingguo Feng,  K. D. Fenk,  J. Fosso-Tande,  
 J. Gayvert,  Qinghui Ge,  A. Ghysels,  G. Gidofalvi,  J. Gomes,  
 J. Gonthier,  A. Gunina,  D. Hait,  M. W. D. Hanson-Heine,  
 P. H. P. Harbach,  A. W. Hauser,  M. F. Herbst,  J. E. Herr,  
 E. G. Hohenstein,  Z. C. Holden,  Kerwin Hui,  B. C. Huynh,  T.-C. Jagau,  
 Hyunjun Ji,  B. Kaduk,  K. Khistyaev,  Jaehoon Kim,  P. Klunzinger,  K. Koh,  
 D. Kosenkov,  L. Koulias,  T. Kowalczyk,  C. M. Krauter,  A. Kunitsa,  
 Ka Un Lao,  A. Laurent,  K. V. Lawler,  Joonho Lee,  D. Lefrancois,  
 S. Lehtola,  D. S. Levine,  Yi-Pei Li,  You-Sheng Lin,  Fenglai Liu,  
 E. Livshits,  A. Luenser,  P. Manohar,  E. Mansoor,  S. F. Manzer,  
 Shan-Ping Mao,  Yuezhi Mao,  N. Mardirossian,  A. V. Marenich,  
 T. Markovich,  L. A. Martinez-Martinez,  S. A. Maurer,  N. J. Mayhall,  
 S. C. McKenzie,  J.-M. Mewes,  P. Morgante,  A. F. Morrison,  
 J. W. Mullinax,  K. Nanda,  T. S. Nguyen-Beck,  R. Olivares-Amaya,  
 J. A. Parkhill,  Zheng Pei,  T. M. Perrine,  F. Plasser,  P. Pokhilko,  
 S. Prager,  A. Prociuk,  E. Ramos,  D. R. Rehn,  F. Rob,  M. Scheurer,  
 M. Schneider,  N. Sergueev,  S. M. Sharada,  S. Sharma,  D. W. Small,  
 T. Stauch,  T. Stein,  Yu-Chuan Su,  A. J. W. Thom,  A. Tkatchenko,  
 T. Tsuchimochi,  N. M. Tubman,  L. Vogt,  M. L. Vidal,  O. Vydrov,  
 M. A. Watson,  J. Wenzel,  M. de Wergifosse,  T. A. Wesolowski,  A. White,  
 J. Witte,  A. Yamada,  Jun Yang,  K. Yao,  S. Yeganeh,  S. R. Yost,  
 Zhi-Qiang You,  A. Zech,  Igor Ying Zhang,  Xing Zhang,  Yan Zhao,  
 Ying Zhu,  B. R. Brooks,  G. K. L. Chan,  C. J. Cramer,  M. S. Gordon,  
 W. J. Hehre,  A. Klamt,  M. W. Schmidt,  C. D. Sherrill,  D. G. Truhlar,  
 A. Aspuru-Guzik,  R. Baer,  A. T. Bell,  N. A. Besley,  Jeng-Da Chai,  
 A. E. DePrince, III,  R. A. DiStasio Jr.,  A. Dreuw,  B. D. Dunietz,  
 T. R. Furlani,  Chao-Ping Hsu,  Yousung Jung,  Jing Kong,  D. S. Lambrecht,  
 WanZhen Liang,  C. Ochsenfeld,  V. A. Rassolov,  L. V. Slipchenko,  
 J. E. Subotnik,  T. Van Voorhis,  J. M. Herbert,  A. I. Krylov,  
 P. M. W. Gill,  M. Head-Gordon

 Contributors to earlier versions of Q-Chem not listed above: 
 R. D. Adamson,  B. Austin,  J. Baker,  G. J. O. Beran,  K. Brandhorst,  
 S. T. Brown,  E. F. C. Byrd,  A. K. Chakraborty,  C.-L. Cheng,  
 Siu Hung Chien,  D. M. Chipman,  D. L. Crittenden,  H. Dachsel,  
 R. J. Doerksen,  A. D. Dutoi,  L. Fusti-Molnar,  W. A. Goddard III,  
 A. Golubeva-Zadorozhnaya,  S. R. Gwaltney,  G. Hawkins,  A. Heyden,  
 S. Hirata,  G. Kedziora,  F. J. Keil,  C. Kelley,  Jihan Kim,  R. A. King,  
 R. Z. Khaliullin,  P. P. Korambath,  W. Kurlancheek,  A. M. Lee,  M. S. Lee,  
 S. V. Levchenko,  Ching Yeh Lin,  D. Liotard,  R. C. Lochan,  I. Lotan,  
 P. E. Maslen,  N. Nair,  D. P. O'Neill,  D. Neuhauser,  E. Neuscamman,  
 C. M. Oana,  R. Olson,  B. Peters,  R. Peverati,  P. A. Pieniazek,  
 Y. M. Rhee,  J. Ritchie,  M. A. Rohrdanz,  E. Rosta,  N. J. Russ,  
 H. F. Schaefer III,  N. E. Schultz,  N. Shenvi,  A. C. Simmonett,  A. Sodt,  
 D. Stuck,  K. S. Thanthiriwatte,  V. Vanovschi,  Tao Wang,  A. Warshel,  
 C. F. Williams,  Q. Wu,  X. Xu,  W. Zhang

 Please cite Q-Chem as follows:
 Y. Shao et al., Mol. Phys. 113, 184-215 (2015)
 DOI: 10.1080/00268976.2014.952696

 Q-Chem 5.2.0 for Intel X86 EM64T Linux

 Parts of Q-Chem use Armadillo 8.300.2 (Tropical Shenanigans).
 http://arma.sourceforge.net/

 Q-Chem begins on Sun Sep 26 02:51:36 2021  

Host: cori01
0

     Scratch files written to /tmp/qchem53566//
 May1019 |scratch|qcdevops|jenkins|workspace|build_RNUM -1
Processing $rem in /global/common/cori/software/qchem/5.2/config/preferences:
	 MEM_TOTAL  96000 
NAlpha2: 98
NElect   98
Mult     1
Symmetry turned off for PCM/SM12/SMD calculation

 Q-Chem warning in module libgen/rem_setup.C, line 2803:

 Neither GIA nor STOLL is specified by user. Use STOLL as the default


Checking the input file for inconsistencies... 	...done.

--------------------------------------------------------------
User input:
--------------------------------------------------------------
$comment
SSI-012ASP-026TYR-1.pdb
$end

$molecule
-1 1
--
-1 1
C    1.119712573110    1.131829761841   -2.026382582667
C    0.603712573110    2.574829761841   -2.023382582667
C    2.410712573110    0.964829761841   -1.264382582667
O    3.481712573110    1.266829761841   -1.835382582667
O    2.357712573110    0.498829761841   -0.116382582667
H    0.342712573110    0.489829761841   -1.614382582667
H    1.307712573110    0.792829761841   -3.036382582667
H    0.263712573110    2.798829761841   -1.011382582667
H   -0.228932426890    2.659607761841   -2.737186582667
H    1.392255573110    3.297660761841   -2.279731582667
--
0 1
C   -3.630287426890   -1.433170238159   -0.792382582667
C   -0.828287426890    0.399829761841    1.050617417333
C   -1.900287426890    0.131829761841    0.186617417333
C   -0.291287426890   -0.627170238159    1.823617417333
C   -2.436287426890   -1.160170238159    0.087617417333
C   -0.822287426890   -1.917170238159    1.741617417333
C   -1.888287426890   -2.178170238159    0.878617417333
O    0.740712573110   -0.340170238159    2.663617417333
H   -0.426287426890    1.399829761841    1.118617417333
H   -2.319287426890    0.934829761841   -0.404382582667
H    1.090712573110    0.529829761841    2.454617417333
H   -0.399287426890   -2.703170238159    2.346617417333
H   -4.162287426890   -0.498170238159   -0.963382582667
H   -4.307287426890   -2.067170238159   -0.217382582667
H   -2.302287426890   -3.176170238159    0.826617417333
H   -3.442478426890   -1.926530238159   -1.757433582667
$end

$rem
JOBTYPE			EDA
EDA2			1
method			wB97X-V
BASIS			def2-TZVPD
XC_GRID			000099000590
NL_GRID			1
UNRESTRICTED		FALSE
MAX_SCF_CYCLES		200
SYMMETRY		FALSE
SYM_IGNORE		TRUE
MEM_STATIC		2000
BASIS_LIN_DEP_THRESH 	6
THRESH 			14
SCF_CONVERGENCE 	8
SCF_PRINT_FRGM 		TRUE
SOLVENT_METHOD          PCM
$end

$PCM
THEORY                  CPCM
METHOD                  SWIG
SOLVER                  INVERSION
RADII                   UFF
HPOINTS                 302
HEAVYPOINTS             302
PRINTLEVEL              0
$END

$SOLVENT
DIELECTRIC              78.390000 ! water
$END
--------------------------------------------------------------
 ----------------------------------------------------------------
             Standard Nuclear Orientation (Angstroms)
    I     Atom           X                Y                Z
 ----------------------------------------------------------------
    1      C       1.1197125731     1.1318297618    -2.0263825827
    2      C       0.6037125731     2.5748297618    -2.0233825827
    3      C       2.4107125731     0.9648297618    -1.2643825827
    4      O       3.4817125731     1.2668297618    -1.8353825827
    5      O       2.3577125731     0.4988297618    -0.1163825827
    6      H       0.3427125731     0.4898297618    -1.6143825827
    7      H       1.3077125731     0.7928297618    -3.0363825827
    8      H       0.2637125731     2.7988297618    -1.0113825827
    9      H      -0.2289324269     2.6596077618    -2.7371865827
   10      H       1.3922555731     3.2976607618    -2.2797315827
   11      C      -3.6302874269    -1.4331702382    -0.7923825827
   12      C      -0.8282874269     0.3998297618     1.0506174173
   13      C      -1.9002874269     0.1318297618     0.1866174173
   14      C      -0.2912874269    -0.6271702382     1.8236174173
   15      C      -2.4362874269    -1.1601702382     0.0876174173
   16      C      -0.8222874269    -1.9171702382     1.7416174173
   17      C      -1.8882874269    -2.1781702382     0.8786174173
   18      O       0.7407125731    -0.3401702382     2.6636174173
   19      H      -0.4262874269     1.3998297618     1.1186174173
   20      H      -2.3192874269     0.9348297618    -0.4043825827
   21      H       1.0907125731     0.5298297618     2.4546174173
   22      H      -0.3992874269    -2.7031702382     2.3466174173
   23      H      -4.1622874269    -0.4981702382    -0.9633825827
   24      H      -4.3072874269    -2.0671702382    -0.2173825827
   25      H      -2.3022874269    -3.1761702382     0.8266174173
   26      H      -3.4424784269    -1.9265302382    -1.7574335827
 ----------------------------------------------------------------
 Nuclear Repulsion Energy =         752.32413788 hartrees
 There are       49 alpha and       49 beta electrons
 Requested basis set is def2-TZVPD
 There are 237 shells and 607 basis functions

 Total QAlloc Memory Limit  96000 MB
 Mega-Array Size      1956 MB
 MEM_STATIC part      2000 MB
 Discretize the solute cavity surface with Lebedev spheres
	Using 302 Lebedev grid points for each H atom
	Using 302 Lebedev grid points for other atoms
	Atomic van der Waals radii will be scaled by 1.20
 Remove points where switching function is < 1.0e-08
 Keep 2884 surface tesserae and discard 4968 interior tesserae
 Molecular Surface Area = 291.996 Angst**2
 A cutoff of  1.0D-14 yielded  24590 shell pairs
 There are    162202 function pairs (    205241 Cartesian)
 Smallest overlap matrix eigenvalue = 4.94E-07
 Linear dependence detected in AO basis
 Tighter screening thresholds may be required for diffuse basis sets
 Use S2THRESH > 14 and THRESH = 14 in case of SCF convergence issues
 Number of orthogonalized atomic orbitals = 605
 Maximum deviation from orthogonality = 2.431E-10

 Scale SEOQF with 1.000000e-01/1.000000e-01/1.000000e-01

 Standard Electronic Orientation quadrupole field applied
 Nucleus-field energy     =     0.0000000036 hartrees

 -----------------------------------------------------------------------
  General SCF calculation program by
  Eric Jon Sundstrom, Paul Horn, Yuezhi Mao, Dmitri Zuev, Alec White,
  David Stuck, Shaama M.S., Shane Yost, Joonho Lee, David Small,
  Daniel Levine, Susi Lehtola, Hugh Burton, Evgeny Epifanovsky
 -----------------------------------------------------------------------
================================================================
                 ALMO-EDA with the EDA2 driver                  
================================================================
 The second-generation ALMO-EDA (for DFT):                      
 P. R. Horn, Y. Mao and M. Head-Gordon, PCCP, 18, 23067 (2016)  
 Decomposition of the frozen energy:                            
 P. R. Horn, Y. Mao and M. Head-Gordon, JCP, 144, 114107 (2016) 
 FERF model for polarization:                                   
 P. R. Horn and M. Head-Gordon, JCP, 143, 114111 (2015)         
Using eda2 option set 1
Option set summary: Frozen orbital wavefunction, initial wavefunction decomposition, and nDQ polarization.
--------------------------------
Printing EDA Options
--------------------------------
eda_child_super_basis      0
fragmo_guess_mode          0
child_mp                   1
child_mp_orders            232
cls_elec                   1
cls_disp                   0
scfmi_mode                 1
scfmi_occs                 0
scfmi_virts                0
frz_relax                  0
frz_relax_method           0
dc_pen_start               0
dc_pen_conv                0
dc_pen_increment           0
dc_pen_steps               0
dc_pen_thresh_factor       0
dc_pen_pre_newton_thresh   0
frz_ortho_decomp           1
frz_ortho_decomp_conv      6
frgm_method                2
scfmi_freeze_ss            0
separate_rehyb             0
plot_diff_den              0
eda_nocv                   0
eda_vct_relax              1
disp_free_x                0
disp_free_c                0
eda_bsse                   0
eda_pct_a                  0
eda_covp                   0
--------------------------------
Attempting to make child job directory: /tmp/qchem53566//Frg1/
Attempting to make child job directory: /tmp/qchem53566//Frg2/
Creating input file /tmp/qchem53566/Frg1.input
using default PutDataFrgm: nothing
calling putenv with: QCSCRATCH=/tmp/qchem53566/ 
calling putenv with: QCLOCALSCR=/tmp/qchem53566/ 
Spawning Job For Fragment 0
                  Welcome to Q-Chem
     A Quantum Leap Into The Future Of Chemistry


 Q-Chem 5.2, Q-Chem, Inc., Pleasanton, CA (2019)

 License issued to: National Energy Research Scientific Computing Center

 Yihan Shao,  Zhengting Gan,  E. Epifanovsky,  A. T. B. Gilbert,  M. Wormit,  
 J. Kussmann,  A. W. Lange,  A. Behn,  Jia Deng,  Xintian Feng,  D. Ghosh,  
 M. Goldey,  P. R. Horn,  L. D. Jacobson,  I. Kaliman,  T. Kus,  A. Landau,  
 Jie Liu,  E. I. Proynov,  R. M. Richard,  R. P. Steele,  E. J. Sundstrom,  
 H. L. Woodcock III,  P. M. Zimmerman,  D. Zuev,  B. Albrecht,  E. Alguire,  
 S. A. Baeppler,  D. Barton,  Z. Benda,  Y. A. Bernard,  E. J. Berquist,  
 K. B. Bravaya,  H. Burton,  D. Casanova,  Chun-Min Chang,  Yunqing Chen,  
 A. Chien,  K. D. Closser,  M. P. Coons,  S. Coriani,  S. Dasgupta,  
 A. L. Dempwolff,  M. Diedenhofen,  Hainam Do,  R. G. Edgar,  Po-Tung Fang,  
 S. Faraji,  S. Fatehi,  Qingguo Feng,  K. D. Fenk,  J. Fosso-Tande,  
 J. Gayvert,  Qinghui Ge,  A. Ghysels,  G. Gidofalvi,  J. Gomes,  
 J. Gonthier,  A. Gunina,  D. Hait,  M. W. D. Hanson-Heine,  
 P. H. P. Harbach,  A. W. Hauser,  M. F. Herbst,  J. E. Herr,  
 E. G. Hohenstein,  Z. C. Holden,  Kerwin Hui,  B. C. Huynh,  T.-C. Jagau,  
 Hyunjun Ji,  B. Kaduk,  K. Khistyaev,  Jaehoon Kim,  P. Klunzinger,  K. Koh,  
 D. Kosenkov,  L. Koulias,  T. Kowalczyk,  C. M. Krauter,  A. Kunitsa,  
 Ka Un Lao,  A. Laurent,  K. V. Lawler,  Joonho Lee,  D. Lefrancois,  
 S. Lehtola,  D. S. Levine,  Yi-Pei Li,  You-Sheng Lin,  Fenglai Liu,  
 E. Livshits,  A. Luenser,  P. Manohar,  E. Mansoor,  S. F. Manzer,  
 Shan-Ping Mao,  Yuezhi Mao,  N. Mardirossian,  A. V. Marenich,  
 T. Markovich,  L. A. Martinez-Martinez,  S. A. Maurer,  N. J. Mayhall,  
 S. C. McKenzie,  J.-M. Mewes,  P. Morgante,  A. F. Morrison,  
 J. W. Mullinax,  K. Nanda,  T. S. Nguyen-Beck,  R. Olivares-Amaya,  
 J. A. Parkhill,  Zheng Pei,  T. M. Perrine,  F. Plasser,  P. Pokhilko,  
 S. Prager,  A. Prociuk,  E. Ramos,  D. R. Rehn,  F. Rob,  M. Scheurer,  
 M. Schneider,  N. Sergueev,  S. M. Sharada,  S. Sharma,  D. W. Small,  
 T. Stauch,  T. Stein,  Yu-Chuan Su,  A. J. W. Thom,  A. Tkatchenko,  
 T. Tsuchimochi,  N. M. Tubman,  L. Vogt,  M. L. Vidal,  O. Vydrov,  
 M. A. Watson,  J. Wenzel,  M. de Wergifosse,  T. A. Wesolowski,  A. White,  
 J. Witte,  A. Yamada,  Jun Yang,  K. Yao,  S. Yeganeh,  S. R. Yost,  
 Zhi-Qiang You,  A. Zech,  Igor Ying Zhang,  Xing Zhang,  Yan Zhao,  
 Ying Zhu,  B. R. Brooks,  G. K. L. Chan,  C. J. Cramer,  M. S. Gordon,  
 W. J. Hehre,  A. Klamt,  M. W. Schmidt,  C. D. Sherrill,  D. G. Truhlar,  
 A. Aspuru-Guzik,  R. Baer,  A. T. Bell,  N. A. Besley,  Jeng-Da Chai,  
 A. E. DePrince, III,  R. A. DiStasio Jr.,  A. Dreuw,  B. D. Dunietz,  
 T. R. Furlani,  Chao-Ping Hsu,  Yousung Jung,  Jing Kong,  D. S. Lambrecht,  
 WanZhen Liang,  C. Ochsenfeld,  V. A. Rassolov,  L. V. Slipchenko,  
 J. E. Subotnik,  T. Van Voorhis,  J. M. Herbert,  A. I. Krylov,  
 P. M. W. Gill,  M. Head-Gordon

 Contributors to earlier versions of Q-Chem not listed above: 
 R. D. Adamson,  B. Austin,  J. Baker,  G. J. O. Beran,  K. Brandhorst,  
 S. T. Brown,  E. F. C. Byrd,  A. K. Chakraborty,  C.-L. Cheng,  
 Siu Hung Chien,  D. M. Chipman,  D. L. Crittenden,  H. Dachsel,  
 R. J. Doerksen,  A. D. Dutoi,  L. Fusti-Molnar,  W. A. Goddard III,  
 A. Golubeva-Zadorozhnaya,  S. R. Gwaltney,  G. Hawkins,  A. Heyden,  
 S. Hirata,  G. Kedziora,  F. J. Keil,  C. Kelley,  Jihan Kim,  R. A. King,  
 R. Z. Khaliullin,  P. P. Korambath,  W. Kurlancheek,  A. M. Lee,  M. S. Lee,  
 S. V. Levchenko,  Ching Yeh Lin,  D. Liotard,  R. C. Lochan,  I. Lotan,  
 P. E. Maslen,  N. Nair,  D. P. O'Neill,  D. Neuhauser,  E. Neuscamman,  
 C. M. Oana,  R. Olson,  B. Peters,  R. Peverati,  P. A. Pieniazek,  
 Y. M. Rhee,  J. Ritchie,  M. A. Rohrdanz,  E. Rosta,  N. J. Russ,  
 H. F. Schaefer III,  N. E. Schultz,  N. Shenvi,  A. C. Simmonett,  A. Sodt,  
 D. Stuck,  K. S. Thanthiriwatte,  V. Vanovschi,  Tao Wang,  A. Warshel,  
 C. F. Williams,  Q. Wu,  X. Xu,  W. Zhang

 Please cite Q-Chem as follows:
 Y. Shao et al., Mol. Phys. 113, 184-215 (2015)
 DOI: 10.1080/00268976.2014.952696

 Q-Chem 5.2.0 for Intel X86 EM64T Linux

 Parts of Q-Chem use Armadillo 8.300.2 (Tropical Shenanigans).
 http://arma.sourceforge.net/

 Q-Chem begins on Sun Sep 26 02:51:43 2021  

Host: cori01
0

     Scratch files written to /tmp/qchem53566//Frg1//
 May1019 |scratch|qcdevops|jenkins|workspace|build_RNUM -1
Processing $rem in /global/common/cori/software/qchem/5.2/config/preferences:
	 MEM_TOTAL  96000 
NAlpha2: 40
NElect   40
Mult     1
Symmetry turned off for PCM/SM12/SMD calculation

Checking the input file for inconsistencies... 	...done.

--------------------------------------------------------------
User input:
--------------------------------------------------------------
$molecule
-1 1
 6	1.1197125731	1.1318297618	-2.0263825827
 6	0.6037125731	2.5748297618	-2.0233825827
 6	2.4107125731	0.9648297618	-1.2643825827
 8	3.4817125731	1.2668297618	-1.8353825827
 8	2.3577125731	0.4988297618	-0.1163825827
 1	0.3427125731	0.4898297618	-1.6143825827
 1	1.3077125731	0.7928297618	-3.0363825827
 1	0.2637125731	2.7988297618	-1.0113825827
 1	-0.2289324269	2.6596077618	-2.7371865827
 1	1.3922555731	3.2976607618	-2.2797315827
$end
$rem
EDA2		1
METHOD		WB97X-V
BASIS		DEF2-TZVPD
XC_GRID		000099000590
NL_GRID		1
UNRESTRICTED		FALSE
MAX_SCF_CYCLES		200
SYMMETRY		FALSE
SYM_IGNORE		TRUE
BASIS_LIN_DEP_THRESH		6
THRESH		14
SCF_CONVERGENCE		8
SCF_PRINT_FRGM		TRUE
SOLVENT_METHOD		PCM
!required keywords
JOBTYPE		SP
SYM_IGNORE		TRUE
SUBSYSTEM		TRUE
GEN_SCFMAN		TRUE
CHILD_INSTRUCTION		2
SYM_IGNORE		TRUE
SCFMI		0
RI_K 0		
PARI_K 0		
MIN_PARI_K 0		
IARI_K 0		
OCC_RI_K 0		
PURECART		1111
MEM_STATIC		2000
MEM_TOTAL		96000
GUI		0
CHILD_MP		1
CHILD_MP_ORDERS		232
FRZ_RELAX		0
FRZ_RELAX_METHOD		0
EDA_CLS_ELEC		1
EDA_CLS_DISP		0
FRZ_ORTHO_DECOMP		1
EDA2		FALSE
FRGM_METHOD		FALSE
CIS_N_ROOTS  0
LOCAL_CIS    0
CIS_RLX_DNS  1
$end
$pcm
THEORY                  CPCM
METHOD                  SWIG
SOLVER                  INVERSION
RADII                   UFF
HPOINTS                 302
HEAVYPOINTS             302
PRINTLEVEL              0
$end
$solvent
DIELECTRIC              78.390000 ! water
$end
--------------------------------------------------------------
 ----------------------------------------------------------------
             Standard Nuclear Orientation (Angstroms)
    I     Atom           X                Y                Z
 ----------------------------------------------------------------
    1      C       1.1197125731     1.1318297618    -2.0263825827
    2      C       0.6037125731     2.5748297618    -2.0233825827
    3      C       2.4107125731     0.9648297618    -1.2643825827
    4      O       3.4817125731     1.2668297618    -1.8353825827
    5      O       2.3577125731     0.4988297618    -0.1163825827
    6      H       0.3427125731     0.4898297618    -1.6143825827
    7      H       1.3077125731     0.7928297618    -3.0363825827
    8      H       0.2637125731     2.7988297618    -1.0113825827
    9      H      -0.2289324269     2.6596077618    -2.7371865827
   10      H       1.3922555731     3.2976607618    -2.2797315827
 ----------------------------------------------------------------
 Nuclear Repulsion Energy =         169.50983351 hartrees
 There are       20 alpha and       20 beta electrons
 Requested basis set is def2-TZVPD
 There are 92 shells and 236 basis functions

 Total QAlloc Memory Limit  96000 MB
 Mega-Array Size      1956 MB
 MEM_STATIC part      2000 MB
 Discretize the solute cavity surface with Lebedev spheres
	Using 302 Lebedev grid points for each H atom
	Using 302 Lebedev grid points for other atoms
	Atomic van der Waals radii will be scaled by 1.20
 Remove points where switching function is < 1.0e-08
 Keep 1311 surface tesserae and discard 1709 interior tesserae
 Molecular Surface Area = 144.388 Angst**2

                       Distance Matrix (Angstroms)
             C (  1)   C (  2)   C (  3)   O (  4)   O (  5)   H (  6)
   C (  2)  1.532486
   C (  3)  1.508381  2.536421
   O (  4)  2.373552  3.166874  1.250714
   O (  5)  2.362506  3.320081  1.240108  2.192752
   H (  6)  1.088870  2.140707  2.150523  3.241279  2.510839
   H (  7)  1.081834  2.167328  2.094320  2.528508  3.116943  1.745027
   H (  8)  2.131162  1.090835  2.834991  3.658077  3.236643  2.387746
   H (  9)  2.158284  1.100001  3.465422  4.064722  4.269462  2.509064
   H ( 10)  2.197564  1.100000  2.740491  2.947465  3.666830  3.070528
             H (  7)   H (  8)   H (  9)
   H (  8)  3.035555
   H (  9)  2.436320  1.800134
   H ( 10)  2.617985  1.769506  1.801285
 
 A cutoff of  1.0D-14 yielded   4191 shell pairs
 There are     28055 function pairs (     35756 Cartesian)
 Smallest overlap matrix eigenvalue = 1.11E-05

 Scale SEOQF with 1.000000e-01/1.000000e-01/1.000000e-01

 Standard Electronic Orientation quadrupole field applied
 Nucleus-field energy     =     0.0000000016 hartrees
 Guess from superposition of atomic densities
 Warning:  Energy on first SCF cycle will be non-variational
 SAD guess density has 38.612942 electrons

 -----------------------------------------------------------------------
  General SCF calculation program by
  Eric Jon Sundstrom, Paul Horn, Yuezhi Mao, Dmitri Zuev, Alec White,
  David Stuck, Shaama M.S., Shane Yost, Joonho Lee, David Small,
  Daniel Levine, Susi Lehtola, Hugh Burton, Evgeny Epifanovsky
 -----------------------------------------------------------------------
 Exchange:     0.1670 Hartree-Fock + 1.0000 wB97X-V + LR-HF
 Correlation:  1.0000 wB97X-V
 Using Euler-Maclaurin-Lebedev (99,590) quadrature formula
 Nonlocal Correlation:  VV10 with C = 0.0100 and b = 6.00 and scale = 1.00000
 Grid used for NLC:  SG-1 standard quadrature
Energy prior to optimization (guess energy) = -267.079668307557
Begin Timing: Total SCF Calculation
begin iterations for algorithm: DIIS         
the SCF tolerance is set to 1.00e-08
    1    -267.0796683076      1.27e-02     00000 
    2    -263.0575162674      2.08e-02     00000 
    3    -267.7926523361      5.02e-03     00000 
    4    -267.9278484248      2.20e-03     00000 
    5    -267.9549806242      3.56e-04     00000 
    6    -267.9560414086      2.17e-04     00000 
    7    -267.9562538601      6.68e-05     00000 
    8    -267.9562786724      1.66e-05     00000 
    9    -267.9562807653      6.34e-06     00000 
   10    -267.9562811068      2.13e-06     00000 
   11    -267.9562811708      3.22e-07     00000 
   12    -267.9562811744      1.10e-07     00000 
   13    -267.9562811746      4.77e-08     00000 
   14    -267.9562811746      1.31e-08     00000 
   15    -267.9562811746      2.17e-09     00000 Convergence criterion met
Timing for Total SCF: 642.00s (wall), 1272.60s (cpu)

************** Final PCM Free Energy Summary **************
 G_electrostatic  =      -0.10109086 hartree =     -63.43547220 kcal/mol
 G_cavitation     =       0.00000000 hartree =       0.00000000 kcal/mol
 G_dispersion     =       0.00000000 hartree =       0.00000000 kcal/mol
 G_repulsion      =       0.00000000 hartree =       0.00000000 kcal/mol
 --------------------------------------------------
 Non-electrostatic Free Energy =       0.00000000 hartree =       0.00000000 kcal/mol
 Total                         =      -0.10109086 hartree =     -63.43547220 kcal/mol
 --------------------------------------------------
 SCF Energy (H0 + V/2)                       =    -267.95628117 
 Solute Internal Energy (H0)                 =    -267.85519031 
 Total Free Energy (H0 + V/2 + non-elec)     =    -267.95628117 hartree
                                             = -168145.10425102 kcal/mol
***********************************************************

E_pcm = -0.1010908602
Multipole orders to be included
        2
        3
computing dipole RHS
computing quadrupole RHS
total number of RHS in solve_reponses: 8
RHS batch sizes
        8
Beginning Block Conjugate Gradient Iterations. Batch Number: 0
computing hessian-vector products by finite difference
              1      6.22e-01     00000 Conjugate Gradient Iteration
computing hessian-vector products by finite difference
              2      2.21e-01     00000 Conjugate Gradient Iteration
computing hessian-vector products by finite difference
              3      5.92e-02     00000 Conjugate Gradient Iteration
computing hessian-vector products by finite difference
              4      1.52e-02     00000 Conjugate Gradient Iteration
computing hessian-vector products by finite difference
              5      2.73e-03     00000 Conjugate Gradient Iteration
computing hessian-vector products by finite difference
              6      5.89e-04     00000 Conjugate Gradient Iteration
computing hessian-vector products by finite difference
              7      1.02e-04     00000 Conjugate Gradient Iteration
computing hessian-vector products by finite difference
              8      1.39e-05     00000 Conjugate Gradient Iteration
computing hessian-vector products by finite difference
              9      3.45e-06     00000 Conjugate Gradient Iteration
computing hessian-vector products by finite difference
             10      5.36e-07     00000 Conjugate Gradient Iteration
computing hessian-vector products by finite difference
             11      1.27e-07     00000 Conjugate Gradient Iteration
computing hessian-vector products by finite difference
             12      2.46e-08     00000 Conjugate Gradient Iteration
computing hessian-vector products by finite difference
             13      3.12e-09     00000 CG Converged
batch 0 complete
Done Calculating Responses
TESTING ORTHOGONALIZATION OF MULTIPOLE BASIS
Multipole virts passed orthogonality test
Virts Per Order
           60
          100
 
 --------------------------------------------------------------
 
                    Orbital Energies (a.u.)
 --------------------------------------------------------------
 
 Alpha MOs
 -- Occupied --
-19.1204 -19.1190 -10.3173 -10.2502 -10.2387  -1.1342  -1.0325  -0.8832
 -0.7456  -0.5974  -0.5483  -0.5334  -0.5056  -0.4867  -0.4694  -0.4357
 -0.4294  -0.3280  -0.3208  -0.3075
 -- Virtual --
  0.0633   0.0881   0.0926   0.0948   0.1240   0.1308   0.1364   0.1435
  0.1465   0.1788   0.1834   0.1929   0.1964   0.2025   0.2160   0.2260
  0.2549   0.2639   0.2786   0.2895   0.2978   0.3041   0.3223   0.3355
  0.3419   0.3453   0.3558   0.3605   0.3651   0.3751   0.3795   0.3922
  0.3998   0.4095   0.4204   0.4291   0.4351   0.4499   0.4669   0.4678
  0.4850   0.4938   0.4992   0.5122   0.5181   0.5273   0.5306   0.5395
  0.5500   0.5603   0.5719   0.5860   0.6086   0.6326   0.6436   0.6507
  0.6772   0.6791   0.6853   0.6960   0.7117   0.7320   0.7435   0.7515
  0.7625   0.7720   0.7805   0.7940   0.8047   0.8103   0.8180   0.8240
  0.8493   0.8650   0.8787   0.8933   0.9067   0.9286   0.9917   1.0200
  1.0320   1.0577   1.0785   1.0866   1.1170   1.1702   1.1951   1.2179
  1.2472   1.2763   1.2977   1.3184   1.3376   1.3818   1.3946   1.4262
  1.4671   1.4884   1.5272   1.6042   1.6474   1.7559   1.8613   1.8738
  1.9022   1.9081   1.9261   1.9447   1.9592   1.9739   1.9932   2.0001
  2.0439   2.0726   2.0993   2.1265   2.1862   2.2087   2.2200   2.2560
  2.2936   2.3375   2.3751   2.3962   2.4799   2.4984   2.5023   2.5323
  2.5686   2.5816   2.6077   2.6430   2.6559   2.7096   2.7661   2.8119
  2.8479   2.8559   2.8867   2.9030   2.9235   2.9637   3.0414   3.0830
  3.1337   3.1680   3.2634   3.2676   3.2838   3.2982   3.3172   3.3631
  3.3968   3.4031   3.4338   3.4752   3.5226   3.5404   3.5726   3.5772
  3.6137   3.6337   3.6548   3.6775   3.6891   3.7418   3.7650   3.7792
  3.8347   3.9043   3.9878   4.0471   4.0956   4.1282   4.1807   4.2578
  4.2785   4.4849   4.5488   4.6089   4.6644   4.7457   4.8243   4.8276
  4.8653   5.0081   5.1155   5.3399   5.3683   5.3810   5.3897   5.5226
  5.7467   5.7877   5.8448   6.0463   6.2802   6.3545   6.3892   6.6437
  6.6538   6.7324   6.7699   6.7879   6.9960   7.0047   7.0685   7.2675
  7.3851   7.4122   7.4403  22.6174  22.7954  23.8271  44.2650  44.4150
 --------------------------------------------------------------
 
          Ground-State Mulliken Net Atomic Charges

     Atom                 Charge (a.u.)
  ----------------------------------------
      1 C                     0.149708
      2 C                    -0.764456
      3 C                     0.146387
      4 O                    -0.691733
      5 O                    -0.671714
      6 H                     0.120121
      7 H                     0.140890
      8 H                     0.193337
      9 H                     0.175067
     10 H                     0.202391
  ----------------------------------------
  Sum of atomic charges =    -1.000000

 -----------------------------------------------------------------
                    Cartesian Multipole Moments
 -----------------------------------------------------------------
    Charge (ESU x 10^10)
                -4.8032
    Dipole Moment (Debye)
         X     -15.4610      Y      -4.1362      Z       3.9116
       Tot      16.4757
    Quadrupole Moments (Debye-Ang)
        XX     -84.7314     XY     -14.7162     YY     -37.8230
        XZ      16.8856     YZ       6.3668     ZZ     -41.8200
    Octopole Moments (Debye-Ang^2)
       XXX    -367.1171    XXY     -98.5380    XYY     -78.8786
       YYY    -141.0211    XXZ     116.2180    XYZ      24.2158
       YYZ      59.2048    XZZ     -99.1631    YZZ     -58.1866
       ZZZ     166.3480
    Hexadecapole Moments (Debye-Ang^3)
      XXXX   -1625.5140   XXXY    -404.7145   XXYY    -316.4112
      XYYY    -223.0637   YYYY    -540.1954   XXXZ     508.8535
      XXYZ     170.2089   XYYZ     115.5128   YYYZ     253.8475
      XXZZ    -403.8710   XYZZ    -121.1853   YYZZ    -208.7418
      XZZZ     329.4602   YZZZ     264.4899   ZZZZ    -640.1577
 -----------------------------------------------------------------
Archival summary:
1\1\nid00540\SP\ProcedureUnspecified\BasisUnspecified\235(1-,1)\meili\SunSep2605:52:232021SunSep2605:52:232021\0\\#,ProcedureUnspecified,BasisUnspecified,\\-1,1\C\O,1,1.24011\O,1,1.25071,2,123.364\C,1,1.50838,2,118.208,3,177.878,0\H,4,1.08183,1,106.751,2,-137.055,0\H,4,1.08887,1,110.752,2,-20.9073,0\C,4,1.53249,1,113.044,2,100.847,0\H,7,1.09083,4,107.465,1,-70.2481,0\H,7,1.1,4,112.143,1,47.9741,0\H,7,1.1,4,109.037,1,169.951,0\\\@

 Total job time:  10841.46s(wall), 21430.88s(cpu) 
 Sun Sep 26 05:52:24 2021

        *************************************************************
        *                                                           *
        *  Thank you very much for using Q-Chem.  Have a nice day.  *
        *                                                           *
        *************************************************************


Done Job For Fragment 0
calling putenv with: QCSCRATCH=/global/cscratch1/sd/meili 
calling putenv with: QCLOCALSCR=/tmp 
calling putenv with: QCTHREADS=32 
Creating input file /tmp/qchem53566/Frg2.input
using default PutDataFrgm: nothing
calling putenv with: QCSCRATCH=/tmp/qchem53566/ 
calling putenv with: QCLOCALSCR=/tmp/qchem53566/ 
Spawning Job For Fragment 1
                  Welcome to Q-Chem
     A Quantum Leap Into The Future Of Chemistry


 Q-Chem 5.2, Q-Chem, Inc., Pleasanton, CA (2019)

 License issued to: National Energy Research Scientific Computing Center

 Yihan Shao,  Zhengting Gan,  E. Epifanovsky,  A. T. B. Gilbert,  M. Wormit,  
 J. Kussmann,  A. W. Lange,  A. Behn,  Jia Deng,  Xintian Feng,  D. Ghosh,  
 M. Goldey,  P. R. Horn,  L. D. Jacobson,  I. Kaliman,  T. Kus,  A. Landau,  
 Jie Liu,  E. I. Proynov,  R. M. Richard,  R. P. Steele,  E. J. Sundstrom,  
 H. L. Woodcock III,  P. M. Zimmerman,  D. Zuev,  B. Albrecht,  E. Alguire,  
 S. A. Baeppler,  D. Barton,  Z. Benda,  Y. A. Bernard,  E. J. Berquist,  
 K. B. Bravaya,  H. Burton,  D. Casanova,  Chun-Min Chang,  Yunqing Chen,  
 A. Chien,  K. D. Closser,  M. P. Coons,  S. Coriani,  S. Dasgupta,  
 A. L. Dempwolff,  M. Diedenhofen,  Hainam Do,  R. G. Edgar,  Po-Tung Fang,  
 S. Faraji,  S. Fatehi,  Qingguo Feng,  K. D. Fenk,  J. Fosso-Tande,  
 J. Gayvert,  Qinghui Ge,  A. Ghysels,  G. Gidofalvi,  J. Gomes,  
 J. Gonthier,  A. Gunina,  D. Hait,  M. W. D. Hanson-Heine,  
 P. H. P. Harbach,  A. W. Hauser,  M. F. Herbst,  J. E. Herr,  
 E. G. Hohenstein,  Z. C. Holden,  Kerwin Hui,  B. C. Huynh,  T.-C. Jagau,  
 Hyunjun Ji,  B. Kaduk,  K. Khistyaev,  Jaehoon Kim,  P. Klunzinger,  K. Koh,  
 D. Kosenkov,  L. Koulias,  T. Kowalczyk,  C. M. Krauter,  A. Kunitsa,  
 Ka Un Lao,  A. Laurent,  K. V. Lawler,  Joonho Lee,  D. Lefrancois,  
 S. Lehtola,  D. S. Levine,  Yi-Pei Li,  You-Sheng Lin,  Fenglai Liu,  
 E. Livshits,  A. Luenser,  P. Manohar,  E. Mansoor,  S. F. Manzer,  
 Shan-Ping Mao,  Yuezhi Mao,  N. Mardirossian,  A. V. Marenich,  
 T. Markovich,  L. A. Martinez-Martinez,  S. A. Maurer,  N. J. Mayhall,  
 S. C. McKenzie,  J.-M. Mewes,  P. Morgante,  A. F. Morrison,  
 J. W. Mullinax,  K. Nanda,  T. S. Nguyen-Beck,  R. Olivares-Amaya,  
 J. A. Parkhill,  Zheng Pei,  T. M. Perrine,  F. Plasser,  P. Pokhilko,  
 S. Prager,  A. Prociuk,  E. Ramos,  D. R. Rehn,  F. Rob,  M. Scheurer,  
 M. Schneider,  N. Sergueev,  S. M. Sharada,  S. Sharma,  D. W. Small,  
 T. Stauch,  T. Stein,  Yu-Chuan Su,  A. J. W. Thom,  A. Tkatchenko,  
 T. Tsuchimochi,  N. M. Tubman,  L. Vogt,  M. L. Vidal,  O. Vydrov,  
 M. A. Watson,  J. Wenzel,  M. de Wergifosse,  T. A. Wesolowski,  A. White,  
 J. Witte,  A. Yamada,  Jun Yang,  K. Yao,  S. Yeganeh,  S. R. Yost,  
 Zhi-Qiang You,  A. Zech,  Igor Ying Zhang,  Xing Zhang,  Yan Zhao,  
 Ying Zhu,  B. R. Brooks,  G. K. L. Chan,  C. J. Cramer,  M. S. Gordon,  
 W. J. Hehre,  A. Klamt,  M. W. Schmidt,  C. D. Sherrill,  D. G. Truhlar,  
 A. Aspuru-Guzik,  R. Baer,  A. T. Bell,  N. A. Besley,  Jeng-Da Chai,  
 A. E. DePrince, III,  R. A. DiStasio Jr.,  A. Dreuw,  B. D. Dunietz,  
 T. R. Furlani,  Chao-Ping Hsu,  Yousung Jung,  Jing Kong,  D. S. Lambrecht,  
 WanZhen Liang,  C. Ochsenfeld,  V. A. Rassolov,  L. V. Slipchenko,  
 J. E. Subotnik,  T. Van Voorhis,  J. M. Herbert,  A. I. Krylov,  
 P. M. W. Gill,  M. Head-Gordon

 Contributors to earlier versions of Q-Chem not listed above: 
 R. D. Adamson,  B. Austin,  J. Baker,  G. J. O. Beran,  K. Brandhorst,  
 S. T. Brown,  E. F. C. Byrd,  A. K. Chakraborty,  C.-L. Cheng,  
 Siu Hung Chien,  D. M. Chipman,  D. L. Crittenden,  H. Dachsel,  
 R. J. Doerksen,  A. D. Dutoi,  L. Fusti-Molnar,  W. A. Goddard III,  
 A. Golubeva-Zadorozhnaya,  S. R. Gwaltney,  G. Hawkins,  A. Heyden,  
 S. Hirata,  G. Kedziora,  F. J. Keil,  C. Kelley,  Jihan Kim,  R. A. King,  
 R. Z. Khaliullin,  P. P. Korambath,  W. Kurlancheek,  A. M. Lee,  M. S. Lee,  
 S. V. Levchenko,  Ching Yeh Lin,  D. Liotard,  R. C. Lochan,  I. Lotan,  
 P. E. Maslen,  N. Nair,  D. P. O'Neill,  D. Neuhauser,  E. Neuscamman,  
 C. M. Oana,  R. Olson,  B. Peters,  R. Peverati,  P. A. Pieniazek,  
 Y. M. Rhee,  J. Ritchie,  M. A. Rohrdanz,  E. Rosta,  N. J. Russ,  
 H. F. Schaefer III,  N. E. Schultz,  N. Shenvi,  A. C. Simmonett,  A. Sodt,  
 D. Stuck,  K. S. Thanthiriwatte,  V. Vanovschi,  Tao Wang,  A. Warshel,  
 C. F. Williams,  Q. Wu,  X. Xu,  W. Zhang

 Please cite Q-Chem as follows:
 Y. Shao et al., Mol. Phys. 113, 184-215 (2015)
 DOI: 10.1080/00268976.2014.952696

 Q-Chem 5.2.0 for Intel X86 EM64T Linux

 Parts of Q-Chem use Armadillo 8.300.2 (Tropical Shenanigans).
 http://arma.sourceforge.net/

 Q-Chem begins on Sun Sep 26 05:52:26 2021  

Host: cori01
0

     Scratch files written to /tmp/qchem53566//Frg2//
 May1019 |scratch|qcdevops|jenkins|workspace|build_RNUM -1
Processing $rem in /global/common/cori/software/qchem/5.2/config/preferences:
	 MEM_TOTAL  96000 
NAlpha2: 58
NElect   58
Mult     1
Symmetry turned off for PCM/SM12/SMD calculation

Checking the input file for inconsistencies... 	...done.

--------------------------------------------------------------
User input:
--------------------------------------------------------------
$molecule
0 1
 6	-3.6302874269	-1.4331702382	-0.7923825827
 6	-0.8282874269	0.3998297618	1.0506174173
 6	-1.9002874269	0.1318297618	0.1866174173
 6	-0.2912874269	-0.6271702382	1.8236174173
 6	-2.4362874269	-1.1601702382	0.0876174173
 6	-0.8222874269	-1.9171702382	1.7416174173
 6	-1.8882874269	-2.1781702382	0.8786174173
 8	0.7407125731	-0.3401702382	2.6636174173
 1	-0.4262874269	1.3998297618	1.1186174173
 1	-2.3192874269	0.9348297618	-0.4043825827
 1	1.0907125731	0.5298297618	2.4546174173
 1	-0.3992874269	-2.7031702382	2.3466174173
 1	-4.1622874269	-0.4981702382	-0.9633825827
 1	-4.3072874269	-2.0671702382	-0.2173825827
 1	-2.3022874269	-3.1761702382	0.8266174173
 1	-3.4424784269	-1.9265302382	-1.7574335827
$end
$rem
EDA2		1
METHOD		WB97X-V
BASIS		DEF2-TZVPD
XC_GRID		000099000590
NL_GRID		1
UNRESTRICTED		FALSE
MAX_SCF_CYCLES		200
SYMMETRY		FALSE
SYM_IGNORE		TRUE
BASIS_LIN_DEP_THRESH		6
THRESH		14
SCF_CONVERGENCE		8
SCF_PRINT_FRGM		TRUE
SOLVENT_METHOD		PCM
!required keywords
JOBTYPE		SP
SYM_IGNORE		TRUE
SUBSYSTEM		TRUE
GEN_SCFMAN		TRUE
CHILD_INSTRUCTION		2
SYM_IGNORE		TRUE
SCFMI		0
RI_K 0		
PARI_K 0		
MIN_PARI_K 0		
IARI_K 0		
OCC_RI_K 0		
PURECART		1111
MEM_STATIC		2000
MEM_TOTAL		96000
GUI		0
CHILD_MP		1
CHILD_MP_ORDERS		232
FRZ_RELAX		0
FRZ_RELAX_METHOD		0
EDA_CLS_ELEC		1
EDA_CLS_DISP		0
FRZ_ORTHO_DECOMP		1
EDA2		FALSE
FRGM_METHOD		FALSE
CIS_N_ROOTS  0
LOCAL_CIS    0
CIS_RLX_DNS  1
$end
$pcm
THEORY                  CPCM
METHOD                  SWIG
SOLVER                  INVERSION
RADII                   UFF
HPOINTS                 302
HEAVYPOINTS             302
PRINTLEVEL              0
$end
$solvent
DIELECTRIC              78.390000 ! water
$end
--------------------------------------------------------------
 ----------------------------------------------------------------
             Standard Nuclear Orientation (Angstroms)
    I     Atom           X                Y                Z
 ----------------------------------------------------------------
    1      C      -3.6302874269    -1.4331702382    -0.7923825827
    2      C      -0.8282874269     0.3998297618     1.0506174173
    3      C      -1.9002874269     0.1318297618     0.1866174173
    4      C      -0.2912874269    -0.6271702382     1.8236174173
    5      C      -2.4362874269    -1.1601702382     0.0876174173
    6      C      -0.8222874269    -1.9171702382     1.7416174173
    7      C      -1.8882874269    -2.1781702382     0.8786174173
    8      O       0.7407125731    -0.3401702382     2.6636174173
    9      H      -0.4262874269     1.3998297618     1.1186174173
   10      H      -2.3192874269     0.9348297618    -0.4043825827
   11      H       1.0907125731     0.5298297618     2.4546174173
   12      H      -0.3992874269    -2.7031702382     2.3466174173
   13      H      -4.1622874269    -0.4981702382    -0.9633825827
   14      H      -4.3072874269    -2.0671702382    -0.2173825827
   15      H      -2.3022874269    -3.1761702382     0.8266174173
   16      H      -3.4424784269    -1.9265302382    -1.7574335827
 ----------------------------------------------------------------
 Nuclear Repulsion Energy =         342.35847631 hartrees
 There are       29 alpha and       29 beta electrons
 Requested basis set is def2-TZVPD
 There are 145 shells and 371 basis functions

 Total QAlloc Memory Limit  96000 MB
 Mega-Array Size      1956 MB
 MEM_STATIC part      2000 MB
 Discretize the solute cavity surface with Lebedev spheres
	Using 302 Lebedev grid points for each H atom
	Using 302 Lebedev grid points for other atoms
	Atomic van der Waals radii will be scaled by 1.20
 Remove points where switching function is < 1.0e-08
 Keep 1870 surface tesserae and discard 2962 interior tesserae
 Molecular Surface Area = 190.269 Angst**2
 A cutoff of  1.0D-14 yielded  10047 shell pairs
 There are     67099 function pairs (     85799 Cartesian)
 Smallest overlap matrix eigenvalue = 5.83E-07
 Linear dependence detected in AO basis
 Tighter screening thresholds may be required for diffuse basis sets
 Use S2THRESH > 14 and THRESH = 14 in case of SCF convergence issues
 Number of orthogonalized atomic orbitals = 370
 Maximum deviation from orthogonality = 2.288E-10

 Scale SEOQF with 1.000000e-01/1.000000e-01/1.000000e-01

 Standard Electronic Orientation quadrupole field applied
 Nucleus-field energy     =     0.0000000020 hartrees
 Guess from superposition of atomic densities
 Warning:  Energy on first SCF cycle will be non-variational
 SAD guess density has 57.738434 electrons

 -----------------------------------------------------------------------
  General SCF calculation program by
  Eric Jon Sundstrom, Paul Horn, Yuezhi Mao, Dmitri Zuev, Alec White,
  David Stuck, Shaama M.S., Shane Yost, Joonho Lee, David Small,
  Daniel Levine, Susi Lehtola, Hugh Burton, Evgeny Epifanovsky
 -----------------------------------------------------------------------
 Exchange:     0.1670 Hartree-Fock + 1.0000 wB97X-V + LR-HF
 Correlation:  1.0000 wB97X-V
 Using Euler-Maclaurin-Lebedev (99,590) quadrature formula
 Nonlocal Correlation:  VV10 with C = 0.0100 and b = 6.00 and scale = 1.00000
 Grid used for NLC:  SG-1 standard quadrature
Energy prior to optimization (guess energy) = -346.496341523242
Begin Timing: Total SCF Calculation
begin iterations for algorithm: DIIS         
the SCF tolerance is set to 1.00e-08
    1    -346.4963415232      5.16e-03     00000 
    2    -346.4316773267      5.59e-03     00000 
    3    -346.8104866703      5.29e-04     00000 
    4    -346.8145400374      1.80e-04     00000 
    5    -346.8151425772      2.45e-05     00000 
    6    -346.8151618099      1.20e-05     00000 
    7    -346.8151648336      3.83e-06     00000 
    8    -346.8151652361      1.22e-06     00000 
    9    -346.8151652898      5.65e-07     00000 
   10    -346.8151652994      1.34e-07     00000 
   11    -346.8151653010      6.27e-08     00000 
   12    -346.8151653012      3.16e-08     00000 
   13    -346.8151653013      6.66e-09     00000 Convergence criterion met
Timing for Total SCF: 2103.00s (wall), 4178.45s (cpu)

************** Final PCM Free Energy Summary **************
 G_electrostatic  =      -0.00557137 hartree =      -3.49608493 kcal/mol
 G_cavitation     =       0.00000000 hartree =       0.00000000 kcal/mol
 G_dispersion     =       0.00000000 hartree =       0.00000000 kcal/mol
 G_repulsion      =       0.00000000 hartree =       0.00000000 kcal/mol
 --------------------------------------------------
 Non-electrostatic Free Energy =       0.00000000 hartree =       0.00000000 kcal/mol
 Total                         =      -0.00557137 hartree =      -3.49608493 kcal/mol
 --------------------------------------------------
 SCF Energy (H0 + V/2)                       =    -346.81516530 
 Solute Internal Energy (H0)                 =    -346.80959394 
 Total Free Energy (H0 + V/2 + non-elec)     =    -346.81516530 hartree
                                             = -217629.80091299 kcal/mol
***********************************************************

E_pcm = -0.0055713660
Multipole orders to be included
        2
        3
computing dipole RHS
computing quadrupole RHS
total number of RHS in solve_reponses: 8
RHS batch sizes
        8
Beginning Block Conjugate Gradient Iterations. Batch Number: 0
computing hessian-vector products by finite difference
              1      5.68e-01     00000 Conjugate Gradient Iteration
computing hessian-vector products by finite difference
              2      1.95e-01     00000 Conjugate Gradient Iteration
computing hessian-vector products by finite difference
              3      5.04e-02     00000 Conjugate Gradient Iteration
computing hessian-vector products by finite difference
              4      1.45e-02     00000 Conjugate Gradient Iteration
computing hessian-vector products by finite difference
              5      4.47e-03     00000 Conjugate Gradient Iteration
computing hessian-vector products by finite difference
              6      1.69e-03     00000 Conjugate Gradient Iteration
computing hessian-vector products by finite difference
              7      4.29e-04     00000 Conjugate Gradient Iteration
computing hessian-vector products by finite difference
              8      8.50e-05     00000 Conjugate Gradient Iteration
computing hessian-vector products by finite difference
              9      1.57e-05     00000 Conjugate Gradient Iteration
computing hessian-vector products by finite difference
             10      2.07e-06     00000 Conjugate Gradient Iteration
computing hessian-vector products by finite difference
             11      5.50e-07     00000 Conjugate Gradient Iteration
computing hessian-vector products by finite difference
             12      1.31e-07     00000 Conjugate Gradient Iteration
computing hessian-vector products by finite difference
             13      2.94e-08     00000 Conjugate Gradient Iteration
computing hessian-vector products by finite difference
             14      5.43e-09     00000 CG Converged
batch 0 complete
Done Calculating Responses
TESTING ORTHOGONALIZATION OF MULTIPOLE BASIS
Multipole virts passed orthogonality test
Virts Per Order
           87
          145
 
 --------------------------------------------------------------
 
                    Orbital Energies (a.u.)
 --------------------------------------------------------------
 
 Alpha MOs
 -- Occupied --
-19.2459 -10.3367 -10.2790 -10.2771 -10.2769 -10.2738 -10.2735 -10.2618
 -1.1985  -0.9934  -0.9012  -0.8835  -0.8102  -0.7491  -0.7147  -0.6654
 -0.6039  -0.5829  -0.5519  -0.5417  -0.5344  -0.5210  -0.5119  -0.4773
 -0.4566  -0.4452  -0.4389  -0.3525  -0.3137
 -- Virtual --
  0.0567   0.0582   0.0682   0.0765   0.0830   0.0943   0.1087   0.1100
  0.1131   0.1310   0.1453   0.1494   0.1565   0.1697   0.1732   0.1922
  0.1988   0.2049   0.2133   0.2216   0.2345   0.2401   0.2484   0.2548
  0.2614   0.2642   0.2688   0.2767   0.2807   0.2938   0.2957   0.3025
  0.3035   0.3080   0.3106   0.3264   0.3337   0.3376   0.3424   0.3462
  0.3516   0.3557   0.3576   0.3732   0.3751   0.3774   0.3823   0.3925
  0.3930   0.3953   0.3996   0.4072   0.4113   0.4223   0.4253   0.4305
  0.4347   0.4452   0.4541   0.4571   0.4675   0.4697   0.4722   0.4794
  0.4849   0.4942   0.5008   0.5032   0.5129   0.5189   0.5235   0.5339
  0.5402   0.5478   0.5534   0.5578   0.5631   0.5652   0.5793   0.5889
  0.5956   0.6091   0.6197   0.6266   0.6379   0.6507   0.6581   0.6720
  0.6793   0.6802   0.6881   0.6909   0.6994   0.7021   0.7156   0.7271
  0.7330   0.7425   0.7467   0.7498   0.7584   0.7729   0.7773   0.7845
  0.7869   0.7896   0.7952   0.7996   0.8080   0.8135   0.8266   0.8314
  0.8379   0.8446   0.8568   0.8588   0.8624   0.8711   0.8832   0.8934
  0.8957   0.9082   0.9231   0.9447   0.9481   0.9685   0.9853   1.0090
  1.0270   1.0351   1.0378   1.0459   1.0540   1.0672   1.0720   1.0764
  1.0996   1.1126   1.1298   1.1739   1.1965   1.2430   1.2447   1.2884
  1.2987   1.3152   1.3305   1.3538   1.3665   1.3757   1.3900   1.4284
  1.4488   1.4567   1.4756   1.4849   1.5250   1.5611   1.6007   1.6155
  1.6272   1.6331   1.6775   1.6939   1.7030   1.7237   1.7858   1.7989
  1.8153   1.8221   1.8322   1.8588   1.8760   1.8839   1.9126   1.9175
  1.9343   1.9445   1.9637   1.9905   1.9993   2.0227   2.0343   2.0507
  2.0586   2.0701   2.0888   2.1037   2.1158   2.1527   2.1901   2.2065
  2.2141   2.2360   2.2743   2.2764   2.2960   2.3048   2.3497   2.3595
  2.3934   2.3960   2.4232   2.4557   2.4901   2.4985   2.5251   2.5416
  2.5733   2.5980   2.6131   2.6391   2.6548   2.6813   2.6892   2.7264
  2.7383   2.7597   2.7722   2.7974   2.8094   2.8252   2.8607   2.8632
  2.8904   2.9147   2.9327   2.9431   2.9551   2.9636   2.9706   3.0001
  3.0133   3.0416   3.0642   3.0721   3.0915   3.1111   3.1414   3.1624
  3.1771   3.2077   3.2129   3.2315   3.2434   3.2505   3.2682   3.2894
  3.3092   3.3494   3.3711   3.3840   3.3911   3.4224   3.4417   3.4529
  3.4637   3.4741   3.4890   3.5041   3.5150   3.5212   3.5337   3.5451
  3.5494   3.5667   3.5789   3.5881   3.5974   3.6178   3.6398   3.6496
  3.6897   3.6951   3.7311   3.7486   3.7838   3.8124   3.8390   3.8809
  3.9232   3.9516   3.9681   3.9931   4.0387   4.0710   4.1242   4.1605
  4.2385   4.2624   4.2782   4.3063   4.3184   4.3248   4.3351   4.3552
  4.3675   4.3724   4.4146   4.4440   4.4733   4.5435   4.5749   4.6099
  4.7162   4.7268   4.7720   4.8050   4.8637   4.9113   5.0259   5.0450
  5.0809   5.1168   5.1441   5.2857   5.3018   5.4263   5.4452   5.5221
  5.5956   5.6530   5.7261   5.7585   5.9529   6.1973   6.4735   6.5561
  6.6706   6.8757   7.0183   7.2898   7.4460  22.6574  22.6805  22.9206
 22.9707  23.0067  23.1593  23.4802  44.4141
 --------------------------------------------------------------
 
          Ground-State Mulliken Net Atomic Charges

     Atom                 Charge (a.u.)
  ----------------------------------------
      1 C                    -1.025707
      2 C                    -0.396665
      3 C                    -0.654474
      4 C                     0.778646
      5 C                     0.593369
      6 C                    -0.726926
      7 C                    -0.392888
      8 O                    -0.483000
      9 H                     0.282230
     10 H                     0.308326
     11 H                     0.293695
     12 H                     0.335512
     13 H                     0.275902
     14 H                     0.257437
     15 H                     0.334759
     16 H                     0.219784
  ----------------------------------------
  Sum of atomic charges =     0.000000

 -----------------------------------------------------------------
                    Cartesian Multipole Moments
 -----------------------------------------------------------------
    Charge (ESU x 10^10)
                -0.0000
    Dipole Moment (Debye)
         X      -0.3599      Y       1.3139      Z      -1.0502
       Tot       1.7201
    Quadrupole Moments (Debye-Ang)
        XX     -45.4328     XY       3.6339     YY     -42.5857
        XZ       2.8531     YZ       2.5315     ZZ     -53.0521
    Octopole Moments (Debye-Ang^2)
       XXX     202.8159    XXY      40.3026    XYY      61.0227
       YYY     117.7810    XXZ     -50.9028    XYZ       5.3452
       YYZ     -34.8848    XZZ      72.8540    YZZ      50.0661
       ZZZ    -150.1410
    Hexadecapole Moments (Debye-Ang^3)
      XXXX   -1182.4831   XXXY    -237.9586   XXYY    -271.2963
      XYYY    -228.2976   YYYY    -519.6577   XXXZ       0.5185
      XXYZ      39.4255   XYYZ      -7.3236   YYYZ      76.1386
      XXZZ    -319.7354   XYZZ     -73.7201   YYZZ    -184.4394
      XZZZ     -17.3912   YZZZ     123.3533   ZZZZ    -716.2294
 -----------------------------------------------------------------
Archival summary:
1\1\nid00540\SP\ProcedureUnspecified\BasisUnspecified\178\meili\SunSep2617:33:082021SunSep2617:33:082021\0\\#,ProcedureUnspecified,BasisUnspecified,\\0,1\C\O,1,1.36125\H,2,0.960771,1,109.442\C,1,1.39306,2,118.635,3,-12.7083,0\H,4,1.07992,1,120.28,2,0.250075,0\C,1,1.39742,2,121.26,3,168.132,0\H,6,1.07831,1,119.4,2,-0.722281,0\C,6,1.39615,1,119.932,2,179.466,0\H,8,1.08171,6,119.631,1,-179.364,0\C,8,1.40082,6,120.789,1,0.063372,0\C,10,1.40227,8,118.697,6,-0.511407,0\H,11,1.0815,10,119.83,8,-179.064,0\C,10,1.50817,8,120.507,6,-177.018,0\H,13,1.08926,10,108.838,8,155.095,0\H,13,1.09129,10,106.79,8,40.8777,0\H,13,1.1,10,117.253,8,-80.2434,0\\\@

 Total job time:  42046.56s(wall), 83491.49s(cpu) 
 Sun Sep 26 17:33:13 2021

        *************************************************************
        *                                                           *
        *  Thank you very much for using Q-Chem.  Have a nice day.  *
        *                                                           *
        *************************************************************


Done Job For Fragment 1
calling putenv with: QCSCRATCH=/global/cscratch1/sd/meili 
calling putenv with: QCLOCALSCR=/tmp 
calling putenv with: QCTHREADS=32 
Doing General SCFMI
 Exchange:     0.1670 Hartree-Fock + 1.0000 wB97X-V + LR-HF
 Correlation:  1.0000 wB97X-V
 Using Euler-Maclaurin-Lebedev (99,590) quadrature formula
 Nonlocal Correlation:  VV10 with C = 0.0100 and b = 6.00 and scale = 1.00000
 Grid used for NLC:  SG-1 standard quadrature
performing fock build before subrot guess so that all methods have access
Printing subrot_rss_gen Method Specification:
Occupied Subspace Method is 0
Virtual Subspace Method is 0
Energy of the unrelaxed supersystem initial determinant -614.671019800655
performing fock build before subrot guess so that all methods have access
Printing subrot_rss_gen Method Specification:
Occupied Subspace Method is 0
Virtual Subspace Method is 0
Energy of the unrelaxed supersystem initial determinant w/ solvent -614.772704923869
write pseudocanon occs and virts to disk
write pseudocanon orbital energies to disk
Tolerance of ortho_decomp_scf: 1.00e-06
GDM subspace size: 20
Beginning the Orthogonal Decomposition of the Initial Supersystem Wavefunction
    1    -614.6396857772      3.19e-02     ortho_decomp Preconditoned Steepest Descent
    2    -614.6438367845      9.58e-04     ortho_decomp BFGS Step
    3    -614.6438535566      5.91e-05     ortho_decomp BFGS Step
    4    -614.6438535733      2.30e-06     ortho_decomp BFGS Step
    5    -614.6438535733      7.12e-08     ortho_decomp 00000 Convergence criterion met
 Hartree-Fock
 Hartree-Fock
 Hartree-Fock
Doing General SCFMI
 Exchange:     0.1670 Hartree-Fock + 1.0000 wB97X-V + LR-HF
 Correlation:  1.0000 wB97X-V
 Using Euler-Maclaurin-Lebedev (99,590) quadrature formula
 Nonlocal Correlation:  VV10 with C = 0.0100 and b = 6.00 and scale = 1.00000
 Grid used for NLC:  SG-1 standard quadrature
performing fock build at end of subrot_r(subrot) constructor so that all methods have access
<S^2> of initial wavefunction before polarization iterations 0.0000000000
Beginning iterations for the determination of the polarized wavefunction
Energy prior to optimization (guess energy) = -614.772704923869
Begin Timing: Total SCF Calculation
begin iterations for algorithm: DIIS         
the SCF tolerance is set to 1.00e-08
    1    -614.7727049239      9.72e-05     00000 
    2    -614.7733941726      6.82e-05     00000 
    3    -614.7735941607      2.37e-05     00000 
    4    -614.7736242400      1.04e-05     00000 
    5    -614.7736312050      4.55e-06     00000 
    6    -614.7736329294      1.46e-06     00000 
    7    -614.7736332556      6.36e-07     00000 
    8    -614.7736333042      2.62e-07     00000 
    9    -614.7736333143      1.22e-07     00000 
   10    -614.7736333157      5.30e-08     00000 
   11    -614.7736333160      2.10e-08     00000 
   12    -614.7736333160      9.96e-09     00000 Convergence criterion met
write pseudocanon occs and virts to disk
write pseudocanon orbital energies to disk
Timing for Total SCF: 8162.00s (wall), 16222.11s (cpu)
<S^2> of polarized wavefunction after polarization iterations 0.0000000000
relaxing scfmi constraint to allow all rotations in the entire AO span
Doing General SCFMI
 Exchange:     0.1670 Hartree-Fock + 1.0000 wB97X-V + LR-HF
 Correlation:  1.0000 wB97X-V
 Using Euler-Maclaurin-Lebedev (99,590) quadrature formula
 Nonlocal Correlation:  VV10 with C = 0.0100 and b = 6.00 and scale = 1.00000
 Grid used for NLC:  SG-1 standard quadrature
performing fock build at end of subrot_r(subrot) constructor so that all methods have access
<S^2> of polarized wavefunction before ct-allowed iterations 0.0000000000
Beginning iterations for the determination of the CT-Allowed wavefunction
Energy prior to optimization (guess energy) = -614.773633316047
Begin Timing: Total SCF Calculation
begin iterations for algorithm: DIIS         
the SCF tolerance is set to 1.00e-08
    1    -614.7736333160      6.77e-05     00000 
    2    -614.7744713305      7.20e-06     00000 
    3    -614.7745032295      1.96e-06     00000 
    4    -614.7745047009      2.02e-06     00000 
    5    -614.7745052830      2.54e-07     00000 
    6    -614.7745053082      1.87e-07     00000 
    7    -614.7745053151      3.67e-08     00000 
    8    -614.7745053156      1.53e-08     00000 
    9    -614.7745053157      5.03e-09     00000 Convergence criterion met
write pseudocanon occs and virts to disk
write pseudocanon orbital energies to disk
Timing for Total SCF: 6029.00s (wall), 11977.67s (cpu)
<S^2> of ct_allowed wavefunction after ct-allowed iterations 0.0000000000

================================
        Results of EDA2         
================================
Basic EDA Quantities
--------------------
Fragment Energies (Ha):
1 -267.9562811746
2 -346.8151653013
--------------------
  E_prp (kJ/mol) = 0.0000
  E_sol (kJ/mol) = 13.0675
  E_frz (kJ/mol) = -16.3716
  E_pol (kJ/mol) = -2.4375
  E_vct (kJ/mol) = -2.2895
  E_int (kJ/mol) = -8.0311
--------------------


Initial Wavefunction Decomposition
--------------------
  --------------------
  Orthogonal Fragment Subspace Decomposition:
  --------------------
     E_elec   (ELEC)   (kJ/mol) = -39.1303
     E_pauli  (PAULI)  (kJ/mol) = 42.6702
     E_disp   (DISP)   (kJ/mol) = -19.9116
     --------------------
     Terms summing to E_pauli:
     --------------------
        E_kep_pauli       (kJ/mol) = 54.9541
        E_disp_free_pauli (kJ/mol) = -12.2839
  --------------------
  Classical Frozen Decomposition:
  --------------------
     E_cls_elec  (CLS ELEC)  (kJ/mol) = -17.4545
     E_cls_pauli (CLS PAULI) (kJ/mol) = 1.0829
    [E_mod_pauli (MOD PAULI) (kJ/mol) = 20.9944 (CLS PAULI - DISP from orthogonal decomposition) ]
  --------------------
--------------------

Simplified EDA Summary (kJ/mol)
--------------------
 PREPARATION     0.0000
 SOLVATION       13.0675
 FROZEN          3.5400      (does not include dispersion)
[PAULI           42.6702]     (if this is negligible, then frozen describes electrostatics)
 DISPERSION      -19.9116
 POLARIZATION    -2.4375
 CHARGE TRANSFER -2.2895
 TOTAL           -8.0311     (PRP + SOL + FRZ + DISP + POL + CT)
--------------------
 
 --------------------------------------------------------------
 
                    Orbital Energies (a.u.)
 --------------------------------------------------------------
 
 Alpha MOs
 -- Occupied --
-19.2362 -19.1175 -19.1173 -10.3290 -10.3151 -10.2737 -10.2714 -10.2709
-10.2681 -10.2661 -10.2592 -10.2493 -10.2353  -1.1882  -1.1319  -1.0303
 -0.9872  -0.8958  -0.8816  -0.8767  -0.8052  -0.7438  -0.7421  -0.7085
 -0.6581  -0.5975  -0.5952  -0.5775  -0.5476  -0.5458  -0.5368  -0.5310
 -0.5276  -0.5147  -0.5062  -0.5033  -0.4843  -0.4725  -0.4679  -0.4510
 -0.4402  -0.4347  -0.4302  -0.4270  -0.3458  -0.3259  -0.3184  -0.3093
 -0.3014
 -- Virtual --
  0.0570   0.0630   0.0676   0.0724   0.0764   0.0846   0.0917   0.0962
  0.1036   0.1073   0.1108   0.1233   0.1252   0.1283   0.1365   0.1452
  0.1461   0.1547   0.1557   0.1643   0.1739   0.1771   0.1794   0.1842
  0.1872   0.2001   0.2036   0.2052   0.2091   0.2162   0.2189   0.2262
  0.2310   0.2331   0.2431   0.2519   0.2527   0.2600   0.2614   0.2685
  0.2731   0.2782   0.2817   0.2839   0.2868   0.2954   0.2963   0.2979
  0.3012   0.3073   0.3149   0.3175   0.3241   0.3255   0.3277   0.3367
  0.3408   0.3419   0.3457   0.3499   0.3537   0.3576   0.3593   0.3629
  0.3653   0.3684   0.3737   0.3752   0.3802   0.3820   0.3877   0.3887
  0.3938   0.3958   0.4047   0.4073   0.4110   0.4120   0.4144   0.4199
  0.4276   0.4313   0.4365   0.4399   0.4418   0.4423   0.4438   0.4554
  0.4577   0.4645   0.4703   0.4715   0.4750   0.4773   0.4822   0.4881
  0.4903   0.4912   0.4957   0.5017   0.5045   0.5108   0.5140   0.5170
  0.5202   0.5248   0.5292   0.5318   0.5349   0.5385   0.5432   0.5522
  0.5551   0.5613   0.5660   0.5729   0.5757   0.5824   0.5862   0.5939
  0.5953   0.5992   0.6036   0.6128   0.6132   0.6206   0.6276   0.6293
  0.6328   0.6390   0.6424   0.6536   0.6561   0.6620   0.6662   0.6720
  0.6801   0.6862   0.6936   0.6954   0.7017   0.7061   0.7087   0.7110
  0.7169   0.7213   0.7291   0.7352   0.7418   0.7463   0.7528   0.7541
  0.7594   0.7632   0.7648   0.7686   0.7701   0.7757   0.7833   0.7885
  0.7892   0.7944   0.7982   0.8021   0.8057   0.8111   0.8125   0.8154
  0.8202   0.8211   0.8294   0.8309   0.8373   0.8415   0.8419   0.8454
  0.8502   0.8559   0.8638   0.8680   0.8747   0.8828   0.8904   0.8931
  0.8967   0.9038   0.9091   0.9169   0.9221   0.9260   0.9317   0.9386
  0.9459   0.9568   0.9643   0.9763   0.9862   0.9908   1.0027   1.0083
  1.0140   1.0288   1.0377   1.0503   1.0517   1.0564   1.0613   1.0731
  1.0756   1.0879   1.0945   1.1028   1.1137   1.1188   1.1293   1.1340
  1.1432   1.1576   1.1691   1.1736   1.1983   1.2150   1.2213   1.2269
  1.2378   1.2539   1.2618   1.2694   1.2950   1.3012   1.3047   1.3247
  1.3448   1.3473   1.3549   1.3635   1.3701   1.3826   1.4032   1.4125
  1.4280   1.4336   1.4371   1.4500   1.4607   1.4727   1.4835   1.4891
  1.5052   1.5109   1.5278   1.5329   1.5487   1.5675   1.5783   1.6060
  1.6208   1.6359   1.6541   1.6630   1.6781   1.6845   1.7092   1.7253
  1.7438   1.7930   1.8083   1.8193   1.8250   1.8493   1.8607   1.8763
  1.8909   1.9087   1.9156   1.9184   1.9343   1.9466   1.9551   1.9661
  1.9703   1.9721   1.9807   1.9852   1.9934   2.0049   2.0180   2.0248
  2.0317   2.0362   2.0499   2.0620   2.0714   2.0845   2.0862   2.0966
  2.1067   2.1181   2.1249   2.1290   2.1418   2.1493   2.1640   2.1809
  2.2005   2.2242   2.2299   2.2397   2.2479   2.2527   2.2684   2.2987
  2.3129   2.3166   2.3251   2.3373   2.3551   2.3678   2.3745   2.3852
  2.4070   2.4109   2.4203   2.4336   2.4542   2.4663   2.4915   2.5089
  2.5186   2.5333   2.5482   2.5561   2.5622   2.5874   2.5890   2.6014
  2.6091   2.6168   2.6353   2.6455   2.6573   2.6615   2.6829   2.6912
  2.6974   2.7206   2.7317   2.7468   2.7529   2.7647   2.7846   2.7987
  2.8086   2.8164   2.8384   2.8414   2.8558   2.8764   2.8827   2.9020
  2.9189   2.9221   2.9281   2.9454   2.9554   2.9606   2.9706   2.9818
  2.9936   3.0004   3.0084   3.0201   3.0294   3.0435   3.0663   3.0727
  3.0954   3.0970   3.1083   3.1248   3.1401   3.1717   3.1771   3.2035
  3.2063   3.2178   3.2507   3.2517   3.2551   3.2713   3.2875   3.2985
  3.3069   3.3193   3.3247   3.3359   3.3572   3.3751   3.3808   3.3841
  3.4000   3.4165   3.4234   3.4243   3.4352   3.4465   3.4525   3.4617
  3.4707   3.4785   3.4914   3.5135   3.5201   3.5258   3.5339   3.5426
  3.5499   3.5639   3.5648   3.5716   3.5811   3.5852   3.5931   3.5939
  3.6020   3.6166   3.6197   3.6343   3.6421   3.6537   3.6593   3.6691
  3.6956   3.7029   3.7094   3.7145   3.7274   3.7291   3.7542   3.7676
  3.7857   3.7925   3.8043   3.8134   3.8343   3.8537   3.8680   3.8930
  3.9311   3.9402   3.9663   3.9845   4.0094   4.0184   4.0590   4.0752
  4.0962   4.1230   4.1415   4.1804   4.1893   4.2178   4.2566   4.2847
  4.2899   4.2940   4.3107   4.3199   4.3323   4.3449   4.3522   4.3732
  4.3869   4.3929   4.4460   4.4671   4.4860   4.5125   4.5561   4.5722
  4.6032   4.6235   4.6498   4.6788   4.7256   4.7459   4.7902   4.8028
  4.8175   4.8554   4.8717   4.8803   4.9155   4.9607   5.0370   5.0446
  5.0594   5.1005   5.1392   5.1501   5.1628   5.2971   5.3118   5.3476
  5.3764   5.3933   5.3988   5.4432   5.4567   5.5290   5.5319   5.6083
  5.6644   5.7433   5.7525   5.7552   5.7939   5.8510   5.9721   6.0672
  6.2156   6.2936   6.3872   6.4063   6.4758   6.5817   6.6712   6.6789
  6.7070   6.7675   6.7959   6.8099   6.9070   7.0074   7.0339   7.0413
  7.0879   7.2923   7.3166   7.3982   7.4373   7.4621   7.4979  22.6627
 22.6855  22.7509  22.8557  22.9721  23.0056  23.0440  23.1890  23.4953
 23.8688  44.3321  44.4697  44.5154
 --------------------------------------------------------------
 
          Ground-State Mulliken Net Atomic Charges

     Atom                 Charge (a.u.)
  ----------------------------------------
      1 C                     0.407668
      2 C                    -0.731291
      3 C                     0.023217
      4 O                    -0.712013
      5 O                    -0.613335
      6 H                    -0.053211
      7 H                     0.178961
      8 H                     0.110984
      9 H                     0.163386
     10 H                     0.231269
     11 C                    -1.123150
     12 C                    -0.179743
     13 C                    -0.717378
     14 C                     0.723946
     15 C                     0.564088
     16 C                    -0.749058
     17 C                    -0.303777
     18 O                    -0.509238
     19 H                     0.195009
     20 H                     0.319438
     21 H                     0.298704
     22 H                     0.332760
     23 H                     0.276717
     24 H                     0.278884
     25 H                     0.367464
     26 H                     0.219697
  ----------------------------------------
  Sum of atomic charges =    -1.000000

 -----------------------------------------------------------------
                    Cartesian Multipole Moments
 -----------------------------------------------------------------
    Charge (ESU x 10^10)
                -4.8032
    Dipole Moment (Debye)
         X     -15.4470      Y      -2.6331      Z       2.8607
       Tot      15.9288
    Quadrupole Moments (Debye-Ang)
        XX    -131.8167     XY     -11.6546     YY     -81.4692
        XZ      20.1971     YZ       9.3458     ZZ     -95.9683
    Octopole Moments (Debye-Ang^2)
       XXX    -162.4210    XXY     -57.5496    XYY     -16.6569
       YYY     -22.0096    XXZ      65.9381    XYZ      29.7353
       YYZ      23.9463    XZZ     -26.0828    YZZ      -7.6532
       ZZZ      14.8767
    Hexadecapole Moments (Debye-Ang^3)
      XXXX   -2832.7839   XXXY    -649.8337   XXYY    -593.7238
      XYYY    -455.8951   YYYY   -1070.5169   XXXZ     511.7417
      XXYZ     210.8095   XYYZ     109.4798   YYYZ     333.6761
      XXZZ    -728.5764   XYZZ    -196.5558   YYZZ    -397.2470
      XZZZ     314.3409   YZZZ     391.7198   ZZZZ   -1370.6101
 -----------------------------------------------------------------
Archival summary:
1\1\nid00540\SP\ProcedureUnspecified\BasisUnspecified\31013(1-,1)\meili\MonSep2700:30:502021MonSep2700:30:502021\0\\#,ProcedureUnspecified,BasisUnspecified,\\-1,1\O\C,1,1.24011\O,2,1.25071,1,123.364\C,2,1.50838,1,118.208,3,177.878,0\H,4,1.08183,2,106.751,1,-137.055,0\H,4,1.08887,2,110.752,1,-20.9073,0\C,4,1.53249,2,113.044,1,100.847,0\H,7,1.09083,4,107.465,2,-70.2481,0\H,7,1.1,4,112.143,2,47.9741,0\H,7,1.1,4,109.037,2,169.951,0\H,8,2.64011,7,136.147,4,-18.748,0\C,11,1.07992,8,122.491,7,-27.164,0\C,12,1.39306,11,120.28,8,129.849,0\O,13,1.36125,12,118.635,11,0.250075,0\H,14,0.960771,13,109.442,12,-12.7083,0\C,13,1.39742,12,120.1,11,179.42,0\H,16,1.07831,13,119.4,12,-179.87,0\C,16,1.39615,13,119.932,12,0.318695,0\H,18,1.08171,16,119.631,13,-179.364,0\C,18,1.40082,16,120.789,13,0.063372,0\C,20,1.40227,18,118.697,16,-0.511407,0\H,21,1.0815,20,119.83,18,-179.064,0\C,20,1.50817,18,120.507,16,-177.018,0\H,23,1.08926,20,108.838,18,155.095,0\H,23,1.09129,20,106.79,18,40.8777,0\H,23,1.1,20,117.253,18,-80.2434,0\\\@

 Total job time:  77958.89s(wall), 49871.67s(cpu) 
 Mon Sep 27 00:30:55 2021

        *************************************************************
        *                                                           *
        *  Thank you very much for using Q-Chem.  Have a nice day.  *
        *                                                           *
        *************************************************************


