
Running Job 1 of 1 SSI-042PHE-049PHE-1_PCM_TZVPD.in
qchem SSI-042PHE-049PHE-1_PCM_TZVPD.in_6459.0 /tmp/qchem6459/ 0
/global/common/cori/software/qchem/5.2/exe/qcprog.exe_s SSI-042PHE-049PHE-1_PCM_TZVPD.in_6459.0 /tmp/qchem6459/
                  Welcome to Q-Chem
     A Quantum Leap Into The Future Of Chemistry


 Q-Chem 5.2, Q-Chem, Inc., Pleasanton, CA (2019)

 License issued to: National Energy Research Scientific Computing Center

 Yihan Shao,  Zhengting Gan,  E. Epifanovsky,  A. T. B. Gilbert,  M. Wormit,  
 J. Kussmann,  A. W. Lange,  A. Behn,  Jia Deng,  Xintian Feng,  D. Ghosh,  
 M. Goldey,  P. R. Horn,  L. D. Jacobson,  I. Kaliman,  T. Kus,  A. Landau,  
 Jie Liu,  E. I. Proynov,  R. M. Richard,  R. P. Steele,  E. J. Sundstrom,  
 H. L. Woodcock III,  P. M. Zimmerman,  D. Zuev,  B. Albrecht,  E. Alguire,  
 S. A. Baeppler,  D. Barton,  Z. Benda,  Y. A. Bernard,  E. J. Berquist,  
 K. B. Bravaya,  H. Burton,  D. Casanova,  Chun-Min Chang,  Yunqing Chen,  
 A. Chien,  K. D. Closser,  M. P. Coons,  S. Coriani,  S. Dasgupta,  
 A. L. Dempwolff,  M. Diedenhofen,  Hainam Do,  R. G. Edgar,  Po-Tung Fang,  
 S. Faraji,  S. Fatehi,  Qingguo Feng,  K. D. Fenk,  J. Fosso-Tande,  
 J. Gayvert,  Qinghui Ge,  A. Ghysels,  G. Gidofalvi,  J. Gomes,  
 J. Gonthier,  A. Gunina,  D. Hait,  M. W. D. Hanson-Heine,  
 P. H. P. Harbach,  A. W. Hauser,  M. F. Herbst,  J. E. Herr,  
 E. G. Hohenstein,  Z. C. Holden,  Kerwin Hui,  B. C. Huynh,  T.-C. Jagau,  
 Hyunjun Ji,  B. Kaduk,  K. Khistyaev,  Jaehoon Kim,  P. Klunzinger,  K. Koh,  
 D. Kosenkov,  L. Koulias,  T. Kowalczyk,  C. M. Krauter,  A. Kunitsa,  
 Ka Un Lao,  A. Laurent,  K. V. Lawler,  Joonho Lee,  D. Lefrancois,  
 S. Lehtola,  D. S. Levine,  Yi-Pei Li,  You-Sheng Lin,  Fenglai Liu,  
 E. Livshits,  A. Luenser,  P. Manohar,  E. Mansoor,  S. F. Manzer,  
 Shan-Ping Mao,  Yuezhi Mao,  N. Mardirossian,  A. V. Marenich,  
 T. Markovich,  L. A. Martinez-Martinez,  S. A. Maurer,  N. J. Mayhall,  
 S. C. McKenzie,  J.-M. Mewes,  P. Morgante,  A. F. Morrison,  
 J. W. Mullinax,  K. Nanda,  T. S. Nguyen-Beck,  R. Olivares-Amaya,  
 J. A. Parkhill,  Zheng Pei,  T. M. Perrine,  F. Plasser,  P. Pokhilko,  
 S. Prager,  A. Prociuk,  E. Ramos,  D. R. Rehn,  F. Rob,  M. Scheurer,  
 M. Schneider,  N. Sergueev,  S. M. Sharada,  S. Sharma,  D. W. Small,  
 T. Stauch,  T. Stein,  Yu-Chuan Su,  A. J. W. Thom,  A. Tkatchenko,  
 T. Tsuchimochi,  N. M. Tubman,  L. Vogt,  M. L. Vidal,  O. Vydrov,  
 M. A. Watson,  J. Wenzel,  M. de Wergifosse,  T. A. Wesolowski,  A. White,  
 J. Witte,  A. Yamada,  Jun Yang,  K. Yao,  S. Yeganeh,  S. R. Yost,  
 Zhi-Qiang You,  A. Zech,  Igor Ying Zhang,  Xing Zhang,  Yan Zhao,  
 Ying Zhu,  B. R. Brooks,  G. K. L. Chan,  C. J. Cramer,  M. S. Gordon,  
 W. J. Hehre,  A. Klamt,  M. W. Schmidt,  C. D. Sherrill,  D. G. Truhlar,  
 A. Aspuru-Guzik,  R. Baer,  A. T. Bell,  N. A. Besley,  Jeng-Da Chai,  
 A. E. DePrince, III,  R. A. DiStasio Jr.,  A. Dreuw,  B. D. Dunietz,  
 T. R. Furlani,  Chao-Ping Hsu,  Yousung Jung,  Jing Kong,  D. S. Lambrecht,  
 WanZhen Liang,  C. Ochsenfeld,  V. A. Rassolov,  L. V. Slipchenko,  
 J. E. Subotnik,  T. Van Voorhis,  J. M. Herbert,  A. I. Krylov,  
 P. M. W. Gill,  M. Head-Gordon

 Contributors to earlier versions of Q-Chem not listed above: 
 R. D. Adamson,  B. Austin,  J. Baker,  G. J. O. Beran,  K. Brandhorst,  
 S. T. Brown,  E. F. C. Byrd,  A. K. Chakraborty,  C.-L. Cheng,  
 Siu Hung Chien,  D. M. Chipman,  D. L. Crittenden,  H. Dachsel,  
 R. J. Doerksen,  A. D. Dutoi,  L. Fusti-Molnar,  W. A. Goddard III,  
 A. Golubeva-Zadorozhnaya,  S. R. Gwaltney,  G. Hawkins,  A. Heyden,  
 S. Hirata,  G. Kedziora,  F. J. Keil,  C. Kelley,  Jihan Kim,  R. A. King,  
 R. Z. Khaliullin,  P. P. Korambath,  W. Kurlancheek,  A. M. Lee,  M. S. Lee,  
 S. V. Levchenko,  Ching Yeh Lin,  D. Liotard,  R. C. Lochan,  I. Lotan,  
 P. E. Maslen,  N. Nair,  D. P. O'Neill,  D. Neuhauser,  E. Neuscamman,  
 C. M. Oana,  R. Olson,  B. Peters,  R. Peverati,  P. A. Pieniazek,  
 Y. M. Rhee,  J. Ritchie,  M. A. Rohrdanz,  E. Rosta,  N. J. Russ,  
 H. F. Schaefer III,  N. E. Schultz,  N. Shenvi,  A. C. Simmonett,  A. Sodt,  
 D. Stuck,  K. S. Thanthiriwatte,  V. Vanovschi,  Tao Wang,  A. Warshel,  
 C. F. Williams,  Q. Wu,  X. Xu,  W. Zhang

 Please cite Q-Chem as follows:
 Y. Shao et al., Mol. Phys. 113, 184-215 (2015)
 DOI: 10.1080/00268976.2014.952696

 Q-Chem 5.2.0 for Intel X86 EM64T Linux

 Parts of Q-Chem use Armadillo 8.300.2 (Tropical Shenanigans).
 http://arma.sourceforge.net/

 Q-Chem begins on Sun Sep 26 07:04:34 2021  

Host: cori01
0

     Scratch files written to /tmp/qchem6459//
 May1019 |scratch|qcdevops|jenkins|workspace|build_RNUM -1
Processing $rem in /global/common/cori/software/qchem/5.2/config/preferences:
	 MEM_TOTAL  96000 
NAlpha2: 100
NElect   100
Mult     1
Symmetry turned off for PCM/SM12/SMD calculation

 Q-Chem warning in module libgen/rem_setup.C, line 2803:

 Neither GIA nor STOLL is specified by user. Use STOLL as the default


Checking the input file for inconsistencies... 	...done.

--------------------------------------------------------------
User input:
--------------------------------------------------------------
$comment
SSI-042PHE-049PHE-1.pdb
$end

$molecule
0 1
--
0 1
C   -0.559474718536   -0.193654861561    3.361345695521
C   -2.112474718536   -1.360654861561    0.073345695521
C   -1.339474718536   -1.325654861561    1.245345695521
C   -2.905474718536   -0.255654861561   -0.267654304479
C   -1.349474718536   -0.194654861561    2.079345695521
C   -2.921474718536    0.876345138439    0.559345695521
C   -2.140474718536    0.908345138439    1.731345695521
H   -2.090474718536   -2.230654861561   -0.567654304479
H   -0.726474718536   -2.177654861561    1.503345695521
H   -3.505474718536   -0.274654861561   -1.166654304479
H   -3.540474718536    1.722345138439    0.302345695521
H   -0.434474718536    0.828345138439    3.722345695521
H    0.433525281464   -0.588654861561    3.141345695521
H   -2.157474718536    1.783345138439    2.364345695521
H   -1.027094718536   -0.807804861561    4.145025695521
--
0 1
C    3.450525281464    1.373345138439    0.191345695521
C    0.692525281464   -0.650654861561   -2.420654304479
C    1.155525281463   -1.294654861561   -1.285654304479
C    1.117525281464    0.642345138439   -2.716654304479
C    2.054525281464   -0.637654861561   -0.426654304479
C    2.010525281464    1.298345138439   -1.861654304479
C    2.484525281463    0.663345138439   -0.712654304479
H   -0.000474718536   -1.155654861561   -3.077654304479
H    0.816525281464   -2.294654861561   -1.053654304479
H    0.765525281464    1.137345138439   -3.609654304479
H    2.408525281463   -1.140654861561    0.462345695521
H    2.335525281463    2.301345138439   -2.102654304479
H    3.149525281463    1.196345138439    1.224345695521
H    3.395525281464    2.446345138439    0.008345695521
H    4.495705281464    1.054905138439    0.064115695521
$end

$rem
JOBTYPE			EDA
EDA2			1
method			wB97X-V
BASIS			def2-TZVPD
XC_GRID			000099000590
NL_GRID			1
UNRESTRICTED		FALSE
MAX_SCF_CYCLES		200
SYMMETRY		FALSE
SYM_IGNORE		TRUE
MEM_STATIC		2000
BASIS_LIN_DEP_THRESH 	6
THRESH 			14
SCF_CONVERGENCE 	8
SCF_PRINT_FRGM 		TRUE
SOLVENT_METHOD          PCM
$end

$PCM
THEORY                  CPCM
METHOD                  SWIG
SOLVER                  INVERSION
RADII                   UFF
HPOINTS                 302
HEAVYPOINTS             302
PRINTLEVEL              0
$END

$SOLVENT
DIELECTRIC              78.390000 ! water
$END
--------------------------------------------------------------
 ----------------------------------------------------------------
             Standard Nuclear Orientation (Angstroms)
    I     Atom           X                Y                Z
 ----------------------------------------------------------------
    1      C      -0.5594747185    -0.1936548616     3.3613456955
    2      C      -2.1124747185    -1.3606548616     0.0733456955
    3      C      -1.3394747185    -1.3256548616     1.2453456955
    4      C      -2.9054747185    -0.2556548616    -0.2676543045
    5      C      -1.3494747185    -0.1946548616     2.0793456955
    6      C      -2.9214747185     0.8763451384     0.5593456955
    7      C      -2.1404747185     0.9083451384     1.7313456955
    8      H      -2.0904747185    -2.2306548616    -0.5676543045
    9      H      -0.7264747185    -2.1776548616     1.5033456955
   10      H      -3.5054747185    -0.2746548616    -1.1666543045
   11      H      -3.5404747185     1.7223451384     0.3023456955
   12      H      -0.4344747185     0.8283451384     3.7223456955
   13      H       0.4335252815    -0.5886548616     3.1413456955
   14      H      -2.1574747185     1.7833451384     2.3643456955
   15      H      -1.0270947185    -0.8078048616     4.1450256955
   16      C       3.4505252815     1.3733451384     0.1913456955
   17      C       0.6925252815    -0.6506548616    -2.4206543045
   18      C       1.1555252815    -1.2946548616    -1.2856543045
   19      C       1.1175252815     0.6423451384    -2.7166543045
   20      C       2.0545252815    -0.6376548616    -0.4266543045
   21      C       2.0105252815     1.2983451384    -1.8616543045
   22      C       2.4845252815     0.6633451384    -0.7126543045
   23      H      -0.0004747185    -1.1556548616    -3.0776543045
   24      H       0.8165252815    -2.2946548616    -1.0536543045
   25      H       0.7655252815     1.1373451384    -3.6096543045
   26      H       2.4085252815    -1.1406548616     0.4623456955
   27      H       2.3355252815     2.3013451384    -2.1026543045
   28      H       3.1495252815     1.1963451384     1.2243456955
   29      H       3.3955252815     2.4463451384     0.0083456955
   30      H       4.4957052815     1.0549051384     0.0641156955
 ----------------------------------------------------------------
 Nuclear Repulsion Energy =         797.02170815 hartrees
 There are       50 alpha and       50 beta electrons
 Requested basis set is def2-TZVPD
 There are 262 shells and 662 basis functions

 Total QAlloc Memory Limit  96000 MB
 Mega-Array Size      1956 MB
 MEM_STATIC part      2000 MB
 Discretize the solute cavity surface with Lebedev spheres
	Using 302 Lebedev grid points for each H atom
	Using 302 Lebedev grid points for other atoms
	Atomic van der Waals radii will be scaled by 1.20
 Remove points where switching function is < 1.0e-08
 Keep 3400 surface tesserae and discard 5660 interior tesserae
 Molecular Surface Area = 326.671 Angst**2
 A cutoff of  1.0D-14 yielded  30281 shell pairs
 There are    195059 function pairs (    246326 Cartesian)
 Smallest overlap matrix eigenvalue = 4.98E-07
 Linear dependence detected in AO basis
 Tighter screening thresholds may be required for diffuse basis sets
 Use S2THRESH > 14 and THRESH = 14 in case of SCF convergence issues
 Number of orthogonalized atomic orbitals = 659
 Maximum deviation from orthogonality = 1.045E-10

 Scale SEOQF with 1.000000e-01/1.000000e-01/1.000000e-01

 Standard Electronic Orientation quadrupole field applied
 Nucleus-field energy     =    -0.0000000100 hartrees

 -----------------------------------------------------------------------
  General SCF calculation program by
  Eric Jon Sundstrom, Paul Horn, Yuezhi Mao, Dmitri Zuev, Alec White,
  David Stuck, Shaama M.S., Shane Yost, Joonho Lee, David Small,
  Daniel Levine, Susi Lehtola, Hugh Burton, Evgeny Epifanovsky
 -----------------------------------------------------------------------
================================================================
                 ALMO-EDA with the EDA2 driver                  
================================================================
 The second-generation ALMO-EDA (for DFT):                      
 P. R. Horn, Y. Mao and M. Head-Gordon, PCCP, 18, 23067 (2016)  
 Decomposition of the frozen energy:                            
 P. R. Horn, Y. Mao and M. Head-Gordon, JCP, 144, 114107 (2016) 
 FERF model for polarization:                                   
 P. R. Horn and M. Head-Gordon, JCP, 143, 114111 (2015)         
Using eda2 option set 1
Option set summary: Frozen orbital wavefunction, initial wavefunction decomposition, and nDQ polarization.
--------------------------------
Printing EDA Options
--------------------------------
eda_child_super_basis      0
fragmo_guess_mode          0
child_mp                   1
child_mp_orders            232
cls_elec                   1
cls_disp                   0
scfmi_mode                 1
scfmi_occs                 0
scfmi_virts                0
frz_relax                  0
frz_relax_method           0
dc_pen_start               0
dc_pen_conv                0
dc_pen_increment           0
dc_pen_steps               0
dc_pen_thresh_factor       0
dc_pen_pre_newton_thresh   0
frz_ortho_decomp           1
frz_ortho_decomp_conv      6
frgm_method                2
scfmi_freeze_ss            0
separate_rehyb             0
plot_diff_den              0
eda_nocv                   0
eda_vct_relax              1
disp_free_x                0
disp_free_c                0
eda_bsse                   0
eda_pct_a                  0
eda_covp                   0
--------------------------------
Attempting to make child job directory: /tmp/qchem6459//Frg1/
Attempting to make child job directory: /tmp/qchem6459//Frg2/
Creating input file /tmp/qchem6459/Frg1.input
using default PutDataFrgm: nothing
calling putenv with: QCSCRATCH=/tmp/qchem6459/ 
calling putenv with: QCLOCALSCR=/tmp/qchem6459/ 
Spawning Job For Fragment 0
                  Welcome to Q-Chem
     A Quantum Leap Into The Future Of Chemistry


 Q-Chem 5.2, Q-Chem, Inc., Pleasanton, CA (2019)

 License issued to: National Energy Research Scientific Computing Center

 Yihan Shao,  Zhengting Gan,  E. Epifanovsky,  A. T. B. Gilbert,  M. Wormit,  
 J. Kussmann,  A. W. Lange,  A. Behn,  Jia Deng,  Xintian Feng,  D. Ghosh,  
 M. Goldey,  P. R. Horn,  L. D. Jacobson,  I. Kaliman,  T. Kus,  A. Landau,  
 Jie Liu,  E. I. Proynov,  R. M. Richard,  R. P. Steele,  E. J. Sundstrom,  
 H. L. Woodcock III,  P. M. Zimmerman,  D. Zuev,  B. Albrecht,  E. Alguire,  
 S. A. Baeppler,  D. Barton,  Z. Benda,  Y. A. Bernard,  E. J. Berquist,  
 K. B. Bravaya,  H. Burton,  D. Casanova,  Chun-Min Chang,  Yunqing Chen,  
 A. Chien,  K. D. Closser,  M. P. Coons,  S. Coriani,  S. Dasgupta,  
 A. L. Dempwolff,  M. Diedenhofen,  Hainam Do,  R. G. Edgar,  Po-Tung Fang,  
 S. Faraji,  S. Fatehi,  Qingguo Feng,  K. D. Fenk,  J. Fosso-Tande,  
 J. Gayvert,  Qinghui Ge,  A. Ghysels,  G. Gidofalvi,  J. Gomes,  
 J. Gonthier,  A. Gunina,  D. Hait,  M. W. D. Hanson-Heine,  
 P. H. P. Harbach,  A. W. Hauser,  M. F. Herbst,  J. E. Herr,  
 E. G. Hohenstein,  Z. C. Holden,  Kerwin Hui,  B. C. Huynh,  T.-C. Jagau,  
 Hyunjun Ji,  B. Kaduk,  K. Khistyaev,  Jaehoon Kim,  P. Klunzinger,  K. Koh,  
 D. Kosenkov,  L. Koulias,  T. Kowalczyk,  C. M. Krauter,  A. Kunitsa,  
 Ka Un Lao,  A. Laurent,  K. V. Lawler,  Joonho Lee,  D. Lefrancois,  
 S. Lehtola,  D. S. Levine,  Yi-Pei Li,  You-Sheng Lin,  Fenglai Liu,  
 E. Livshits,  A. Luenser,  P. Manohar,  E. Mansoor,  S. F. Manzer,  
 Shan-Ping Mao,  Yuezhi Mao,  N. Mardirossian,  A. V. Marenich,  
 T. Markovich,  L. A. Martinez-Martinez,  S. A. Maurer,  N. J. Mayhall,  
 S. C. McKenzie,  J.-M. Mewes,  P. Morgante,  A. F. Morrison,  
 J. W. Mullinax,  K. Nanda,  T. S. Nguyen-Beck,  R. Olivares-Amaya,  
 J. A. Parkhill,  Zheng Pei,  T. M. Perrine,  F. Plasser,  P. Pokhilko,  
 S. Prager,  A. Prociuk,  E. Ramos,  D. R. Rehn,  F. Rob,  M. Scheurer,  
 M. Schneider,  N. Sergueev,  S. M. Sharada,  S. Sharma,  D. W. Small,  
 T. Stauch,  T. Stein,  Yu-Chuan Su,  A. J. W. Thom,  A. Tkatchenko,  
 T. Tsuchimochi,  N. M. Tubman,  L. Vogt,  M. L. Vidal,  O. Vydrov,  
 M. A. Watson,  J. Wenzel,  M. de Wergifosse,  T. A. Wesolowski,  A. White,  
 J. Witte,  A. Yamada,  Jun Yang,  K. Yao,  S. Yeganeh,  S. R. Yost,  
 Zhi-Qiang You,  A. Zech,  Igor Ying Zhang,  Xing Zhang,  Yan Zhao,  
 Ying Zhu,  B. R. Brooks,  G. K. L. Chan,  C. J. Cramer,  M. S. Gordon,  
 W. J. Hehre,  A. Klamt,  M. W. Schmidt,  C. D. Sherrill,  D. G. Truhlar,  
 A. Aspuru-Guzik,  R. Baer,  A. T. Bell,  N. A. Besley,  Jeng-Da Chai,  
 A. E. DePrince, III,  R. A. DiStasio Jr.,  A. Dreuw,  B. D. Dunietz,  
 T. R. Furlani,  Chao-Ping Hsu,  Yousung Jung,  Jing Kong,  D. S. Lambrecht,  
 WanZhen Liang,  C. Ochsenfeld,  V. A. Rassolov,  L. V. Slipchenko,  
 J. E. Subotnik,  T. Van Voorhis,  J. M. Herbert,  A. I. Krylov,  
 P. M. W. Gill,  M. Head-Gordon

 Contributors to earlier versions of Q-Chem not listed above: 
 R. D. Adamson,  B. Austin,  J. Baker,  G. J. O. Beran,  K. Brandhorst,  
 S. T. Brown,  E. F. C. Byrd,  A. K. Chakraborty,  C.-L. Cheng,  
 Siu Hung Chien,  D. M. Chipman,  D. L. Crittenden,  H. Dachsel,  
 R. J. Doerksen,  A. D. Dutoi,  L. Fusti-Molnar,  W. A. Goddard III,  
 A. Golubeva-Zadorozhnaya,  S. R. Gwaltney,  G. Hawkins,  A. Heyden,  
 S. Hirata,  G. Kedziora,  F. J. Keil,  C. Kelley,  Jihan Kim,  R. A. King,  
 R. Z. Khaliullin,  P. P. Korambath,  W. Kurlancheek,  A. M. Lee,  M. S. Lee,  
 S. V. Levchenko,  Ching Yeh Lin,  D. Liotard,  R. C. Lochan,  I. Lotan,  
 P. E. Maslen,  N. Nair,  D. P. O'Neill,  D. Neuhauser,  E. Neuscamman,  
 C. M. Oana,  R. Olson,  B. Peters,  R. Peverati,  P. A. Pieniazek,  
 Y. M. Rhee,  J. Ritchie,  M. A. Rohrdanz,  E. Rosta,  N. J. Russ,  
 H. F. Schaefer III,  N. E. Schultz,  N. Shenvi,  A. C. Simmonett,  A. Sodt,  
 D. Stuck,  K. S. Thanthiriwatte,  V. Vanovschi,  Tao Wang,  A. Warshel,  
 C. F. Williams,  Q. Wu,  X. Xu,  W. Zhang

 Please cite Q-Chem as follows:
 Y. Shao et al., Mol. Phys. 113, 184-215 (2015)
 DOI: 10.1080/00268976.2014.952696

 Q-Chem 5.2.0 for Intel X86 EM64T Linux

 Parts of Q-Chem use Armadillo 8.300.2 (Tropical Shenanigans).
 http://arma.sourceforge.net/

 Q-Chem begins on Sun Sep 26 07:04:41 2021  

Host: cori01
0

     Scratch files written to /tmp/qchem6459//Frg1//
 May1019 |scratch|qcdevops|jenkins|workspace|build_RNUM -1
Processing $rem in /global/common/cori/software/qchem/5.2/config/preferences:
	 MEM_TOTAL  96000 
NAlpha2: 50
NElect   50
Mult     1
Symmetry turned off for PCM/SM12/SMD calculation

Checking the input file for inconsistencies... 	...done.

--------------------------------------------------------------
User input:
--------------------------------------------------------------
$molecule
0 1
 6	-0.5594747185	-0.1936548616	3.3613456955
 6	-2.1124747185	-1.3606548616	0.0733456955
 6	-1.3394747185	-1.3256548616	1.2453456955
 6	-2.9054747185	-0.2556548616	-0.2676543045
 6	-1.3494747185	-0.1946548616	2.0793456955
 6	-2.9214747185	0.8763451384	0.5593456955
 6	-2.1404747185	0.9083451384	1.7313456955
 1	-2.0904747185	-2.2306548616	-0.5676543045
 1	-0.7264747185	-2.1776548616	1.5033456955
 1	-3.5054747185	-0.2746548616	-1.1666543045
 1	-3.5404747185	1.7223451384	0.3023456955
 1	-0.4344747185	0.8283451384	3.7223456955
 1	0.4335252815	-0.5886548616	3.1413456955
 1	-2.1574747185	1.7833451384	2.3643456955
 1	-1.0270947185	-0.8078048616	4.1450256955
$end
$rem
EDA2		1
METHOD		WB97X-V
BASIS		DEF2-TZVPD
XC_GRID		000099000590
NL_GRID		1
UNRESTRICTED		FALSE
MAX_SCF_CYCLES		200
SYMMETRY		FALSE
SYM_IGNORE		TRUE
BASIS_LIN_DEP_THRESH		6
THRESH		14
SCF_CONVERGENCE		8
SCF_PRINT_FRGM		TRUE
SOLVENT_METHOD		PCM
!required keywords
JOBTYPE		SP
SYM_IGNORE		TRUE
SUBSYSTEM		TRUE
GEN_SCFMAN		TRUE
CHILD_INSTRUCTION		2
SYM_IGNORE		TRUE
SCFMI		0
RI_K 0		
PARI_K 0		
MIN_PARI_K 0		
IARI_K 0		
OCC_RI_K 0		
PURECART		1111
MEM_STATIC		2000
MEM_TOTAL		96000
GUI		0
CHILD_MP		1
CHILD_MP_ORDERS		232
FRZ_RELAX		0
FRZ_RELAX_METHOD		0
EDA_CLS_ELEC		1
EDA_CLS_DISP		0
FRZ_ORTHO_DECOMP		1
EDA2		FALSE
FRGM_METHOD		FALSE
CIS_N_ROOTS  0
LOCAL_CIS    0
CIS_RLX_DNS  1
$end
$pcm
THEORY                  CPCM
METHOD                  SWIG
SOLVER                  INVERSION
RADII                   UFF
HPOINTS                 302
HEAVYPOINTS             302
PRINTLEVEL              0
$end
$solvent
DIELECTRIC              78.390000 ! water
$end
--------------------------------------------------------------
 ----------------------------------------------------------------
             Standard Nuclear Orientation (Angstroms)
    I     Atom           X                Y                Z
 ----------------------------------------------------------------
    1      C      -0.5594747185    -0.1936548616     3.3613456955
    2      C      -2.1124747185    -1.3606548616     0.0733456955
    3      C      -1.3394747185    -1.3256548616     1.2453456955
    4      C      -2.9054747185    -0.2556548616    -0.2676543045
    5      C      -1.3494747185    -0.1946548616     2.0793456955
    6      C      -2.9214747185     0.8763451384     0.5593456955
    7      C      -2.1404747185     0.9083451384     1.7313456955
    8      H      -2.0904747185    -2.2306548616    -0.5676543045
    9      H      -0.7264747185    -2.1776548616     1.5033456955
   10      H      -3.5054747185    -0.2746548616    -1.1666543045
   11      H      -3.5404747185     1.7223451384     0.3023456955
   12      H      -0.4344747185     0.8283451384     3.7223456955
   13      H       0.4335252815    -0.5886548616     3.1413456955
   14      H      -2.1574747185     1.7833451384     2.3643456955
   15      H      -1.0270947185    -0.8078048616     4.1450256955
 ----------------------------------------------------------------
 Nuclear Repulsion Energy =         268.31946595 hartrees
 There are       25 alpha and       25 beta electrons
 Requested basis set is def2-TZVPD
 There are 131 shells and 331 basis functions

 Total QAlloc Memory Limit  96000 MB
 Mega-Array Size      1956 MB
 MEM_STATIC part      2000 MB
 Discretize the solute cavity surface with Lebedev spheres
	Using 302 Lebedev grid points for each H atom
	Using 302 Lebedev grid points for other atoms
	Atomic van der Waals radii will be scaled by 1.20
 Remove points where switching function is < 1.0e-08
 Keep 1786 surface tesserae and discard 2744 interior tesserae
 Molecular Surface Area = 179.046 Angst**2

                       Distance Matrix (Angstroms)
             C (  1)   C (  2)   C (  3)   C (  4)   C (  5)   C (  6)
   C (  2)  3.818984
   C (  3)  2.523347  1.404400
   C (  4)  4.321713  1.402196  2.426196
   C (  5)  1.505864  2.442491  1.405282  2.816605
   C (  6)  3.817741  2.427930  2.796806  1.402002  2.434877
   C (  7)  2.524057  2.810357  2.422510  2.436416  1.401212  1.408747
   H (  8)  4.682987  1.080863  2.161017  2.157510  3.420670  3.407952
   H (  9)  2.723290  2.152530  1.080850  3.402729  2.156895  3.877638
   H ( 10)  5.402616  2.158111  3.407917  1.081000  3.897596  2.155211
   H ( 11)  4.681335  3.405365  3.876075  2.154207  3.410733  1.079317
   H ( 12)  1.091068  4.574124  3.405036  4.816741  2.140842  4.023934
   H ( 13)  1.091088  4.060877  2.698428  4.783418  2.112385  4.479841
   H ( 14)  2.730594  3.890430  3.403993  3.412396  2.155591  2.159715
   H ( 15)  1.100001  4.249973  2.962076  4.827518  2.178742  4.391143
             C (  7)   H (  8)   H (  9)   H ( 10)   H ( 11)   H ( 12)
   H (  8)  3.891172
   H (  9)  3.402172  2.480392
   H ( 10)  3.414838  2.487360  4.298040
   H ( 11)  2.159777  4.299489  4.956914  2.479354
   H ( 12)  2.623150  5.523035  3.747701  5.877922  4.705621
   H ( 13)  3.294630  4.777386  2.559993  5.845783  5.403084  1.760362
   H ( 14)  1.080094  4.971248  4.298675  4.303537  2.483597  2.392680
   H ( 15)  3.163959  5.036331  2.990875  5.885623  5.242607  1.790766
             H ( 13)   H ( 14)
   H ( 14)  3.597693
   H ( 15)  1.785724  3.341054
 
 A cutoff of  1.0D-14 yielded   8357 shell pairs
 There are     54463 function pairs (     69404 Cartesian)
 Smallest overlap matrix eigenvalue = 6.27E-07
 Linear dependence detected in AO basis
 Tighter screening thresholds may be required for diffuse basis sets
 Use S2THRESH > 14 and THRESH = 14 in case of SCF convergence issues
 Number of orthogonalized atomic orbitals = 330
 Maximum deviation from orthogonality = 1.616E-10

 Scale SEOQF with 1.000000e-01/1.000000e-01/1.000000e-01

 Standard Electronic Orientation quadrupole field applied
 Nucleus-field energy     =    -0.0000000074 hartrees
 Guess from superposition of atomic densities
 Warning:  Energy on first SCF cycle will be non-variational
 SAD guess density has 49.913408 electrons

 -----------------------------------------------------------------------
  General SCF calculation program by
  Eric Jon Sundstrom, Paul Horn, Yuezhi Mao, Dmitri Zuev, Alec White,
  David Stuck, Shaama M.S., Shane Yost, Joonho Lee, David Small,
  Daniel Levine, Susi Lehtola, Hugh Burton, Evgeny Epifanovsky
 -----------------------------------------------------------------------
 Exchange:     0.1670 Hartree-Fock + 1.0000 wB97X-V + LR-HF
 Correlation:  1.0000 wB97X-V
 Using Euler-Maclaurin-Lebedev (99,590) quadrature formula
 Nonlocal Correlation:  VV10 with C = 0.0100 and b = 6.00 and scale = 1.00000
 Grid used for NLC:  SG-1 standard quadrature
Energy prior to optimization (guess energy) = -271.522124888925
Begin Timing: Total SCF Calculation
begin iterations for algorithm: DIIS         
the SCF tolerance is set to 1.00e-08
    1    -271.5221248889      1.90e-03     00000 
    2    -271.5602832639      1.21e-03     00000 
    3    -271.5806704490      1.37e-04     00000 
    4    -271.5810893932      4.66e-05     00000 
    5    -271.5811215881      1.70e-05     00000 
    6    -271.5811264153      4.35e-06     00000 
    7    -271.5811267756      1.95e-06     00000 
    8    -271.5811268428      3.42e-07     00000 
    9    -271.5811268465      8.67e-08     00000 
   10    -271.5811268468      4.94e-08     00000 
   11    -271.5811268469      1.84e-08     00000 
   12    -271.5811268470      5.44e-09     00000 Convergence criterion met
Timing for Total SCF: 1377.00s (wall), 2736.05s (cpu)

************** Final PCM Free Energy Summary **************
 G_electrostatic  =      -0.00261881 hartree =      -1.64332929 kcal/mol
 G_cavitation     =       0.00000000 hartree =       0.00000000 kcal/mol
 G_dispersion     =       0.00000000 hartree =       0.00000000 kcal/mol
 G_repulsion      =       0.00000000 hartree =       0.00000000 kcal/mol
 --------------------------------------------------
 Non-electrostatic Free Energy =       0.00000000 hartree =       0.00000000 kcal/mol
 Total                         =      -0.00261881 hartree =      -1.64332929 kcal/mol
 --------------------------------------------------
 SCF Energy (H0 + V/2)                       =    -271.58112685 
 Solute Internal Energy (H0)                 =    -271.57850804 
 Total Free Energy (H0 + V/2 + non-elec)     =    -271.58112685 hartree
                                             = -170419.72924133 kcal/mol
***********************************************************

E_pcm = -0.0026188119
Multipole orders to be included
        2
        3
computing dipole RHS
computing quadrupole RHS
total number of RHS in solve_reponses: 8
RHS batch sizes
        8
Beginning Block Conjugate Gradient Iterations. Batch Number: 0
computing hessian-vector products by finite difference
              1      5.71e-01     00000 Conjugate Gradient Iteration
computing hessian-vector products by finite difference
              2      1.87e-01     00000 Conjugate Gradient Iteration
computing hessian-vector products by finite difference
              3      4.29e-02     00000 Conjugate Gradient Iteration
computing hessian-vector products by finite difference
              4      9.53e-03     00000 Conjugate Gradient Iteration
computing hessian-vector products by finite difference
              5      2.31e-03     00000 Conjugate Gradient Iteration
computing hessian-vector products by finite difference
              6      5.76e-04     00000 Conjugate Gradient Iteration
computing hessian-vector products by finite difference
              7      1.84e-04     00000 Conjugate Gradient Iteration
computing hessian-vector products by finite difference
              8      2.86e-05     00000 Conjugate Gradient Iteration
computing hessian-vector products by finite difference
              9      3.59e-06     00000 Conjugate Gradient Iteration
computing hessian-vector products by finite difference
             10      6.69e-07     00000 Conjugate Gradient Iteration
computing hessian-vector products by finite difference
             11      2.23e-07     00000 Conjugate Gradient Iteration
computing hessian-vector products by finite difference
             12      3.67e-08     00000 Conjugate Gradient Iteration
computing hessian-vector products by finite difference
             13      6.53e-09     00000 CG Converged
batch 0 complete
Done Calculating Responses
TESTING ORTHOGONALIZATION OF MULTIPOLE BASIS
Multipole virts passed orthogonality test
Virts Per Order
           75
          125
 
 --------------------------------------------------------------
 
                    Orbital Energies (a.u.)
 --------------------------------------------------------------
 
 Alpha MOs
 -- Occupied --
-10.2852 -10.2772 -10.2770 -10.2739 -10.2734 -10.2732 -10.2634  -0.9927
 -0.9060  -0.8767  -0.8127  -0.7306  -0.7046  -0.6283  -0.5721  -0.5699
 -0.5359  -0.5298  -0.5138  -0.4888  -0.4707  -0.4435  -0.4408  -0.3477
 -0.3372
 -- Virtual --
  0.0595   0.0632   0.0661   0.0789   0.0845   0.1042   0.1100   0.1136
  0.1353   0.1526   0.1649   0.1693   0.1839   0.1906   0.1941   0.1998
  0.2224   0.2258   0.2315   0.2379   0.2465   0.2563   0.2591   0.2687
  0.2775   0.2812   0.2846   0.2898   0.2927   0.2996   0.3048   0.3111
  0.3213   0.3241   0.3292   0.3368   0.3482   0.3513   0.3661   0.3705
  0.3725   0.3815   0.3833   0.3872   0.3901   0.3983   0.4027   0.4040
  0.4113   0.4272   0.4284   0.4334   0.4385   0.4460   0.4485   0.4547
  0.4620   0.4689   0.4760   0.4806   0.4876   0.4927   0.5099   0.5124
  0.5158   0.5215   0.5331   0.5364   0.5401   0.5480   0.5484   0.5682
  0.5748   0.5821   0.5908   0.5955   0.5973   0.6190   0.6343   0.6404
  0.6641   0.6704   0.6799   0.6828   0.6872   0.7005   0.7178   0.7196
  0.7275   0.7295   0.7442   0.7583   0.7618   0.7637   0.7738   0.7822
  0.7840   0.7924   0.7946   0.8002   0.8053   0.8215   0.8249   0.8278
  0.8308   0.8341   0.8448   0.8550   0.8592   0.8666   0.8846   0.8906
  0.9092   0.9228   0.9291   0.9452   0.9505   1.0011   1.0240   1.0378
  1.0426   1.0581   1.0665   1.0707   1.0854   1.0889   1.0972   1.1388
  1.1584   1.1706   1.2527   1.2693   1.2900   1.3176   1.3460   1.3488
  1.3688   1.4331   1.4468   1.4524   1.4554   1.4745   1.5194   1.5258
  1.5964   1.6035   1.6142   1.6223   1.6512   1.6666   1.7331   1.7699
  1.7813   1.7897   1.7969   1.8129   1.8257   1.8572   1.8819   1.9060
  1.9141   1.9237   1.9373   1.9649   1.9827   1.9912   2.0121   2.0211
  2.0284   2.0442   2.0634   2.0855   2.1069   2.1178   2.1701   2.1785
  2.1928   2.2345   2.2422   2.2618   2.2888   2.3035   2.3823   2.3883
  2.3939   2.4112   2.4742   2.5082   2.5363   2.5474   2.5561   2.5967
  2.6133   2.6277   2.6659   2.6725   2.6872   2.7039   2.7440   2.7591
  2.7767   2.7978   2.8137   2.8342   2.8538   2.8927   2.9025   2.9127
  2.9262   2.9317   2.9578   2.9692   2.9862   3.0113   3.0212   3.0416
  3.0624   3.0777   3.0895   3.1296   3.1631   3.1922   3.1955   3.2178
  3.2262   3.2461   3.2822   3.2902   3.3276   3.3537   3.3658   3.3685
  3.3969   3.4297   3.4407   3.4477   3.4558   3.4684   3.4781   3.4871
  3.5005   3.5213   3.5342   3.5357   3.5426   3.5568   3.5734   3.5936
  3.6112   3.6191   3.6466   3.6768   3.6988   3.7345   3.7624   3.7981
  3.8372   3.8924   3.9036   3.9355   3.9507   3.9741   4.0165   4.0420
  4.1127   4.1934   4.2520   4.2588   4.2690   4.2904   4.3051   4.3153
  4.3240   4.3432   4.3574   4.3834   4.4046   4.4224   4.4667   4.5130
  4.5937   4.6033   4.7348   4.7612   4.7952   4.8546   4.9022   4.9361
  4.9984   5.0329   5.1493   5.2534   5.3254   5.3444   5.4792   5.5216
  5.6464   5.8343  22.5851  22.6670  22.8554  22.8643  22.9627  23.0274
 23.3646
 --------------------------------------------------------------
 
          Ground-State Mulliken Net Atomic Charges

     Atom                 Charge (a.u.)
  ----------------------------------------
      1 C                    -1.013017
      2 C                    -0.499973
      3 C                    -0.311712
      4 C                    -0.468513
      5 C                     0.863765
      6 C                    -0.515767
      7 C                    -0.410504
      8 H                     0.317064
      9 H                     0.338667
     10 H                     0.335894
     11 H                     0.316504
     12 H                     0.274692
     13 H                     0.253829
     14 H                     0.304742
     15 H                     0.214329
  ----------------------------------------
  Sum of atomic charges =     0.000000

 -----------------------------------------------------------------
                    Cartesian Multipole Moments
 -----------------------------------------------------------------
    Charge (ESU x 10^10)
                -0.0000
    Dipole Moment (Debye)
         X       0.2516      Y      -0.0381      Z       0.4333
       Tot       0.5025
    Quadrupole Moments (Debye-Ang)
        XX     -43.9792     XY      -2.4546     YY     -39.4505
        XZ       2.8301     YZ       1.5200     ZZ     -39.0478
    Octopole Moments (Debye-Ang^2)
       XXX     245.9949    XXY      20.1750    XYY      74.2907
       YYY      26.6186    XXZ     -70.0929    XYZ      -5.8474
       YYZ     -52.8613    XZZ      77.9165    YZZ      10.6003
       ZZZ    -156.6957
    Hexadecapole Moments (Debye-Ang^3)
      XXXX   -1185.9245   XXXY     -55.8674   XXYY    -228.3002
      XYYY     -23.7485   YYYY    -274.3783   XXXZ     244.3773
      XXYZ      17.0945   XYYZ      61.8252   YYYZ      17.9910
      XXZZ    -351.1607   XYZZ      -8.5409   YYZZ    -188.8127
      XZZZ     181.6789   YZZZ      11.5898   ZZZZ    -880.3859
 -----------------------------------------------------------------
Archival summary:
1\1\nid00544\SP\ProcedureUnspecified\BasisUnspecified\78\meili\SunSep2615:22:542021SunSep2615:22:542021\0\\#,ProcedureUnspecified,BasisUnspecified,\\0,1\C\C,1,1.40121\H,2,1.08009,1,120.069\C,1,1.40528,2,119.351,3,179.951,0\H,4,1.08085,1,119.788,2,179.567,0\C,4,1.4044,1,120.758,2,-0.0821588,0\H,6,1.08086,4,120.249,1,179.346,0\C,6,1.4022,4,119.643,1,-0.12286,0\H,8,1.081,6,120.152,4,-179.857,0\C,8,1.402,6,119.953,4,0.0945044,0\H,10,1.07932,8,119.932,6,-179.316,0\C,1,1.50586,2,120.468,3,2.38108,0\H,12,1.09107,1,110.024,2,-19.3379,0\H,12,1.09109,1,107.792,2,-136.34,0\H,12,1.1,1,112.528,2,103.228,0\\\@

 Total job time:  29896.67s(wall), 59337.61s(cpu) 
 Sun Sep 26 15:22:57 2021

        *************************************************************
        *                                                           *
        *  Thank you very much for using Q-Chem.  Have a nice day.  *
        *                                                           *
        *************************************************************


Done Job For Fragment 0
calling putenv with: QCSCRATCH=/global/cscratch1/sd/meili 
calling putenv with: QCLOCALSCR=/tmp 
calling putenv with: QCTHREADS=32 
Creating input file /tmp/qchem6459/Frg2.input
using default PutDataFrgm: nothing
calling putenv with: QCSCRATCH=/tmp/qchem6459/ 
calling putenv with: QCLOCALSCR=/tmp/qchem6459/ 
Spawning Job For Fragment 1
                  Welcome to Q-Chem
     A Quantum Leap Into The Future Of Chemistry


 Q-Chem 5.2, Q-Chem, Inc., Pleasanton, CA (2019)

 License issued to: National Energy Research Scientific Computing Center

 Yihan Shao,  Zhengting Gan,  E. Epifanovsky,  A. T. B. Gilbert,  M. Wormit,  
 J. Kussmann,  A. W. Lange,  A. Behn,  Jia Deng,  Xintian Feng,  D. Ghosh,  
 M. Goldey,  P. R. Horn,  L. D. Jacobson,  I. Kaliman,  T. Kus,  A. Landau,  
 Jie Liu,  E. I. Proynov,  R. M. Richard,  R. P. Steele,  E. J. Sundstrom,  
 H. L. Woodcock III,  P. M. Zimmerman,  D. Zuev,  B. Albrecht,  E. Alguire,  
 S. A. Baeppler,  D. Barton,  Z. Benda,  Y. A. Bernard,  E. J. Berquist,  
 K. B. Bravaya,  H. Burton,  D. Casanova,  Chun-Min Chang,  Yunqing Chen,  
 A. Chien,  K. D. Closser,  M. P. Coons,  S. Coriani,  S. Dasgupta,  
 A. L. Dempwolff,  M. Diedenhofen,  Hainam Do,  R. G. Edgar,  Po-Tung Fang,  
 S. Faraji,  S. Fatehi,  Qingguo Feng,  K. D. Fenk,  J. Fosso-Tande,  
 J. Gayvert,  Qinghui Ge,  A. Ghysels,  G. Gidofalvi,  J. Gomes,  
 J. Gonthier,  A. Gunina,  D. Hait,  M. W. D. Hanson-Heine,  
 P. H. P. Harbach,  A. W. Hauser,  M. F. Herbst,  J. E. Herr,  
 E. G. Hohenstein,  Z. C. Holden,  Kerwin Hui,  B. C. Huynh,  T.-C. Jagau,  
 Hyunjun Ji,  B. Kaduk,  K. Khistyaev,  Jaehoon Kim,  P. Klunzinger,  K. Koh,  
 D. Kosenkov,  L. Koulias,  T. Kowalczyk,  C. M. Krauter,  A. Kunitsa,  
 Ka Un Lao,  A. Laurent,  K. V. Lawler,  Joonho Lee,  D. Lefrancois,  
 S. Lehtola,  D. S. Levine,  Yi-Pei Li,  You-Sheng Lin,  Fenglai Liu,  
 E. Livshits,  A. Luenser,  P. Manohar,  E. Mansoor,  S. F. Manzer,  
 Shan-Ping Mao,  Yuezhi Mao,  N. Mardirossian,  A. V. Marenich,  
 T. Markovich,  L. A. Martinez-Martinez,  S. A. Maurer,  N. J. Mayhall,  
 S. C. McKenzie,  J.-M. Mewes,  P. Morgante,  A. F. Morrison,  
 J. W. Mullinax,  K. Nanda,  T. S. Nguyen-Beck,  R. Olivares-Amaya,  
 J. A. Parkhill,  Zheng Pei,  T. M. Perrine,  F. Plasser,  P. Pokhilko,  
 S. Prager,  A. Prociuk,  E. Ramos,  D. R. Rehn,  F. Rob,  M. Scheurer,  
 M. Schneider,  N. Sergueev,  S. M. Sharada,  S. Sharma,  D. W. Small,  
 T. Stauch,  T. Stein,  Yu-Chuan Su,  A. J. W. Thom,  A. Tkatchenko,  
 T. Tsuchimochi,  N. M. Tubman,  L. Vogt,  M. L. Vidal,  O. Vydrov,  
 M. A. Watson,  J. Wenzel,  M. de Wergifosse,  T. A. Wesolowski,  A. White,  
 J. Witte,  A. Yamada,  Jun Yang,  K. Yao,  S. Yeganeh,  S. R. Yost,  
 Zhi-Qiang You,  A. Zech,  Igor Ying Zhang,  Xing Zhang,  Yan Zhao,  
 Ying Zhu,  B. R. Brooks,  G. K. L. Chan,  C. J. Cramer,  M. S. Gordon,  
 W. J. Hehre,  A. Klamt,  M. W. Schmidt,  C. D. Sherrill,  D. G. Truhlar,  
 A. Aspuru-Guzik,  R. Baer,  A. T. Bell,  N. A. Besley,  Jeng-Da Chai,  
 A. E. DePrince, III,  R. A. DiStasio Jr.,  A. Dreuw,  B. D. Dunietz,  
 T. R. Furlani,  Chao-Ping Hsu,  Yousung Jung,  Jing Kong,  D. S. Lambrecht,  
 WanZhen Liang,  C. Ochsenfeld,  V. A. Rassolov,  L. V. Slipchenko,  
 J. E. Subotnik,  T. Van Voorhis,  J. M. Herbert,  A. I. Krylov,  
 P. M. W. Gill,  M. Head-Gordon

 Contributors to earlier versions of Q-Chem not listed above: 
 R. D. Adamson,  B. Austin,  J. Baker,  G. J. O. Beran,  K. Brandhorst,  
 S. T. Brown,  E. F. C. Byrd,  A. K. Chakraborty,  C.-L. Cheng,  
 Siu Hung Chien,  D. M. Chipman,  D. L. Crittenden,  H. Dachsel,  
 R. J. Doerksen,  A. D. Dutoi,  L. Fusti-Molnar,  W. A. Goddard III,  
 A. Golubeva-Zadorozhnaya,  S. R. Gwaltney,  G. Hawkins,  A. Heyden,  
 S. Hirata,  G. Kedziora,  F. J. Keil,  C. Kelley,  Jihan Kim,  R. A. King,  
 R. Z. Khaliullin,  P. P. Korambath,  W. Kurlancheek,  A. M. Lee,  M. S. Lee,  
 S. V. Levchenko,  Ching Yeh Lin,  D. Liotard,  R. C. Lochan,  I. Lotan,  
 P. E. Maslen,  N. Nair,  D. P. O'Neill,  D. Neuhauser,  E. Neuscamman,  
 C. M. Oana,  R. Olson,  B. Peters,  R. Peverati,  P. A. Pieniazek,  
 Y. M. Rhee,  J. Ritchie,  M. A. Rohrdanz,  E. Rosta,  N. J. Russ,  
 H. F. Schaefer III,  N. E. Schultz,  N. Shenvi,  A. C. Simmonett,  A. Sodt,  
 D. Stuck,  K. S. Thanthiriwatte,  V. Vanovschi,  Tao Wang,  A. Warshel,  
 C. F. Williams,  Q. Wu,  X. Xu,  W. Zhang

 Please cite Q-Chem as follows:
 Y. Shao et al., Mol. Phys. 113, 184-215 (2015)
 DOI: 10.1080/00268976.2014.952696

 Q-Chem 5.2.0 for Intel X86 EM64T Linux

 Parts of Q-Chem use Armadillo 8.300.2 (Tropical Shenanigans).
 http://arma.sourceforge.net/

 Q-Chem begins on Sun Sep 26 15:23:01 2021  

Host: cori01
0

     Scratch files written to /tmp/qchem6459//Frg2//
 May1019 |scratch|qcdevops|jenkins|workspace|build_RNUM -1
Processing $rem in /global/common/cori/software/qchem/5.2/config/preferences:
	 MEM_TOTAL  96000 
NAlpha2: 50
NElect   50
Mult     1
Symmetry turned off for PCM/SM12/SMD calculation

Checking the input file for inconsistencies... 	...done.

--------------------------------------------------------------
User input:
--------------------------------------------------------------
$molecule
0 1
 6	3.4505252815	1.3733451384	0.1913456955
 6	0.6925252815	-0.6506548616	-2.4206543045
 6	1.1555252815	-1.2946548616	-1.2856543045
 6	1.1175252815	0.6423451384	-2.7166543045
 6	2.0545252815	-0.6376548616	-0.4266543045
 6	2.0105252815	1.2983451384	-1.8616543045
 6	2.4845252815	0.6633451384	-0.7126543045
 1	-0.0004747185	-1.1556548616	-3.0776543045
 1	0.8165252815	-2.2946548616	-1.0536543045
 1	0.7655252815	1.1373451384	-3.6096543045
 1	2.4085252815	-1.1406548616	0.4623456955
 1	2.3355252815	2.3013451384	-2.1026543045
 1	3.1495252815	1.1963451384	1.2243456955
 1	3.3955252815	2.4463451384	0.0083456955
 1	4.4957052815	1.0549051384	0.0641156955
$end
$rem
EDA2		1
METHOD		WB97X-V
BASIS		DEF2-TZVPD
XC_GRID		000099000590
NL_GRID		1
UNRESTRICTED		FALSE
MAX_SCF_CYCLES		200
SYMMETRY		FALSE
SYM_IGNORE		TRUE
BASIS_LIN_DEP_THRESH		6
THRESH		14
SCF_CONVERGENCE		8
SCF_PRINT_FRGM		TRUE
SOLVENT_METHOD		PCM
!required keywords
JOBTYPE		SP
SYM_IGNORE		TRUE
SUBSYSTEM		TRUE
GEN_SCFMAN		TRUE
CHILD_INSTRUCTION		2
SYM_IGNORE		TRUE
SCFMI		0
RI_K 0		
PARI_K 0		
MIN_PARI_K 0		
IARI_K 0		
OCC_RI_K 0		
PURECART		1111
MEM_STATIC		2000
MEM_TOTAL		96000
GUI		0
CHILD_MP		1
CHILD_MP_ORDERS		232
FRZ_RELAX		0
FRZ_RELAX_METHOD		0
EDA_CLS_ELEC		1
EDA_CLS_DISP		0
FRZ_ORTHO_DECOMP		1
EDA2		FALSE
FRGM_METHOD		FALSE
CIS_N_ROOTS  0
LOCAL_CIS    0
CIS_RLX_DNS  1
$end
$pcm
THEORY                  CPCM
METHOD                  SWIG
SOLVER                  INVERSION
RADII                   UFF
HPOINTS                 302
HEAVYPOINTS             302
PRINTLEVEL              0
$end
$solvent
DIELECTRIC              78.390000 ! water
$end
--------------------------------------------------------------
 ----------------------------------------------------------------
             Standard Nuclear Orientation (Angstroms)
    I     Atom           X                Y                Z
 ----------------------------------------------------------------
    1      C       3.4505252815     1.3733451384     0.1913456955
    2      C       0.6925252815    -0.6506548616    -2.4206543045
    3      C       1.1555252815    -1.2946548616    -1.2856543045
    4      C       1.1175252815     0.6423451384    -2.7166543045
    5      C       2.0545252815    -0.6376548616    -0.4266543045
    6      C       2.0105252815     1.2983451384    -1.8616543045
    7      C       2.4845252815     0.6633451384    -0.7126543045
    8      H      -0.0004747185    -1.1556548616    -3.0776543045
    9      H       0.8165252815    -2.2946548616    -1.0536543045
   10      H       0.7655252815     1.1373451384    -3.6096543045
   11      H       2.4085252815    -1.1406548616     0.4623456955
   12      H       2.3355252815     2.3013451384    -2.1026543045
   13      H       3.1495252815     1.1963451384     1.2243456955
   14      H       3.3955252815     2.4463451384     0.0083456955
   15      H       4.4957052815     1.0549051384     0.0641156955
 ----------------------------------------------------------------
 Nuclear Repulsion Energy =         269.37127351 hartrees
 There are       25 alpha and       25 beta electrons
 Requested basis set is def2-TZVPD
 There are 131 shells and 331 basis functions

 Total QAlloc Memory Limit  96000 MB
 Mega-Array Size      1956 MB
 MEM_STATIC part      2000 MB
 Discretize the solute cavity surface with Lebedev spheres
	Using 302 Lebedev grid points for each H atom
	Using 302 Lebedev grid points for other atoms
	Atomic van der Waals radii will be scaled by 1.20
 Remove points where switching function is < 1.0e-08
 Keep 1778 surface tesserae and discard 2752 interior tesserae
 Molecular Surface Area = 178.228 Angst**2

                       Distance Matrix (Angstroms)
             C (  1)   C (  2)   C (  3)   C (  4)   C (  5)   C (  6)
   C (  2)  4.304147
   C (  3)  3.816645  1.384677
   C (  4)  3.799173  1.392871  2.408563
   C (  5)  2.524849  2.414798  1.406318  2.785762
   C (  6)  2.508791  2.418306  2.790421  1.399575  2.410240
   C (  7)  1.501490  2.802699  2.434817  2.425932  1.399749  1.395744
   H (  8)  5.384385  1.080242  2.137036  2.147801  3.393987  3.397778
   H (  9)  4.684251  2.141682  1.081085  3.388531  2.161347  3.871453
   H ( 10)  4.659670  2.148486  3.386399  1.079990  3.865700  2.152080
   H ( 11)  2.734849  3.390641  2.156207  3.866757  1.081039  3.392359
   H ( 12)  2.714193  3.393358  3.871835  2.147743  3.394946  1.081534
   H ( 13)  1.090421  4.768048  4.059707  4.468492  2.699700  3.291067
   H ( 14)  1.089882  4.774689  4.548309  3.983632  3.390953  2.594808
   H ( 15)  1.099997  4.852545  4.301060  4.394882  3.010810  3.153407
             C (  7)   H (  8)   H (  9)   H ( 10)   H ( 11)   H ( 12)
   H (  8)  3.882938
   H (  9)  3.412956  2.461988
   H ( 10)  3.401800  2.475405  4.279528
   H ( 11)  2.154256  4.281951  2.482828  4.946708
   H ( 12)  2.153450  4.284667  4.952876  2.467964  4.293241
   H ( 13)  2.116195  5.827659  4.776950  5.390222  2.567352  3.598965
   H ( 14)  2.128110  5.833577  5.500561  4.660505  3.747913  2.366632
   H ( 15)  2.191241  5.913791  5.099542  5.236184  3.055387  3.303768
             H ( 13)   H ( 14)
   H ( 14)  1.761156
   H ( 15)  1.782790  1.774715
 
 A cutoff of  1.0D-14 yielded   8358 shell pairs
 There are     54486 function pairs (     69437 Cartesian)
 Smallest overlap matrix eigenvalue = 5.78E-07
 Linear dependence detected in AO basis
 Tighter screening thresholds may be required for diffuse basis sets
 Use S2THRESH > 14 and THRESH = 14 in case of SCF convergence issues
 Number of orthogonalized atomic orbitals = 330
 Maximum deviation from orthogonality = 1.585E-10

 Scale SEOQF with 1.000000e-01/1.000000e-01/1.000000e-01

 Standard Electronic Orientation quadrupole field applied
 Nucleus-field energy     =    -0.0000000026 hartrees
 Guess from superposition of atomic densities
 Warning:  Energy on first SCF cycle will be non-variational
 SAD guess density has 49.913408 electrons

 -----------------------------------------------------------------------
  General SCF calculation program by
  Eric Jon Sundstrom, Paul Horn, Yuezhi Mao, Dmitri Zuev, Alec White,
  David Stuck, Shaama M.S., Shane Yost, Joonho Lee, David Small,
  Daniel Levine, Susi Lehtola, Hugh Burton, Evgeny Epifanovsky
 -----------------------------------------------------------------------
 Exchange:     0.1670 Hartree-Fock + 1.0000 wB97X-V + LR-HF
 Correlation:  1.0000 wB97X-V
 Using Euler-Maclaurin-Lebedev (99,590) quadrature formula
 Nonlocal Correlation:  VV10 with C = 0.0100 and b = 6.00 and scale = 1.00000
 Grid used for NLC:  SG-1 standard quadrature
Energy prior to optimization (guess energy) = -271.520775838921
Begin Timing: Total SCF Calculation
begin iterations for algorithm: DIIS         
the SCF tolerance is set to 1.00e-08
    1    -271.5207758389      1.95e-03     00000 
    2    -271.5595858317      1.24e-03     00000 
    3    -271.5811431493      1.38e-04     00000 
    4    -271.5815607019      4.72e-05     00000 
    5    -271.5815938702      1.60e-05     00000 
    6    -271.5815983336      3.66e-06     00000 
    7    -271.5815986234      1.60e-06     00000 
    8    -271.5815986663      3.63e-07     00000 
    9    -271.5815986693      7.56e-08     00000 
   10    -271.5815986695      4.21e-08     00000 
   11    -271.5815986695      5.83e-09     00000 Convergence criterion met
Timing for Total SCF: 1308.00s (wall), 2590.82s (cpu)

************** Final PCM Free Energy Summary **************
 G_electrostatic  =      -0.00253052 hartree =      -1.58792353 kcal/mol
 G_cavitation     =       0.00000000 hartree =       0.00000000 kcal/mol
 G_dispersion     =       0.00000000 hartree =       0.00000000 kcal/mol
 G_repulsion      =       0.00000000 hartree =       0.00000000 kcal/mol
 --------------------------------------------------
 Non-electrostatic Free Energy =       0.00000000 hartree =       0.00000000 kcal/mol
 Total                         =      -0.00253052 hartree =      -1.58792353 kcal/mol
 --------------------------------------------------
 SCF Energy (H0 + V/2)                       =    -271.58159867 
 Solute Internal Energy (H0)                 =    -271.57906815 
 Total Free Energy (H0 + V/2 + non-elec)     =    -271.58159867 hartree
                                             = -170420.02531442 kcal/mol
***********************************************************

E_pcm = -0.0025305172
Multipole orders to be included
        2
        3
computing dipole RHS
computing quadrupole RHS
total number of RHS in solve_reponses: 8
RHS batch sizes
        8
Beginning Block Conjugate Gradient Iterations. Batch Number: 0
computing hessian-vector products by finite difference
              1      5.70e-01     00000 Conjugate Gradient Iteration
computing hessian-vector products by finite difference
              2      1.86e-01     00000 Conjugate Gradient Iteration
computing hessian-vector products by finite difference
              3      4.29e-02     00000 Conjugate Gradient Iteration
computing hessian-vector products by finite difference
              4      9.72e-03     00000 Conjugate Gradient Iteration
computing hessian-vector products by finite difference
              5      2.09e-03     00000 Conjugate Gradient Iteration
computing hessian-vector products by finite difference
              6      5.92e-04     00000 Conjugate Gradient Iteration
computing hessian-vector products by finite difference
              7      1.61e-04     00000 Conjugate Gradient Iteration
computing hessian-vector products by finite difference
              8      2.52e-05     00000 Conjugate Gradient Iteration
computing hessian-vector products by finite difference
              9      2.85e-06     00000 Conjugate Gradient Iteration
computing hessian-vector products by finite difference
             10      4.64e-07     00000 Conjugate Gradient Iteration
computing hessian-vector products by finite difference
             11      9.43e-08     00000 Conjugate Gradient Iteration
computing hessian-vector products by finite difference
             12      1.40e-08     00000 Conjugate Gradient Iteration
computing hessian-vector products by finite difference
             13      2.45e-09     00000 CG Converged
batch 0 complete
Done Calculating Responses
TESTING ORTHOGONALIZATION OF MULTIPOLE BASIS
Multipole virts passed orthogonality test
Virts Per Order
           75
          125
 
 --------------------------------------------------------------
 
                    Orbital Energies (a.u.)
 --------------------------------------------------------------
 
 Alpha MOs
 -- Occupied --
-10.2834 -10.2747 -10.2743 -10.2725 -10.2712 -10.2702 -10.2625  -0.9960
 -0.9083  -0.8775  -0.8138  -0.7317  -0.7049  -0.6300  -0.5737  -0.5690
 -0.5355  -0.5297  -0.5150  -0.4886  -0.4726  -0.4434  -0.4407  -0.3480
 -0.3388
 -- Virtual --
  0.0605   0.0633   0.0682   0.0789   0.0845   0.1043   0.1102   0.1136
  0.1355   0.1536   0.1650   0.1695   0.1846   0.1898   0.1944   0.1997
  0.2218   0.2252   0.2327   0.2385   0.2486   0.2575   0.2593   0.2690
  0.2789   0.2826   0.2844   0.2906   0.2929   0.3000   0.3040   0.3102
  0.3203   0.3241   0.3305   0.3369   0.3489   0.3523   0.3651   0.3723
  0.3754   0.3820   0.3833   0.3875   0.3901   0.3996   0.4036   0.4049
  0.4118   0.4277   0.4289   0.4357   0.4395   0.4471   0.4496   0.4532
  0.4634   0.4698   0.4739   0.4809   0.4898   0.4955   0.5110   0.5136
  0.5168   0.5227   0.5338   0.5372   0.5418   0.5479   0.5497   0.5669
  0.5791   0.5848   0.5937   0.5960   0.5983   0.6210   0.6371   0.6423
  0.6623   0.6737   0.6805   0.6859   0.6901   0.6977   0.7192   0.7225
  0.7284   0.7311   0.7441   0.7585   0.7628   0.7656   0.7761   0.7843
  0.7884   0.7927   0.7957   0.8010   0.8060   0.8217   0.8258   0.8288
  0.8335   0.8348   0.8462   0.8554   0.8571   0.8694   0.8870   0.8908
  0.9081   0.9197   0.9305   0.9456   0.9504   1.0055   1.0246   1.0388
  1.0449   1.0594   1.0722   1.0725   1.0900   1.0917   1.1005   1.1392
  1.1602   1.1735   1.2537   1.2725   1.2924   1.3217   1.3488   1.3509
  1.3751   1.4354   1.4494   1.4559   1.4604   1.4778   1.5237   1.5331
  1.5987   1.6052   1.6175   1.6238   1.6587   1.6742   1.7362   1.7736
  1.7854   1.7955   1.7997   1.8145   1.8276   1.8630   1.8847   1.9100
  1.9158   1.9217   1.9398   1.9617   1.9831   1.9916   2.0121   2.0237
  2.0306   2.0449   2.0660   2.0892   2.1087   2.1200   2.1720   2.1786
  2.1951   2.2312   2.2438   2.2672   2.2859   2.3087   2.3858   2.3957
  2.4007   2.4099   2.4774   2.5085   2.5367   2.5517   2.5615   2.6045
  2.6215   2.6276   2.6649   2.6729   2.6919   2.7060   2.7518   2.7664
  2.7820   2.8086   2.8132   2.8415   2.8584   2.8967   2.9067   2.9146
  2.9306   2.9350   2.9618   2.9735   2.9886   3.0144   3.0199   3.0478
  3.0613   3.0853   3.0955   3.1249   3.1700   3.1929   3.1975   3.2198
  3.2291   3.2403   3.2842   3.2939   3.3360   3.3540   3.3619   3.3727
  3.3995   3.4357   3.4427   3.4487   3.4577   3.4732   3.4837   3.4955
  3.5037   3.5291   3.5384   3.5411   3.5535   3.5633   3.5780   3.5996
  3.6201   3.6270   3.6505   3.6876   3.7073   3.7474   3.7733   3.8064
  3.8465   3.8928   3.9072   3.9485   3.9517   3.9832   4.0322   4.0500
  4.1152   4.1981   4.2633   4.2693   4.2840   4.3033   4.3204   4.3290
  4.3425   4.3552   4.3843   4.3964   4.4197   4.4392   4.4744   4.5287
  4.5919   4.6241   4.7396   4.7678   4.8139   4.8698   4.9043   4.9439
  5.0131   5.0432   5.1563   5.2637   5.3565   5.3727   5.4935   5.5308
  5.6608   5.8450  22.5789  22.6733  22.8758  22.8937  22.9820  23.0674
 23.4007
 --------------------------------------------------------------
 
          Ground-State Mulliken Net Atomic Charges

     Atom                 Charge (a.u.)
  ----------------------------------------
      1 C                    -1.033324
      2 C                    -0.472951
      3 C                    -0.480977
      4 C                    -0.520401
      5 C                    -0.332658
      6 C                    -0.390191
      7 C                     0.883038
      8 H                     0.333405
      9 H                     0.313243
     10 H                     0.312794
     11 H                     0.338852
     12 H                     0.301271
     13 H                     0.256138
     14 H                     0.276115
     15 H                     0.215647
  ----------------------------------------
  Sum of atomic charges =     0.000000

 -----------------------------------------------------------------
                    Cartesian Multipole Moments
 -----------------------------------------------------------------
    Charge (ESU x 10^10)
                 0.0000
    Dipole Moment (Debye)
         X       0.3167      Y       0.2131      Z       0.2935
       Tot       0.4815
    Quadrupole Moments (Debye-Ang)
        XX     -41.6778     XY       2.9400     YY     -39.2501
        XZ       3.4787     YZ      -1.7476     ZZ     -41.1471
    Octopole Moments (Debye-Ang^2)
       XXX    -236.9232    XXY      -1.2320    XYY     -75.4562
       YYY     -28.3189    XXZ      65.0521    XYZ      -6.9545
       YYZ      49.4030    XZZ     -89.0719    YZZ      -4.5068
       ZZZ     155.8680
    Hexadecapole Moments (Debye-Ang^3)
      XXXX   -1182.7480   XXXY    -118.6935   XXYY    -253.1311
      XYYY    -125.7865   YYYY    -342.5120   XXXZ     222.0709
      XXYZ      -8.6560   XYYZ      59.5365   YYYZ       7.4294
      XXZZ    -359.6898   XYZZ     -33.7128   YYZZ    -178.9537
      XZZZ     222.1335   YZZZ      -2.6994   ZZZZ    -745.3727
 -----------------------------------------------------------------
Archival summary:
1\1\nid00544\SP\ProcedureUnspecified\BasisUnspecified\78\meili\SunSep2623:19:232021SunSep2623:19:232021\0\\#,ProcedureUnspecified,BasisUnspecified,\\0,1\C\C,1,1.39574\H,2,1.08153,1,120.219\C,2,1.39957,1,120.421,3,179.623,0\H,4,1.07999,2,119.885,1,-179.261,0\C,4,1.39287,2,119.998,1,0.233875,0\H,6,1.08024,4,120.031,2,179.7,0\C,6,1.38468,4,120.259,2,-0.337921,0\H,8,1.08109,6,120.083,4,179.417,0\C,1,1.39975,2,119.126,3,-179.651,0\H,10,1.08104,1,119.993,2,-179.664,0\C,1,1.50149,2,119.933,3,-0.0961944,0\H,12,1.08988,1,109.389,2,19.8429,0\H,12,1.09042,1,108.422,2,137.099,0\H,12,1.1,1,113.877,2,-101.441,0\\\@

 Total job time:  28586.25s(wall), 56705.18s(cpu) 
 Sun Sep 26 23:19:27 2021

        *************************************************************
        *                                                           *
        *  Thank you very much for using Q-Chem.  Have a nice day.  *
        *                                                           *
        *************************************************************


Done Job For Fragment 1
calling putenv with: QCSCRATCH=/global/cscratch1/sd/meili 
calling putenv with: QCLOCALSCR=/tmp 
calling putenv with: QCTHREADS=32 
Doing General SCFMI
 Exchange:     0.1670 Hartree-Fock + 1.0000 wB97X-V + LR-HF
 Correlation:  1.0000 wB97X-V
 Using Euler-Maclaurin-Lebedev (99,590) quadrature formula
 Nonlocal Correlation:  VV10 with C = 0.0100 and b = 6.00 and scale = 1.00000
 Grid used for NLC:  SG-1 standard quadrature
performing fock build before subrot guess so that all methods have access
Printing subrot_rss_gen Method Specification:
Occupied Subspace Method is 0
Virtual Subspace Method is 0
Energy of the unrelaxed supersystem initial determinant -543.158960210080
performing fock build before subrot guess so that all methods have access
Printing subrot_rss_gen Method Specification:
Occupied Subspace Method is 0
Virtual Subspace Method is 0
Energy of the unrelaxed supersystem initial determinant w/ solvent -543.165054745813
write pseudocanon occs and virts to disk
write pseudocanon orbital energies to disk
Tolerance of ortho_decomp_scf: 1.00e-06
GDM subspace size: 20
Beginning the Orthogonal Decomposition of the Initial Supersystem Wavefunction
    1    -543.1452083504      1.65e-02     ortho_decomp Preconditoned Steepest Descent
    2    -543.1463703089      3.96e-04     ortho_decomp BFGS Step
    3    -543.1463738916      3.16e-05     ortho_decomp BFGS Step
    4    -543.1463738988      1.23e-06     ortho_decomp BFGS Step
    5    -543.1463738988      2.65e-08     ortho_decomp 00000 Convergence criterion met
 Hartree-Fock
 Hartree-Fock
 Hartree-Fock
Doing General SCFMI
 Exchange:     0.1670 Hartree-Fock + 1.0000 wB97X-V + LR-HF
 Correlation:  1.0000 wB97X-V
 Using Euler-Maclaurin-Lebedev (99,590) quadrature formula
 Nonlocal Correlation:  VV10 with C = 0.0100 and b = 6.00 and scale = 1.00000
 Grid used for NLC:  SG-1 standard quadrature
performing fock build at end of subrot_r(subrot) constructor so that all methods have access
<S^2> of initial wavefunction before polarization iterations 0.0000000000
Beginning iterations for the determination of the polarized wavefunction
Energy prior to optimization (guess energy) = -543.165054745813
Begin Timing: Total SCF Calculation
begin iterations for algorithm: DIIS         
the SCF tolerance is set to 1.00e-08
    1    -543.1650547458      4.31e-05     00000 
    2    -543.1651855657      2.90e-05     00000 
    3    -543.1652291573      7.66e-06     00000 
    4    -543.1652340792      3.19e-06     00000 
    5    -543.1652348842      1.10e-06     00000 
    6    -543.1652350060      4.02e-07     00000 
    7    -543.1652350185      1.21e-07     00000 
    8    -543.1652350195      5.52e-08     00000 
    9    -543.1652350197      1.58e-08     00000 
   10    -543.1652350197      6.43e-09     00000 Convergence criterion met
write pseudocanon occs and virts to disk
write pseudocanon orbital energies to disk
Timing for Total SCF: 9175.00s (wall), 18259.95s (cpu)
<S^2> of polarized wavefunction after polarization iterations 0.0000000000
relaxing scfmi constraint to allow all rotations in the entire AO span
Doing General SCFMI
 Exchange:     0.1670 Hartree-Fock + 1.0000 wB97X-V + LR-HF
 Correlation:  1.0000 wB97X-V
 Using Euler-Maclaurin-Lebedev (99,590) quadrature formula
 Nonlocal Correlation:  VV10 with C = 0.0100 and b = 6.00 and scale = 1.00000
 Grid used for NLC:  SG-1 standard quadrature
performing fock build at end of subrot_r(subrot) constructor so that all methods have access
<S^2> of polarized wavefunction before ct-allowed iterations 0.0000000000
Beginning iterations for the determination of the CT-Allowed wavefunction
Energy prior to optimization (guess energy) = -543.165235019715
Begin Timing: Total SCF Calculation
begin iterations for algorithm: DIIS         
the SCF tolerance is set to 1.00e-08
    1    -543.1652350197      4.57e-05     00000 
    2    -543.1656665137      4.30e-06     00000 
    3    -543.1656822944      8.44e-07     00000 
    4    -543.1656830756      2.38e-07     00000 
    5    -543.1656830926      1.16e-07     00000 
    6    -543.1656830967      2.00e-08     00000 
    7    -543.1656830968      6.31e-09     00000 Convergence criterion met
write pseudocanon occs and virts to disk
write pseudocanon orbital energies to disk
Timing for Total SCF: 6144.00s (wall), 12231.33s (cpu)
<S^2> of ct_allowed wavefunction after ct-allowed iterations 0.0000000000

================================
        Results of EDA2         
================================
Basic EDA Quantities
--------------------
Fragment Energies (Ha):
1 -271.5811268470
2 -271.5815986695
--------------------
  E_prp (kJ/mol) = -0.0000
  E_sol (kJ/mol) = -2.4817
  E_frz (kJ/mol) = -3.6338
  E_pol (kJ/mol) = -0.4733
  E_vct (kJ/mol) = -1.1764
  E_int (kJ/mol) = -7.7652
--------------------


Initial Wavefunction Decomposition
--------------------
  --------------------
  Orthogonal Fragment Subspace Decomposition:
  --------------------
     E_elec   (ELEC)   (kJ/mol) = -9.3738
     E_pauli  (PAULI)  (kJ/mol) = 22.7616
     E_disp   (DISP)   (kJ/mol) = -17.0216
     --------------------
     Terms summing to E_pauli:
     --------------------
        E_kep_pauli       (kJ/mol) = 29.4120
        E_disp_free_pauli (kJ/mol) = -6.6503
  --------------------
  Classical Frozen Decomposition:
  --------------------
     E_cls_elec  (CLS ELEC)  (kJ/mol) = 1.0643
     E_cls_pauli (CLS PAULI) (kJ/mol) = -4.6981
    [E_mod_pauli (MOD PAULI) (kJ/mol) = 12.3234 (CLS PAULI - DISP from orthogonal decomposition) ]
  --------------------
--------------------

Simplified EDA Summary (kJ/mol)
--------------------
 PREPARATION     -0.0000
 SOLVATION       -2.4817
 FROZEN          13.3878      (does not include dispersion)
[PAULI           22.7616]     (if this is negligible, then frozen describes electrostatics)
 DISPERSION      -17.0216
 POLARIZATION    -0.4733
 CHARGE TRANSFER -1.1764
 TOTAL           -7.7652     (PRP + SOL + FRZ + DISP + POL + CT)
--------------------
 
 --------------------------------------------------------------
 
                    Orbital Energies (a.u.)
 --------------------------------------------------------------
 
 Alpha MOs
 -- Occupied --
-10.2837 -10.2821 -10.2757 -10.2755 -10.2731 -10.2729 -10.2725 -10.2722
-10.2714 -10.2708 -10.2698 -10.2685 -10.2629 -10.2620  -0.9945  -0.9910
 -0.9070  -0.9047  -0.8767  -0.8743  -0.8127  -0.8116  -0.7304  -0.7290
 -0.7044  -0.7025  -0.6293  -0.6264  -0.5726  -0.5710  -0.5689  -0.5672
 -0.5370  -0.5334  -0.5303  -0.5263  -0.5139  -0.5125  -0.4880  -0.4877
 -0.4756  -0.4648  -0.4424  -0.4419  -0.4398  -0.4392  -0.3534  -0.3423
 -0.3360  -0.3324
 -- Virtual --
  0.0538   0.0556   0.0583   0.0692   0.0719   0.0722   0.0758   0.0791
  0.0924   0.0959   0.0990   0.0999   0.1089   0.1201   0.1236   0.1276
  0.1323   0.1342   0.1373   0.1544   0.1592   0.1684   0.1719   0.1749
  0.1810   0.1881   0.1948   0.1964   0.2011   0.2100   0.2184   0.2189
  0.2252   0.2275   0.2281   0.2361   0.2408   0.2440   0.2468   0.2515
  0.2557   0.2616   0.2629   0.2681   0.2726   0.2742   0.2756   0.2776
  0.2794   0.2833   0.2897   0.2912   0.2948   0.3003   0.3025   0.3064
  0.3133   0.3152   0.3170   0.3204   0.3277   0.3305   0.3310   0.3343
  0.3369   0.3401   0.3453   0.3487   0.3504   0.3574   0.3594   0.3617
  0.3677   0.3718   0.3730   0.3734   0.3757   0.3780   0.3823   0.3844
  0.3894   0.3915   0.3945   0.3992   0.4005   0.4048   0.4073   0.4110
  0.4171   0.4200   0.4244   0.4284   0.4293   0.4356   0.4365   0.4383
  0.4429   0.4435   0.4462   0.4475   0.4496   0.4551   0.4604   0.4622
  0.4637   0.4661   0.4682   0.4717   0.4795   0.4816   0.4831   0.4873
  0.4886   0.4922   0.4983   0.5023   0.5052   0.5061   0.5090   0.5104
  0.5156   0.5192   0.5268   0.5280   0.5316   0.5364   0.5424   0.5480
  0.5517   0.5548   0.5627   0.5638   0.5689   0.5709   0.5757   0.5826
  0.5887   0.5931   0.5946   0.6018   0.6059   0.6080   0.6134   0.6204
  0.6236   0.6260   0.6324   0.6384   0.6436   0.6501   0.6525   0.6555
  0.6592   0.6674   0.6689   0.6809   0.6838   0.6897   0.6909   0.6929
  0.6992   0.7002   0.7035   0.7100   0.7156   0.7175   0.7205   0.7277
  0.7311   0.7356   0.7377   0.7401   0.7445   0.7505   0.7523   0.7555
  0.7603   0.7653   0.7672   0.7729   0.7767   0.7799   0.7808   0.7845
  0.7887   0.7928   0.7988   0.8001   0.8041   0.8106   0.8123   0.8170
  0.8196   0.8239   0.8276   0.8324   0.8339   0.8364   0.8432   0.8442
  0.8466   0.8486   0.8516   0.8557   0.8586   0.8621   0.8652   0.8709
  0.8753   0.8810   0.8834   0.8899   0.8940   0.8971   0.9006   0.9123
  0.9177   0.9178   0.9231   0.9269   0.9321   0.9415   0.9477   0.9515
  0.9574   0.9672   0.9734   0.9814   0.9953   1.0090   1.0120   1.0164
  1.0284   1.0309   1.0389   1.0478   1.0510   1.0657   1.0699   1.0743
  1.0811   1.0849   1.0960   1.1033   1.1113   1.1203   1.1287   1.1325
  1.1450   1.1568   1.1622   1.1654   1.1852   1.2135   1.2170   1.2281
  1.2375   1.2520   1.2675   1.2974   1.2990   1.3287   1.3348   1.3390
  1.3520   1.3597   1.3687   1.3801   1.3861   1.3907   1.3959   1.4247
  1.4394   1.4584   1.4625   1.4677   1.4752   1.4883   1.4970   1.5091
  1.5113   1.5215   1.5330   1.5400   1.5462   1.5500   1.5615   1.6039
  1.6158   1.6212   1.6311   1.6381   1.6407   1.6454   1.6621   1.6788
  1.6848   1.6942   1.7485   1.7516   1.7833   1.7882   1.7946   1.7982
  1.7995   1.8096   1.8112   1.8163   1.8234   1.8309   1.8340   1.8751
  1.8960   1.9085   1.9140   1.9216   1.9257   1.9367   1.9377   1.9529
  1.9536   1.9568   1.9702   1.9782   1.9840   1.9970   2.0028   2.0139
  2.0173   2.0278   2.0443   2.0456   2.0488   2.0515   2.0643   2.0734
  2.0755   2.0850   2.0928   2.1217   2.1263   2.1403   2.1481   2.1514
  2.1572   2.1831   2.1883   2.1909   2.2075   2.2312   2.2403   2.2474
  2.2488   2.2704   2.2724   2.2786   2.2841   2.2974   2.3073   2.3235
  2.3269   2.3655   2.3674   2.4001   2.4035   2.4084   2.4158   2.4350
  2.4404   2.4474   2.4531   2.4891   2.5000   2.5258   2.5382   2.5457
  2.5631   2.5712   2.5891   2.5936   2.6079   2.6123   2.6256   2.6396
  2.6413   2.6559   2.6623   2.6867   2.6872   2.6951   2.7010   2.7090
  2.7172   2.7230   2.7336   2.7535   2.7611   2.7786   2.7886   2.7968
  2.8042   2.8122   2.8211   2.8369   2.8379   2.8566   2.8638   2.8686
  2.8735   2.9131   2.9223   2.9241   2.9280   2.9365   2.9434   2.9481
  2.9542   2.9604   2.9674   2.9762   2.9887   2.9915   2.9986   3.0107
  3.0166   3.0298   3.0359   3.0393   3.0513   3.0635   3.0712   3.0813
  3.0863   3.0962   3.1054   3.1076   3.1110   3.1431   3.1555   3.1793
  3.1943   3.2127   3.2181   3.2325   3.2407   3.2467   3.2512   3.2571
  3.2664   3.2808   3.2910   3.3058   3.3109   3.3290   3.3417   3.3634
  3.3651   3.3794   3.3848   3.3939   3.3978   3.4030   3.4165   3.4298
  3.4362   3.4482   3.4524   3.4563   3.4626   3.4733   3.4777   3.4856
  3.4903   3.4939   3.4963   3.5104   3.5131   3.5191   3.5244   3.5270
  3.5356   3.5394   3.5448   3.5511   3.5557   3.5579   3.5669   3.5706
  3.5837   3.5852   3.6000   3.6049   3.6101   3.6113   3.6162   3.6224
  3.6294   3.6431   3.6575   3.6683   3.6765   3.6922   3.6992   3.7035
  3.7173   3.7183   3.7506   3.7790   3.7903   3.8149   3.8225   3.8523
  3.8607   3.9017   3.9069   3.9214   3.9261   3.9524   3.9579   3.9632
  3.9665   3.9954   4.0060   4.0296   4.0438   4.0718   4.0837   4.1229
  4.1355   4.2082   4.2171   4.2631   4.2698   4.2736   4.2817   4.2843
  4.2987   4.3082   4.3209   4.3241   4.3314   4.3350   4.3394   4.3404
  4.3517   4.3561   4.3687   4.3740   4.3954   4.4003   4.4075   4.4308
  4.4374   4.4457   4.4531   4.4763   4.4859   4.5272   4.5457   4.6026
  4.6131   4.6247   4.6385   4.7418   4.7476   4.7747   4.7827   4.8047
  4.8190   4.8674   4.8813   4.9263   4.9325   4.9475   4.9634   5.0125
  5.0307   5.0590   5.0703   5.1620   5.1714   5.2645   5.2740   5.3311
  5.3472   5.3627   5.3742   5.4870   5.4979   5.5116   5.5538   5.6572
  5.6717   5.8299   5.8371  22.6131  22.6485  22.6975  22.7014  22.8823
 22.9014  22.9296  22.9353  22.9951  23.0203  23.0627  23.1044  23.3748
 23.4112
 --------------------------------------------------------------
 
          Ground-State Mulliken Net Atomic Charges

     Atom                 Charge (a.u.)
  ----------------------------------------
      1 C                    -1.091154
      2 C                    -0.455648
      3 C                    -0.181345
      4 C                    -0.464691
      5 C                     0.851162
      6 C                    -0.568074
      7 C                    -0.490362
      8 H                     0.296816
      9 H                     0.356617
     10 H                     0.352006
     11 H                     0.332849
     12 H                     0.283073
     13 H                     0.218517
     14 H                     0.326566
     15 H                     0.235659
     16 C                    -1.086969
     17 C                    -0.415114
     18 C                    -0.466740
     19 C                    -0.492576
     20 C                    -0.273248
     21 C                    -0.418125
     22 C                     0.724404
     23 H                     0.339939
     24 H                     0.315372
     25 H                     0.328446
     26 H                     0.368299
     27 H                     0.330520
     28 H                     0.235208
     29 H                     0.287783
     30 H                     0.220807
  ----------------------------------------
  Sum of atomic charges =     0.000000

 -----------------------------------------------------------------
                    Cartesian Multipole Moments
 -----------------------------------------------------------------
    Charge (ESU x 10^10)
                -0.0000
    Dipole Moment (Debye)
         X       0.5491      Y       0.0550      Z       0.7134
       Tot       0.9019
    Quadrupole Moments (Debye-Ang)
        XX     -86.5430     XY       0.4559     YY     -79.0218
        XZ       6.6138     YZ      -0.1664     ZZ     -80.7929
    Octopole Moments (Debye-Ang^2)
       XXX       9.5492    XXY      18.9351    XYY      -1.1419
       YYY      -1.7365    XXZ      -5.0434    XYZ     -12.8458
       YYZ      -3.3999    XZZ     -11.3785    YZZ       6.0577
       ZZZ      -0.5164
    Hexadecapole Moments (Debye-Ang^3)
      XXXX   -2381.6086   XXXY    -175.5080   XXYY    -484.2488
      XYYY    -150.0891   YYYY    -619.8204   XXXZ     468.7654
      XXYZ       8.5049   XYYZ     122.3528   YYYZ      25.6168
      XXZZ    -713.9449   XYZZ     -42.3556   YYZZ    -369.5488
      XZZZ     406.3768   YZZZ       8.9790   ZZZZ   -1634.0013
 -----------------------------------------------------------------
Archival summary:
1\1\nid00544\SP\ProcedureUnspecified\BasisUnspecified\1416\meili\MonSep2707:45:192021MonSep2707:45:192021\0\\#,ProcedureUnspecified,BasisUnspecified,\\0,1\C\C,1,1.40121\H,2,1.08009,1,120.069\C,1,1.40528,2,119.351,3,179.951,0\H,4,1.08085,1,119.788,2,179.567,0\C,4,1.4044,1,120.758,2,-0.0821588,0\H,6,1.08086,4,120.249,1,179.346,0\C,6,1.4022,4,119.643,1,-0.12286,0\H,8,1.081,6,120.152,4,-179.857,0\C,8,1.402,6,119.953,4,0.0945044,0\H,10,1.07932,8,119.932,6,-179.316,0\C,1,1.50586,2,120.468,3,2.38108,0\H,12,1.09107,1,110.024,2,-19.3379,0\H,12,1.09109,1,107.792,2,-136.34,0\H,12,1.1,1,112.528,2,103.228,0\H,7,2.94804,6,97.7766,4,-56.468,0\C,16,1.08109,7,108.936,6,-45.6781,0\C,17,1.38468,16,120.083,7,-63.3318,0\H,18,1.08024,17,119.71,16,-0.620478,0\C,18,1.39287,17,120.259,16,179.417,0\H,20,1.07999,18,120.115,17,179.156,0\C,20,1.39957,18,119.998,17,-0.337921,0\H,22,1.08153,20,119.359,18,179.86,0\C,22,1.39574,20,120.421,18,0.233875,0\C,24,1.39975,22,119.126,20,-0.028693,0\H,25,1.08104,24,119.993,22,-179.664,0\C,24,1.50149,22,119.933,20,179.527,0\H,27,1.08988,24,109.389,22,19.8429,0\H,27,1.09042,24,108.422,22,137.099,0\H,27,1.1,24,113.877,22,-101.441,0\\\@

 Total job time:  88849.24s(wall), 60471.77s(cpu) 
 Mon Sep 27 07:45:23 2021

        *************************************************************
        *                                                           *
        *  Thank you very much for using Q-Chem.  Have a nice day.  *
        *                                                           *
        *************************************************************


