                  Welcome to Q-Chem
     A Quantum Leap Into The Future Of Chemistry


 Q-Chem 5.2 (devel), Q-Chem, Inc., Pleasanton, CA (2019)

 Yihan Shao,  Zhengting Gan,  E. Epifanovsky,  A. T. B. Gilbert,  M. Wormit,  
 J. Kussmann,  A. W. Lange,  A. Behn,  Jia Deng,  Xintian Feng,  D. Ghosh,  
 M. Goldey,  P. R. Horn,  L. D. Jacobson,  I. Kaliman,  T. Kus,  A. Landau,  
 Jie Liu,  E. I. Proynov,  R. M. Richard,  R. P. Steele,  E. J. Sundstrom,  
 H. L. Woodcock III,  P. M. Zimmerman,  D. Zuev,  B. Albrecht,  E. Alguire,  
 S. A. Baeppler,  D. Barton,  Z. Benda,  Y. A. Bernard,  E. J. Berquist,  
 K. B. Bravaya,  H. Burton,  D. Casanova,  Chun-Min Chang,  Yunqing Chen,  
 A. Chien,  K. D. Closser,  M. P. Coons,  S. Coriani,  S. Dasgupta,  
 A. L. Dempwolff,  M. Diedenhofen,  Hainam Do,  R. G. Edgar,  Po-Tung Fang,  
 S. Faraji,  S. Fatehi,  Qingguo Feng,  K. D. Fenk,  J. Fosso-Tande,  
 J. Gayvert,  Qinghui Ge,  A. Ghysels,  G. Gidofalvi,  J. Gomes,  
 J. Gonthier,  A. Gunina,  D. Hait,  M. W. D. Hanson-Heine,  
 P. H. P. Harbach,  A. W. Hauser,  M. F. Herbst,  J. E. Herr,  
 E. G. Hohenstein,  Z. C. Holden,  Kerwin Hui,  B. C. Huynh,  T.-C. Jagau,  
 Hyunjun Ji,  B. Kaduk,  K. Khistyaev,  Jaehoon Kim,  P. Klunzinger,  K. Koh,  
 D. Kosenkov,  L. Koulias,  T. Kowalczyk,  C. M. Krauter,  A. Kunitsa,  
 Ka Un Lao,  A. Laurent,  K. V. Lawler,  Joonho Lee,  D. Lefrancois,  
 S. Lehtola,  D. S. Levine,  Yi-Pei Li,  You-Sheng Lin,  Fenglai Liu,  
 E. Livshits,  A. Luenser,  P. Manohar,  E. Mansoor,  S. F. Manzer,  
 Shan-Ping Mao,  Yuezhi Mao,  N. Mardirossian,  A. V. Marenich,  
 T. Markovich,  L. A. Martinez-Martinez,  S. A. Maurer,  N. J. Mayhall,  
 S. C. McKenzie,  J.-M. Mewes,  P. Morgante,  A. F. Morrison,  
 J. W. Mullinax,  K. Nanda,  T. S. Nguyen-Beck,  R. Olivares-Amaya,  
 J. A. Parkhill,  Zheng Pei,  T. M. Perrine,  F. Plasser,  P. Pokhilko,  
 S. Prager,  A. Prociuk,  E. Ramos,  D. R. Rehn,  F. Rob,  M. Scheurer,  
 M. Schneider,  N. Sergueev,  S. M. Sharada,  S. Sharma,  D. W. Small,  
 T. Stauch,  T. Stein,  Yu-Chuan Su,  A. J. W. Thom,  A. Tkatchenko,  
 T. Tsuchimochi,  N. M. Tubman,  L. Vogt,  M. L. Vidal,  O. Vydrov,  
 M. A. Watson,  J. Wenzel,  M. de Wergifosse,  T. A. Wesolowski,  A. White,  
 J. Witte,  A. Yamada,  Jun Yang,  K. Yao,  S. Yeganeh,  S. R. Yost,  
 Zhi-Qiang You,  A. Zech,  Igor Ying Zhang,  Xing Zhang,  Yan Zhao,  
 Ying Zhu,  B. R. Brooks,  G. K. L. Chan,  C. J. Cramer,  M. S. Gordon,  
 W. J. Hehre,  A. Klamt,  M. W. Schmidt,  C. D. Sherrill,  D. G. Truhlar,  
 A. Aspuru-Guzik,  R. Baer,  A. T. Bell,  N. A. Besley,  Jeng-Da Chai,  
 A. E. DePrince, III,  R. A. DiStasio Jr.,  A. Dreuw,  B. D. Dunietz,  
 T. R. Furlani,  Chao-Ping Hsu,  Yousung Jung,  Jing Kong,  D. S. Lambrecht,  
 WanZhen Liang,  C. Ochsenfeld,  V. A. Rassolov,  L. V. Slipchenko,  
 J. E. Subotnik,  T. Van Voorhis,  J. M. Herbert,  A. I. Krylov,  
 P. M. W. Gill,  M. Head-Gordon

 Contributors to earlier versions of Q-Chem not listed above: 
 R. D. Adamson,  B. Austin,  J. Baker,  G. J. O. Beran,  K. Brandhorst,  
 S. T. Brown,  E. F. C. Byrd,  A. K. Chakraborty,  C.-L. Cheng,  
 Siu Hung Chien,  D. M. Chipman,  D. L. Crittenden,  H. Dachsel,  
 R. J. Doerksen,  A. D. Dutoi,  L. Fusti-Molnar,  W. A. Goddard III,  
 A. Golubeva-Zadorozhnaya,  S. R. Gwaltney,  G. Hawkins,  A. Heyden,  
 S. Hirata,  G. Kedziora,  F. J. Keil,  C. Kelley,  Jihan Kim,  R. A. King,  
 R. Z. Khaliullin,  P. P. Korambath,  W. Kurlancheek,  A. M. Lee,  M. S. Lee,  
 S. V. Levchenko,  Ching Yeh Lin,  D. Liotard,  R. C. Lochan,  I. Lotan,  
 P. E. Maslen,  N. Nair,  D. P. O'Neill,  D. Neuhauser,  E. Neuscamman,  
 C. M. Oana,  R. Olson,  B. Peters,  R. Peverati,  P. A. Pieniazek,  
 Y. M. Rhee,  J. Ritchie,  M. A. Rohrdanz,  E. Rosta,  N. J. Russ,  
 H. F. Schaefer III,  N. E. Schultz,  N. Shenvi,  A. C. Simmonett,  A. Sodt,  
 D. Stuck,  K. S. Thanthiriwatte,  V. Vanovschi,  Tao Wang,  A. Warshel,  
 C. F. Williams,  Q. Wu,  X. Xu,  W. Zhang

 Please cite Q-Chem as follows:
 Y. Shao et al., Mol. Phys. 113, 184-215 (2015)
 DOI: 10.1080/00268976.2014.952696

 Q-Chem 5.2.1 for Intel X86 EM64T Linux

 Parts of Q-Chem use Armadillo 8.300.2 (Tropical Shenanigans).
 http://arma.sourceforge.net/

 Q-Chem begins on Wed Sep 29 07:11:47 2021  

compute-0-7.local
Host: 0

     Scratch files written to /home/meili/scratch/qchem49103//
NAlpha2: 116
NElect   116
Mult     1
Symmetry turned off for PCM/SM12/SMD calculation

 Q-Chem warning in module libgen/rem_setup.C, line 2813:

 Neither GIA nor STOLL is specified by user. Use STOLL as the default


Checking the input file for inconsistencies... 	...done.

--------------------------------------------------------------
User input:
--------------------------------------------------------------
$comment
SSI-047TYR-052PHE-1.pdb
$end

$molecule
0 1
--
0 1
C   -1.796989513873   -0.947678899174   -1.364475306311
C   -3.177989513873   -0.412678899174   -1.711475306311
C   -1.712989513873   -1.347678899174    0.085524693689
C   -1.598989513873   -2.687678899174    0.436524693689
C   -1.747989513873   -0.383678899174    1.089524693689
C   -1.534989513873   -3.062678899174    1.787524693689
C   -1.672989513873   -0.744678899174    2.435524693689
C   -1.582989513873   -2.089678899174    2.778524693689
O   -1.493989513873   -2.482678899174    4.062524693689
H   -1.573989513873   -1.808678899174   -1.996475306311
H   -1.051989513873   -0.181678899174   -1.558475306311
H   -3.270989513873    0.558321100826   -1.240475306311
H   -1.575989513873   -3.449678899174   -0.332475306311
H   -1.820989513873    0.661321100826    0.822524693689
H   -1.472989513873   -4.101678899174    2.054524693689
H   -1.696989513873    0.001321100826    3.214524693689
H   -1.405989513873   -3.429678899174    4.138524693689
H   -3.961607513873   -1.068068329174   -1.303545306311
H   -3.259495513873   -0.237295499174   -2.794345306311
--
0 1
C    4.811010486127    2.053321100826   -1.991475306311
C    1.035010486127    1.509321100826   -2.177475306311
C    0.615010486127    2.163321100826   -1.027475306311
C    2.407010486127    1.425321100826   -2.472475306311
C    3.342010486127    2.047321100826   -1.636475306311
C    1.545010486127    2.761321100826   -0.195475306311
C    2.903010486127    2.712321100826   -0.499475306311
H    0.312010486127    1.060321100826   -2.843475306311
H   -0.438989513873    2.216321100826   -0.787475306311
H    2.731010486127    0.906321100826   -3.362475306311
H    1.213010486127    3.278321100826    0.694524693689
H    5.066010486127    1.111321100826   -2.480475306311
H    5.396010486127    2.128321100826   -1.078475306311
H    3.613010486127    3.190321100826    0.159524693689
H    5.094460486127    2.895789100826   -2.639475306311
$end

$rem
JOBTYPE			EDA
EDA2			1
method			wB97X-V
BASIS			def2-TZVPD
XC_GRID			000099000590
NL_GRID			1
UNRESTRICTED		FALSE
MAX_SCF_CYCLES		200
SYMMETRY		FALSE
SYM_IGNORE		TRUE
MEM_STATIC		2000
BASIS_LIN_DEP_THRESH 	6
THRESH 			14
SCF_CONVERGENCE 	8
SCF_PRINT_FRGM 		TRUE
SOLVENT_METHOD          SMD
$end

$SMX
SOLVENT			WATER
$END
--------------------------------------------------------------
 ----------------------------------------------------------------
             Standard Nuclear Orientation (Angstroms)
    I     Atom           X                Y                Z
 ----------------------------------------------------------------
    1      C      -1.7969895139    -0.9476788992    -1.3644753063
    2      C      -3.1779895139    -0.4126788992    -1.7114753063
    3      C      -1.7129895139    -1.3476788992     0.0855246937
    4      C      -1.5989895139    -2.6876788992     0.4365246937
    5      C      -1.7479895139    -0.3836788992     1.0895246937
    6      C      -1.5349895139    -3.0626788992     1.7875246937
    7      C      -1.6729895139    -0.7446788992     2.4355246937
    8      C      -1.5829895139    -2.0896788992     2.7785246937
    9      O      -1.4939895139    -2.4826788992     4.0625246937
   10      H      -1.5739895139    -1.8086788992    -1.9964753063
   11      H      -1.0519895139    -0.1816788992    -1.5584753063
   12      H      -3.2709895139     0.5583211008    -1.2404753063
   13      H      -1.5759895139    -3.4496788992    -0.3324753063
   14      H      -1.8209895139     0.6613211008     0.8225246937
   15      H      -1.4729895139    -4.1016788992     2.0545246937
   16      H      -1.6969895139     0.0013211008     3.2145246937
   17      H      -1.4059895139    -3.4296788992     4.1385246937
   18      H      -3.9616075139    -1.0680683292    -1.3035453063
   19      H      -3.2594955139    -0.2372954992    -2.7943453063
   20      C       4.8110104861     2.0533211008    -1.9914753063
   21      C       1.0350104861     1.5093211008    -2.1774753063
   22      C       0.6150104861     2.1633211008    -1.0274753063
   23      C       2.4070104861     1.4253211008    -2.4724753063
   24      C       3.3420104861     2.0473211008    -1.6364753063
   25      C       1.5450104861     2.7613211008    -0.1954753063
   26      C       2.9030104861     2.7123211008    -0.4994753063
   27      H       0.3120104861     1.0603211008    -2.8434753063
   28      H      -0.4389895139     2.2163211008    -0.7874753063
   29      H       2.7310104861     0.9063211008    -3.3624753063
   30      H       1.2130104861     3.2783211008     0.6945246937
   31      H       5.0660104861     1.1113211008    -2.4804753063
   32      H       5.3960104861     2.1283211008    -1.0784753063
   33      H       3.6130104861     3.1903211008     0.1595246937
   34      H       5.0944604861     2.8957891008    -2.6394753063
 ----------------------------------------------------------------
 Nuclear Repulsion Energy =         967.88276156 hartrees
 There are       58 alpha and       58 beta electrons
 Requested basis set is def2-TZVPD
 There are 299 shells and 757 basis functions

 Total QAlloc Memory Limit   2000 MB
 Mega-Array Size      1956 MB
 MEM_STATIC part      2000 MB

 Citation of the SMD model:
 Marenich, A.V.; Cramer, C.J.; Truhlar, D.G.
 J. Phys. Chem. B 2009, 113, 6378-6396.
 iSolventCode=           1
 Solvent: water                                                           

 vradii
            1           2           3           4           5           6
    1   1.8500000   1.8500000   1.8500000   1.8500000   1.8500000   1.8500000
            7           8           9          10          11          12
    1   1.8500000   1.8500000   1.5200000   1.2000000   1.2000000   1.2000000
           13          14          15          16          17          18
    1   1.2000000   1.2000000   1.2000000   1.2000000   1.2000000   1.2000000
           19          20          21          22          23          24
    1   1.2000000   1.8500000   1.8500000   1.8500000   1.8500000   1.8500000
           25          26          27          28          29          30
    1   1.8500000   1.8500000   1.2000000   1.2000000   1.2000000   1.2000000
           31          32          33          34
    1   1.2000000   1.2000000   1.2000000   1.2000000
 Changing PCM_VDW_RADII to SMD_RADIUS
 Discretize the solute cavity surface with Lebedev spheres
	Using 110 Lebedev grid points for each H atom
	Using 194 Lebedev grid points for other atoms
	Atomic van der Waals radii will be scaled by 1.20
 Remove points where switching function is < 1.0e-08
 Keep 2469 surface tesserae and discard 2615 interior tesserae
 Molecular Surface Area = 289.661 Angst**2
 A cutoff of  1.0D-14 yielded  36330 shell pairs
 There are    232000 function pairs (    291495 Cartesian)
 Smallest overlap matrix eigenvalue = 4.57E-07
 Linear dependence detected in AO basis
 Tighter screening thresholds may be required for diffuse basis sets
 Use S2THRESH > 14 and THRESH = 14 in case of SCF convergence issues
 Number of orthogonalized atomic orbitals = 753
 Maximum deviation from orthogonality = 4.464E-10

 Scale SEOQF with 1.000000e-02/1.000000e-01/1.000000e-01

 Standard Electronic Orientation quadrupole field applied
 Nucleus-field energy     =    -0.0000000136 hartrees

 -----------------------------------------------------------------------
  General SCF calculation program by
  Eric Jon Sundstrom, Paul Horn, Yuezhi Mao, Dmitri Zuev, Alec White,
  David Stuck, Shaama M.S., Shane Yost, Joonho Lee, David Small,
  Daniel Levine, Susi Lehtola, Hugh Burton, Evgeny Epifanovsky,
  Bang C. Huynh
 -----------------------------------------------------------------------
================================================================
                 ALMO-EDA with the EDA2 driver                  
================================================================
 The second-generation ALMO-EDA (for DFT):                      
 P. R. Horn, Y. Mao and M. Head-Gordon, PCCP, 18, 23067 (2016)  
 Decomposition of the frozen energy:                            
 P. R. Horn, Y. Mao and M. Head-Gordon, JCP, 144, 114107 (2016) 
 FERF model for polarization:                                   
 P. R. Horn and M. Head-Gordon, JCP, 143, 114111 (2015)         
Using eda2 option set 1
Option set summary: Frozen orbital wavefunction, initial wavefunction decomposition, and nDQ polarization.
--------------------------------
Printing EDA Options
--------------------------------
eda_child_super_basis      0
fragmo_guess_mode          0
child_mp                   1
child_mp_orders            232
cls_elec                   1
cls_disp                   0
scfmi_mode                 1
scfmi_occs                 0
scfmi_virts                0
frz_relax                  0
frz_relax_method           0
dc_pen_start               0
dc_pen_conv                0
dc_pen_increment           0
dc_pen_steps               0
dc_pen_thresh_factor       0
dc_pen_pre_newton_thresh   0
frz_ortho_decomp           1
frz_ortho_decomp_conv      6
frgm_method                2
scfmi_freeze_ss            0
separate_rehyb             0
plot_diff_den              0
eda_nocv                   0
eda_vct_relax              1
disp_free_x                0
disp_free_c                0
eda_bsse                   0
eda_pct_a                  0
eda_covp                   0
--------------------------------
Attempting to make child job directory: /home/meili/scratch/qchem49103//Frg1/
Attempting to make child job directory: /home/meili/scratch/qchem49103//Frg2/
Creating input file /home/meili/scratch/qchem49103/Frg1.input
using default PutDataFrgm: nothing
calling putenv with: QCSCRATCH=/home/meili/scratch/qchem49103/ 
Spawning Job For Fragment 0
                  Welcome to Q-Chem
     A Quantum Leap Into The Future Of Chemistry


 Q-Chem 5.2 (devel), Q-Chem, Inc., Pleasanton, CA (2019)

 Yihan Shao,  Zhengting Gan,  E. Epifanovsky,  A. T. B. Gilbert,  M. Wormit,  
 J. Kussmann,  A. W. Lange,  A. Behn,  Jia Deng,  Xintian Feng,  D. Ghosh,  
 M. Goldey,  P. R. Horn,  L. D. Jacobson,  I. Kaliman,  T. Kus,  A. Landau,  
 Jie Liu,  E. I. Proynov,  R. M. Richard,  R. P. Steele,  E. J. Sundstrom,  
 H. L. Woodcock III,  P. M. Zimmerman,  D. Zuev,  B. Albrecht,  E. Alguire,  
 S. A. Baeppler,  D. Barton,  Z. Benda,  Y. A. Bernard,  E. J. Berquist,  
 K. B. Bravaya,  H. Burton,  D. Casanova,  Chun-Min Chang,  Yunqing Chen,  
 A. Chien,  K. D. Closser,  M. P. Coons,  S. Coriani,  S. Dasgupta,  
 A. L. Dempwolff,  M. Diedenhofen,  Hainam Do,  R. G. Edgar,  Po-Tung Fang,  
 S. Faraji,  S. Fatehi,  Qingguo Feng,  K. D. Fenk,  J. Fosso-Tande,  
 J. Gayvert,  Qinghui Ge,  A. Ghysels,  G. Gidofalvi,  J. Gomes,  
 J. Gonthier,  A. Gunina,  D. Hait,  M. W. D. Hanson-Heine,  
 P. H. P. Harbach,  A. W. Hauser,  M. F. Herbst,  J. E. Herr,  
 E. G. Hohenstein,  Z. C. Holden,  Kerwin Hui,  B. C. Huynh,  T.-C. Jagau,  
 Hyunjun Ji,  B. Kaduk,  K. Khistyaev,  Jaehoon Kim,  P. Klunzinger,  K. Koh,  
 D. Kosenkov,  L. Koulias,  T. Kowalczyk,  C. M. Krauter,  A. Kunitsa,  
 Ka Un Lao,  A. Laurent,  K. V. Lawler,  Joonho Lee,  D. Lefrancois,  
 S. Lehtola,  D. S. Levine,  Yi-Pei Li,  You-Sheng Lin,  Fenglai Liu,  
 E. Livshits,  A. Luenser,  P. Manohar,  E. Mansoor,  S. F. Manzer,  
 Shan-Ping Mao,  Yuezhi Mao,  N. Mardirossian,  A. V. Marenich,  
 T. Markovich,  L. A. Martinez-Martinez,  S. A. Maurer,  N. J. Mayhall,  
 S. C. McKenzie,  J.-M. Mewes,  P. Morgante,  A. F. Morrison,  
 J. W. Mullinax,  K. Nanda,  T. S. Nguyen-Beck,  R. Olivares-Amaya,  
 J. A. Parkhill,  Zheng Pei,  T. M. Perrine,  F. Plasser,  P. Pokhilko,  
 S. Prager,  A. Prociuk,  E. Ramos,  D. R. Rehn,  F. Rob,  M. Scheurer,  
 M. Schneider,  N. Sergueev,  S. M. Sharada,  S. Sharma,  D. W. Small,  
 T. Stauch,  T. Stein,  Yu-Chuan Su,  A. J. W. Thom,  A. Tkatchenko,  
 T. Tsuchimochi,  N. M. Tubman,  L. Vogt,  M. L. Vidal,  O. Vydrov,  
 M. A. Watson,  J. Wenzel,  M. de Wergifosse,  T. A. Wesolowski,  A. White,  
 J. Witte,  A. Yamada,  Jun Yang,  K. Yao,  S. Yeganeh,  S. R. Yost,  
 Zhi-Qiang You,  A. Zech,  Igor Ying Zhang,  Xing Zhang,  Yan Zhao,  
 Ying Zhu,  B. R. Brooks,  G. K. L. Chan,  C. J. Cramer,  M. S. Gordon,  
 W. J. Hehre,  A. Klamt,  M. W. Schmidt,  C. D. Sherrill,  D. G. Truhlar,  
 A. Aspuru-Guzik,  R. Baer,  A. T. Bell,  N. A. Besley,  Jeng-Da Chai,  
 A. E. DePrince, III,  R. A. DiStasio Jr.,  A. Dreuw,  B. D. Dunietz,  
 T. R. Furlani,  Chao-Ping Hsu,  Yousung Jung,  Jing Kong,  D. S. Lambrecht,  
 WanZhen Liang,  C. Ochsenfeld,  V. A. Rassolov,  L. V. Slipchenko,  
 J. E. Subotnik,  T. Van Voorhis,  J. M. Herbert,  A. I. Krylov,  
 P. M. W. Gill,  M. Head-Gordon

 Contributors to earlier versions of Q-Chem not listed above: 
 R. D. Adamson,  B. Austin,  J. Baker,  G. J. O. Beran,  K. Brandhorst,  
 S. T. Brown,  E. F. C. Byrd,  A. K. Chakraborty,  C.-L. Cheng,  
 Siu Hung Chien,  D. M. Chipman,  D. L. Crittenden,  H. Dachsel,  
 R. J. Doerksen,  A. D. Dutoi,  L. Fusti-Molnar,  W. A. Goddard III,  
 A. Golubeva-Zadorozhnaya,  S. R. Gwaltney,  G. Hawkins,  A. Heyden,  
 S. Hirata,  G. Kedziora,  F. J. Keil,  C. Kelley,  Jihan Kim,  R. A. King,  
 R. Z. Khaliullin,  P. P. Korambath,  W. Kurlancheek,  A. M. Lee,  M. S. Lee,  
 S. V. Levchenko,  Ching Yeh Lin,  D. Liotard,  R. C. Lochan,  I. Lotan,  
 P. E. Maslen,  N. Nair,  D. P. O'Neill,  D. Neuhauser,  E. Neuscamman,  
 C. M. Oana,  R. Olson,  B. Peters,  R. Peverati,  P. A. Pieniazek,  
 Y. M. Rhee,  J. Ritchie,  M. A. Rohrdanz,  E. Rosta,  N. J. Russ,  
 H. F. Schaefer III,  N. E. Schultz,  N. Shenvi,  A. C. Simmonett,  A. Sodt,  
 D. Stuck,  K. S. Thanthiriwatte,  V. Vanovschi,  Tao Wang,  A. Warshel,  
 C. F. Williams,  Q. Wu,  X. Xu,  W. Zhang

 Please cite Q-Chem as follows:
 Y. Shao et al., Mol. Phys. 113, 184-215 (2015)
 DOI: 10.1080/00268976.2014.952696

 Q-Chem 5.2.1 for Intel X86 EM64T Linux

 Parts of Q-Chem use Armadillo 8.300.2 (Tropical Shenanigans).
 http://arma.sourceforge.net/

 Q-Chem begins on Wed Sep 29 07:11:55 2021  

compute-0-7.local
Host: 0

     Scratch files written to /home/meili/scratch/qchem49103//Frg1//
NAlpha2: 66
NElect   66
Mult     1
Symmetry turned off for PCM/SM12/SMD calculation

Checking the input file for inconsistencies... 	...done.

--------------------------------------------------------------
User input:
--------------------------------------------------------------
$molecule
0 1
 6	-1.7969895139	-0.9476788992	-1.3644753063
 6	-3.1779895139	-0.4126788992	-1.7114753063
 6	-1.7129895139	-1.3476788992	0.0855246937
 6	-1.5989895139	-2.6876788992	0.4365246937
 6	-1.7479895139	-0.3836788992	1.0895246937
 6	-1.5349895139	-3.0626788992	1.7875246937
 6	-1.6729895139	-0.7446788992	2.4355246937
 6	-1.5829895139	-2.0896788992	2.7785246937
 8	-1.4939895139	-2.4826788992	4.0625246937
 1	-1.5739895139	-1.8086788992	-1.9964753063
 1	-1.0519895139	-0.1816788992	-1.5584753063
 1	-3.2709895139	0.5583211008	-1.2404753063
 1	-1.5759895139	-3.4496788992	-0.3324753063
 1	-1.8209895139	0.6613211008	0.8225246937
 1	-1.4729895139	-4.1016788992	2.0545246937
 1	-1.6969895139	0.0013211008	3.2145246937
 1	-1.4059895139	-3.4296788992	4.1385246937
 1	-3.9616075139	-1.0680683292	-1.3035453063
 1	-3.2594955139	-0.2372954992	-2.7943453063
$end
$rem
EDA2		1
METHOD		WB97X-V
BASIS		DEF2-TZVPD
XC_GRID		000099000590
NL_GRID		1
UNRESTRICTED		FALSE
MAX_SCF_CYCLES		200
SYMMETRY		FALSE
SYM_IGNORE		TRUE
BASIS_LIN_DEP_THRESH		6
THRESH		14
SCF_CONVERGENCE		8
SCF_PRINT_FRGM		TRUE
SOLVENT_METHOD		SMD
!required keywords
JOBTYPE		SP
SYM_IGNORE		TRUE
SUBSYSTEM		TRUE
GEN_SCFMAN		TRUE
CHILD_INSTRUCTION		2
SYM_IGNORE		TRUE
SCFMI		0
RI_K 0		
PARI_K 0		
MIN_PARI_K 0		
IARI_K 0		
OCC_RI_K 0		
PURECART		1111
MEM_STATIC		2000
MEM_TOTAL		2000
GUI		0
CHILD_MP		1
CHILD_MP_ORDERS		232
FRZ_RELAX		0
FRZ_RELAX_METHOD		0
EDA_CLS_ELEC		1
EDA_CLS_DISP		0
FRZ_ORTHO_DECOMP		1
EDA2		FALSE
FRGM_METHOD		FALSE
CIS_N_ROOTS  0
LOCAL_CIS    0
CIS_RLX_DNS  1
$end
$smx
SOLVENT			WATER
$end
--------------------------------------------------------------
 ----------------------------------------------------------------
             Standard Nuclear Orientation (Angstroms)
    I     Atom           X                Y                Z
 ----------------------------------------------------------------
    1      C      -1.7969895139    -0.9476788992    -1.3644753063
    2      C      -3.1779895139    -0.4126788992    -1.7114753063
    3      C      -1.7129895139    -1.3476788992     0.0855246937
    4      C      -1.5989895139    -2.6876788992     0.4365246937
    5      C      -1.7479895139    -0.3836788992     1.0895246937
    6      C      -1.5349895139    -3.0626788992     1.7875246937
    7      C      -1.6729895139    -0.7446788992     2.4355246937
    8      C      -1.5829895139    -2.0896788992     2.7785246937
    9      O      -1.4939895139    -2.4826788992     4.0625246937
   10      H      -1.5739895139    -1.8086788992    -1.9964753063
   11      H      -1.0519895139    -0.1816788992    -1.5584753063
   12      H      -3.2709895139     0.5583211008    -1.2404753063
   13      H      -1.5759895139    -3.4496788992    -0.3324753063
   14      H      -1.8209895139     0.6613211008     0.8225246937
   15      H      -1.4729895139    -4.1016788992     2.0545246937
   16      H      -1.6969895139     0.0013211008     3.2145246937
   17      H      -1.4059895139    -3.4296788992     4.1385246937
   18      H      -3.9616075139    -1.0680683292    -1.3035453063
   19      H      -3.2594955139    -0.2372954992    -2.7943453063
 ----------------------------------------------------------------
 Nuclear Repulsion Energy =         420.74818720 hartrees
 There are       33 alpha and       33 beta electrons
 Requested basis set is def2-TZVPD
 There are 168 shells and 426 basis functions

 Total QAlloc Memory Limit   2000 MB
 Mega-Array Size      1956 MB
 MEM_STATIC part      2000 MB

 Citation of the SMD model:
 Marenich, A.V.; Cramer, C.J.; Truhlar, D.G.
 J. Phys. Chem. B 2009, 113, 6378-6396.
 iSolventCode=           1
 Solvent: water                                                           

 vradii
            1           2           3           4           5           6
    1   1.8500000   1.8500000   1.8500000   1.8500000   1.8500000   1.8500000
            7           8           9          10          11          12
    1   1.8500000   1.8500000   1.5200000   1.2000000   1.2000000   1.2000000
           13          14          15          16          17          18
    1   1.2000000   1.2000000   1.2000000   1.2000000   1.2000000   1.2000000
           19
    1   1.2000000
 Changing PCM_VDW_RADII to SMD_RADIUS
 Discretize the solute cavity surface with Lebedev spheres
	Using 110 Lebedev grid points for each H atom
	Using 194 Lebedev grid points for other atoms
	Atomic van der Waals radii will be scaled by 1.20
 Remove points where switching function is < 1.0e-08
 Keep 1393 surface tesserae and discard 1453 interior tesserae
 Molecular Surface Area = 160.653 Angst**2
 A cutoff of  1.0D-14 yielded  13241 shell pairs
 There are     86703 function pairs (    110201 Cartesian)
 Smallest overlap matrix eigenvalue = 5.24E-07
 Linear dependence detected in AO basis
 Tighter screening thresholds may be required for diffuse basis sets
 Use S2THRESH > 14 and THRESH = 14 in case of SCF convergence issues
 Number of orthogonalized atomic orbitals = 425
 Maximum deviation from orthogonality = 2.387E-10

 Scale SEOQF with 1.000000e-01/1.000000e-01/1.000000e-01

 Standard Electronic Orientation quadrupole field applied
 Nucleus-field energy     =    -0.0000000081 hartrees
 Guess from superposition of atomic densities
 Warning:  Energy on first SCF cycle will be non-variational
 SAD guess density has 66.000000 electrons

 -----------------------------------------------------------------------
  General SCF calculation program by
  Eric Jon Sundstrom, Paul Horn, Yuezhi Mao, Dmitri Zuev, Alec White,
  David Stuck, Shaama M.S., Shane Yost, Joonho Lee, David Small,
  Daniel Levine, Susi Lehtola, Hugh Burton, Evgeny Epifanovsky,
  Bang C. Huynh
 -----------------------------------------------------------------------
 Exchange:     0.1670 Hartree-Fock + 1.0000 wB97X-V + LR-HF
 Correlation:  1.0000 wB97X-V
 Using Euler-Maclaurin-Lebedev (99,590) quadrature formula
 Nonlocal Correlation:  VV10 with C = 0.0100 and b = 6.00 and scale = 1.00000
 Grid used for NLC:  SG-1 standard quadrature
Energy prior to optimization (guess energy) = -386.038592956397
Begin Timing: Total SCF Calculation
begin iterations for algorithm: DIIS         
the SCF tolerance is set to 1.00e-08
    1    -386.0385929564      2.00e-03     00000 
    2    -386.0959760088      1.54e-03     00000 
    3    -386.1386410993      2.68e-04     00000 
    4    -386.1404454037      1.21e-04     00000 
    5    -386.1408626865      3.39e-05     00000 
    6    -386.1408962538      1.04e-05     00000 
    7    -386.1408997096      4.80e-06     00000 
    8    -386.1409004470      1.13e-06     00000 
    9    -386.1409005306      5.00e-07     00000 
   10    -386.1409005465      2.30e-07     00000 
   11    -386.1409005502      5.96e-08     00000 
   12    -386.1409005506      2.61e-08     00000 
   13    -386.1409005507      7.17e-09     00000 Convergence criterion met
Timing for Total SCF: 1318.00s (wall), 8103.61s (cpu)
(3)  G-ENP(liq) elect-nuc-pol free energy of system     -386.140900551 a.u.
(4)  G-CDS(liq) cavity-dispersion-solvent structure 
     free energy                                                4.1908 kcal/mol
(6)  G-S(liq) free energy of system                     -386.134222095 a.u.
E_pcm = -0.0176528369
E_cds = 0.0066784553
Multipole orders to be included
        2
        3
computing dipole RHS
computing quadrupole RHS
total number of RHS in solve_reponses: 8
RHS batch sizes
        8
Beginning Block Conjugate Gradient Iterations. Batch Number: 0
computing hessian-vector products by finite difference
              1      6.46e-01     00000 Conjugate Gradient Iteration
computing hessian-vector products by finite difference
              2      1.98e-01     00000 Conjugate Gradient Iteration
computing hessian-vector products by finite difference
              3      5.44e-02     00000 Conjugate Gradient Iteration
computing hessian-vector products by finite difference
              4      1.76e-02     00000 Conjugate Gradient Iteration
computing hessian-vector products by finite difference
              5      4.88e-03     00000 Conjugate Gradient Iteration
computing hessian-vector products by finite difference
              6      1.93e-03     00000 Conjugate Gradient Iteration
computing hessian-vector products by finite difference
              7      4.48e-04     00000 Conjugate Gradient Iteration
computing hessian-vector products by finite difference
              8      8.93e-05     00000 Conjugate Gradient Iteration
computing hessian-vector products by finite difference
              9      1.68e-05     00000 Conjugate Gradient Iteration
computing hessian-vector products by finite difference
             10      2.37e-06     00000 Conjugate Gradient Iteration
computing hessian-vector products by finite difference
             11      3.51e-07     00000 Conjugate Gradient Iteration
computing hessian-vector products by finite difference
             12      6.65e-08     00000 Conjugate Gradient Iteration
computing hessian-vector products by finite difference
             13      1.30e-08     00000 Conjugate Gradient Iteration
computing hessian-vector products by finite difference
             14      4.67e-09     00000 CG Converged
batch 0 complete
Done Calculating Responses
TESTING ORTHOGONALIZATION OF MULTIPOLE BASIS
Multipole virts passed orthogonality test
Virts Per Order
           99
          165

 --------------------------------------------------------------

                    Orbital Energies (a.u.)
 --------------------------------------------------------------

 Alpha MOs
 -- Occupied --
-19.2390 -10.3292 -10.2689 -10.2682 -10.2664 -10.2661 -10.2635 -10.2551
-10.2472  -1.1981  -0.9914  -0.9143  -0.8777  -0.8440  -0.7580  -0.7359
 -0.7013  -0.6617  -0.5995  -0.5831  -0.5497  -0.5445  -0.5331  -0.5255
 -0.5066  -0.4939  -0.4752  -0.4449  -0.4358  -0.4278  -0.4263  -0.3476
 -0.3086
 -- Virtual --
  0.0622   0.0638   0.0738   0.0842   0.0874   0.0955   0.1029   0.1140
  0.1150   0.1195   0.1341   0.1485   0.1587   0.1702   0.1749   0.1834
  0.1889   0.1939   0.2015   0.2097   0.2152   0.2232   0.2350   0.2386
  0.2459   0.2509   0.2638   0.2692   0.2723   0.2784   0.2836   0.2890
  0.2949   0.2984   0.3030   0.3083   0.3098   0.3141   0.3262   0.3291
  0.3303   0.3438   0.3463   0.3518   0.3554   0.3588   0.3654   0.3664
  0.3675   0.3705   0.3790   0.3838   0.3864   0.3903   0.3964   0.4035
  0.4090   0.4160   0.4216   0.4256   0.4293   0.4329   0.4366   0.4428
  0.4538   0.4582   0.4609   0.4707   0.4750   0.4812   0.4827   0.4897
  0.4941   0.4975   0.5026   0.5058   0.5105   0.5151   0.5216   0.5299
  0.5391   0.5422   0.5466   0.5492   0.5585   0.5617   0.5728   0.5759
  0.5799   0.5887   0.5905   0.6027   0.6144   0.6222   0.6236   0.6330
  0.6371   0.6504   0.6535   0.6659   0.6728   0.6791   0.6866   0.6932
  0.7011   0.7036   0.7072   0.7130   0.7257   0.7299   0.7371   0.7414
  0.7506   0.7563   0.7605   0.7643   0.7715   0.7792   0.7852   0.7908
  0.7980   0.8049   0.8086   0.8097   0.8144   0.8213   0.8285   0.8322
  0.8352   0.8446   0.8486   0.8629   0.8641   0.8719   0.8790   0.8833
  0.8971   0.9055   0.9093   0.9142   0.9335   0.9517   0.9604   0.9742
  0.9807   1.0002   1.0166   1.0259   1.0410   1.0490   1.0583   1.0651
  1.0726   1.0795   1.0909   1.0967   1.1124   1.1221   1.1294   1.1636
  1.1713   1.1946   1.2419   1.2520   1.2687   1.2761   1.3182   1.3289
  1.3363   1.3567   1.3785   1.3882   1.4040   1.4171   1.4264   1.4423
  1.4608   1.4662   1.4981   1.5039   1.5242   1.5467   1.5845   1.5936
  1.6295   1.6443   1.6621   1.6683   1.6911   1.7237   1.7642   1.7666
  1.7906   1.8248   1.8361   1.8450   1.8673   1.8777   1.8858   1.8948
  1.9164   1.9307   1.9454   1.9537   1.9713   1.9964   2.0056   2.0111
  2.0158   2.0273   2.0487   2.0605   2.0634   2.0709   2.0801   2.0906
  2.1179   2.1465   2.1519   2.1848   2.2095   2.2205   2.2487   2.2575
  2.2764   2.3046   2.3245   2.3359   2.3552   2.3666   2.3841   2.4117
  2.4191   2.4407   2.4582   2.4942   2.5018   2.5237   2.5432   2.5809
  2.5850   2.6103   2.6270   2.6326   2.6493   2.6817   2.6867   2.7066
  2.7289   2.7393   2.7691   2.7802   2.7926   2.8198   2.8356   2.8415
  2.8649   2.8717   2.8918   2.9095   2.9198   2.9329   2.9530   2.9645
  2.9798   2.9828   2.9899   3.0185   3.0250   3.0408   3.0559   3.0836
  3.0952   3.1011   3.1362   3.1495   3.1606   3.1773   3.1959   3.2169
  3.2441   3.2518   3.2689   3.2764   3.2937   3.3160   3.3255   3.3534
  3.3712   3.4027   3.4082   3.4168   3.4332   3.4480   3.4656   3.4763
  3.4879   3.4986   3.5022   3.5188   3.5306   3.5351   3.5393   3.5552
  3.5643   3.5681   3.5900   3.6045   3.6096   3.6257   3.6452   3.6526
  3.6681   3.6865   3.7098   3.7284   3.7431   3.7710   3.7928   3.8061
  3.8329   3.8500   3.8573   3.9159   3.9528   3.9778   3.9900   4.0325
  4.0559   4.0920   4.1364   4.1659   4.1990   4.2146   4.2298   4.2645
  4.2930   4.3211   4.3326   4.3450   4.3562   4.3790   4.3975   4.4087
  4.4280   4.4328   4.4803   4.5570   4.5646   4.6132   4.6345   4.7048
  4.7501   4.7571   4.7971   4.8236   4.8775   4.9095   4.9332   5.0392
  5.0645   5.0933   5.1381   5.1487   5.1815   5.3413   5.3606   5.4096
  5.4740   5.5508   5.6365   5.6735   5.7428   5.7933   5.9831   6.2431
  6.5335   6.6271   6.6385   6.8873   7.0441   7.3063   7.4774  22.6821
 22.7329  22.8385  22.9628  23.0184  23.0474  23.2313  23.5645  44.4415
 --------------------------------------------------------------

          Ground-State Mulliken Net Atomic Charges

     Atom                 Charge (a.u.)
  ----------------------------------------
      1 C                    -0.428980
      2 C                    -0.941414
      3 C                     0.459028
      4 C                    -0.658804
      5 C                    -0.381912
      6 C                    -0.381669
      7 C                    -0.950170
      8 C                     0.641009
      9 O                    -0.536510
     10 H                     0.273733
     11 H                     0.249440
     12 H                     0.242882
     13 H                     0.351695
     14 H                     0.402323
     15 H                     0.382184
     16 H                     0.407747
     17 H                     0.317631
     18 H                     0.307436
     19 H                     0.244351
  ----------------------------------------
  Sum of atomic charges =     0.000000

 -----------------------------------------------------------------
                    Cartesian Multipole Moments
 -----------------------------------------------------------------
    Charge (ESU x 10^10)
                 0.0000
    Dipole Moment (Debye)
         X       0.1368      Y      -1.5663      Z      -1.0647
       Tot       1.8988
    Quadrupole Moments (Debye-Ang)
        XX     -59.5244     XY       1.5290     YY     -38.5405
        XZ       2.1937     YZ      -5.1378     ZZ     -56.2610
    Octopole Moments (Debye-Ang^2)
       XXX     328.6185    XXY      89.4458    XYY      80.2285
       YYY     173.0310    XXZ     -60.5630    XYZ       3.8980
       YYZ      -3.3069    XZZ     107.0586    YZZ      59.1270
       ZZZ    -174.1881
    Hexadecapole Moments (Debye-Ang^3)
      XXXX   -1399.6783   XXXY    -442.5938   XXYY    -411.9255
      XYYY    -308.2134   YYYY    -871.0490   XXXZ     201.2730
      XXYZ     141.6251   XYYZ      -1.9452   YYYZ     152.6437
      XXZZ    -507.2898   XYZZ    -114.6860   YYZZ    -259.1952
      XZZZ     217.2464   YZZZ     314.1761   ZZZZ   -1638.7839
 -----------------------------------------------------------------
Archival summary:
1\1\compute-0-7.local\SP\ProcedureUnspecified\BasisUnspecified\1810\meili\WedSep2913:46:522021WedSep2913:46:522021\0\\#,ProcedureUnspecified,BasisUnspecified,\\0,1\C\C,1,1.38989\H,2,1.08284,1,120.056\C,1,1.39231,2,119.175,3,179.66,0\H,4,1.08104,1,119.531,2,179.05,0\C,4,1.39559,1,121,2,-0.120949,0\H,6,1.07886,4,121.087,1,179.814,0\C,6,1.39096,4,119.435,1,-1.01404,0\O,8,1.34574,6,121.462,4,179.268,0\H,9,0.954112,8,111.836,6,-177.845,0\C,8,1.38965,6,120.227,4,1.57757,0\H,11,1.07455,8,120.12,6,-179.535,0\C,1,1.5065,2,120.24,3,-0.356189,0\H,13,1.08601,1,108.721,2,-128.309,0\H,13,1.09109,1,109.669,2,-10.1448,0\C,13,1.52112,1,111.32,2,110.973,0\H,16,1.0832,13,107.1,1,71.4936,0\H,16,1.1,13,110.647,1,-46.1776,0\H,16,1.1,13,110.36,1,-173.34,0\\\@

 Total job time:  23696.99s(wall), 148666.19s(cpu) 
 Wed Sep 29 13:46:52 2021

        *************************************************************
        *                                                           *
        *  Thank you very much for using Q-Chem.  Have a nice day.  *
        *                                                           *
        *************************************************************


Done Job For Fragment 0
calling putenv with: QCSCRATCH=/home/meili/scratch 
calling putenv with: QCTHREADS=8 
Creating input file /home/meili/scratch/qchem49103/Frg2.input
using default PutDataFrgm: nothing
calling putenv with: QCSCRATCH=/home/meili/scratch/qchem49103/ 
Spawning Job For Fragment 1
                  Welcome to Q-Chem
     A Quantum Leap Into The Future Of Chemistry


 Q-Chem 5.2 (devel), Q-Chem, Inc., Pleasanton, CA (2019)

 Yihan Shao,  Zhengting Gan,  E. Epifanovsky,  A. T. B. Gilbert,  M. Wormit,  
 J. Kussmann,  A. W. Lange,  A. Behn,  Jia Deng,  Xintian Feng,  D. Ghosh,  
 M. Goldey,  P. R. Horn,  L. D. Jacobson,  I. Kaliman,  T. Kus,  A. Landau,  
 Jie Liu,  E. I. Proynov,  R. M. Richard,  R. P. Steele,  E. J. Sundstrom,  
 H. L. Woodcock III,  P. M. Zimmerman,  D. Zuev,  B. Albrecht,  E. Alguire,  
 S. A. Baeppler,  D. Barton,  Z. Benda,  Y. A. Bernard,  E. J. Berquist,  
 K. B. Bravaya,  H. Burton,  D. Casanova,  Chun-Min Chang,  Yunqing Chen,  
 A. Chien,  K. D. Closser,  M. P. Coons,  S. Coriani,  S. Dasgupta,  
 A. L. Dempwolff,  M. Diedenhofen,  Hainam Do,  R. G. Edgar,  Po-Tung Fang,  
 S. Faraji,  S. Fatehi,  Qingguo Feng,  K. D. Fenk,  J. Fosso-Tande,  
 J. Gayvert,  Qinghui Ge,  A. Ghysels,  G. Gidofalvi,  J. Gomes,  
 J. Gonthier,  A. Gunina,  D. Hait,  M. W. D. Hanson-Heine,  
 P. H. P. Harbach,  A. W. Hauser,  M. F. Herbst,  J. E. Herr,  
 E. G. Hohenstein,  Z. C. Holden,  Kerwin Hui,  B. C. Huynh,  T.-C. Jagau,  
 Hyunjun Ji,  B. Kaduk,  K. Khistyaev,  Jaehoon Kim,  P. Klunzinger,  K. Koh,  
 D. Kosenkov,  L. Koulias,  T. Kowalczyk,  C. M. Krauter,  A. Kunitsa,  
 Ka Un Lao,  A. Laurent,  K. V. Lawler,  Joonho Lee,  D. Lefrancois,  
 S. Lehtola,  D. S. Levine,  Yi-Pei Li,  You-Sheng Lin,  Fenglai Liu,  
 E. Livshits,  A. Luenser,  P. Manohar,  E. Mansoor,  S. F. Manzer,  
 Shan-Ping Mao,  Yuezhi Mao,  N. Mardirossian,  A. V. Marenich,  
 T. Markovich,  L. A. Martinez-Martinez,  S. A. Maurer,  N. J. Mayhall,  
 S. C. McKenzie,  J.-M. Mewes,  P. Morgante,  A. F. Morrison,  
 J. W. Mullinax,  K. Nanda,  T. S. Nguyen-Beck,  R. Olivares-Amaya,  
 J. A. Parkhill,  Zheng Pei,  T. M. Perrine,  F. Plasser,  P. Pokhilko,  
 S. Prager,  A. Prociuk,  E. Ramos,  D. R. Rehn,  F. Rob,  M. Scheurer,  
 M. Schneider,  N. Sergueev,  S. M. Sharada,  S. Sharma,  D. W. Small,  
 T. Stauch,  T. Stein,  Yu-Chuan Su,  A. J. W. Thom,  A. Tkatchenko,  
 T. Tsuchimochi,  N. M. Tubman,  L. Vogt,  M. L. Vidal,  O. Vydrov,  
 M. A. Watson,  J. Wenzel,  M. de Wergifosse,  T. A. Wesolowski,  A. White,  
 J. Witte,  A. Yamada,  Jun Yang,  K. Yao,  S. Yeganeh,  S. R. Yost,  
 Zhi-Qiang You,  A. Zech,  Igor Ying Zhang,  Xing Zhang,  Yan Zhao,  
 Ying Zhu,  B. R. Brooks,  G. K. L. Chan,  C. J. Cramer,  M. S. Gordon,  
 W. J. Hehre,  A. Klamt,  M. W. Schmidt,  C. D. Sherrill,  D. G. Truhlar,  
 A. Aspuru-Guzik,  R. Baer,  A. T. Bell,  N. A. Besley,  Jeng-Da Chai,  
 A. E. DePrince, III,  R. A. DiStasio Jr.,  A. Dreuw,  B. D. Dunietz,  
 T. R. Furlani,  Chao-Ping Hsu,  Yousung Jung,  Jing Kong,  D. S. Lambrecht,  
 WanZhen Liang,  C. Ochsenfeld,  V. A. Rassolov,  L. V. Slipchenko,  
 J. E. Subotnik,  T. Van Voorhis,  J. M. Herbert,  A. I. Krylov,  
 P. M. W. Gill,  M. Head-Gordon

 Contributors to earlier versions of Q-Chem not listed above: 
 R. D. Adamson,  B. Austin,  J. Baker,  G. J. O. Beran,  K. Brandhorst,  
 S. T. Brown,  E. F. C. Byrd,  A. K. Chakraborty,  C.-L. Cheng,  
 Siu Hung Chien,  D. M. Chipman,  D. L. Crittenden,  H. Dachsel,  
 R. J. Doerksen,  A. D. Dutoi,  L. Fusti-Molnar,  W. A. Goddard III,  
 A. Golubeva-Zadorozhnaya,  S. R. Gwaltney,  G. Hawkins,  A. Heyden,  
 S. Hirata,  G. Kedziora,  F. J. Keil,  C. Kelley,  Jihan Kim,  R. A. King,  
 R. Z. Khaliullin,  P. P. Korambath,  W. Kurlancheek,  A. M. Lee,  M. S. Lee,  
 S. V. Levchenko,  Ching Yeh Lin,  D. Liotard,  R. C. Lochan,  I. Lotan,  
 P. E. Maslen,  N. Nair,  D. P. O'Neill,  D. Neuhauser,  E. Neuscamman,  
 C. M. Oana,  R. Olson,  B. Peters,  R. Peverati,  P. A. Pieniazek,  
 Y. M. Rhee,  J. Ritchie,  M. A. Rohrdanz,  E. Rosta,  N. J. Russ,  
 H. F. Schaefer III,  N. E. Schultz,  N. Shenvi,  A. C. Simmonett,  A. Sodt,  
 D. Stuck,  K. S. Thanthiriwatte,  V. Vanovschi,  Tao Wang,  A. Warshel,  
 C. F. Williams,  Q. Wu,  X. Xu,  W. Zhang

 Please cite Q-Chem as follows:
 Y. Shao et al., Mol. Phys. 113, 184-215 (2015)
 DOI: 10.1080/00268976.2014.952696

 Q-Chem 5.2.1 for Intel X86 EM64T Linux

 Parts of Q-Chem use Armadillo 8.300.2 (Tropical Shenanigans).
 http://arma.sourceforge.net/

 Q-Chem begins on Wed Sep 29 13:46:52 2021  

compute-0-7.local
Host: 0

     Scratch files written to /home/meili/scratch/qchem49103//Frg2//
NAlpha2: 50
NElect   50
Mult     1
Symmetry turned off for PCM/SM12/SMD calculation

Checking the input file for inconsistencies... 	...done.

--------------------------------------------------------------
User input:
--------------------------------------------------------------
$molecule
0 1
 6	4.8110104861	2.0533211008	-1.9914753063
 6	1.0350104861	1.5093211008	-2.1774753063
 6	0.6150104861	2.1633211008	-1.0274753063
 6	2.4070104861	1.4253211008	-2.4724753063
 6	3.3420104861	2.0473211008	-1.6364753063
 6	1.5450104861	2.7613211008	-0.1954753063
 6	2.9030104861	2.7123211008	-0.4994753063
 1	0.3120104861	1.0603211008	-2.8434753063
 1	-0.4389895139	2.2163211008	-0.7874753063
 1	2.7310104861	0.9063211008	-3.3624753063
 1	1.2130104861	3.2783211008	0.6945246937
 1	5.0660104861	1.1113211008	-2.4804753063
 1	5.3960104861	2.1283211008	-1.0784753063
 1	3.6130104861	3.1903211008	0.1595246937
 1	5.0944604861	2.8957891008	-2.6394753063
$end
$rem
EDA2		1
METHOD		WB97X-V
BASIS		DEF2-TZVPD
XC_GRID		000099000590
NL_GRID		1
UNRESTRICTED		FALSE
MAX_SCF_CYCLES		200
SYMMETRY		FALSE
SYM_IGNORE		TRUE
BASIS_LIN_DEP_THRESH		6
THRESH		14
SCF_CONVERGENCE		8
SCF_PRINT_FRGM		TRUE
SOLVENT_METHOD		SMD
!required keywords
JOBTYPE		SP
SYM_IGNORE		TRUE
SUBSYSTEM		TRUE
GEN_SCFMAN		TRUE
CHILD_INSTRUCTION		2
SYM_IGNORE		TRUE
SCFMI		0
RI_K 0		
PARI_K 0		
MIN_PARI_K 0		
IARI_K 0		
OCC_RI_K 0		
PURECART		1111
MEM_STATIC		2000
MEM_TOTAL		2000
GUI		0
CHILD_MP		1
CHILD_MP_ORDERS		232
FRZ_RELAX		0
FRZ_RELAX_METHOD		0
EDA_CLS_ELEC		1
EDA_CLS_DISP		0
FRZ_ORTHO_DECOMP		1
EDA2		FALSE
FRGM_METHOD		FALSE
CIS_N_ROOTS  0
LOCAL_CIS    0
CIS_RLX_DNS  1
$end
$smx
SOLVENT			WATER
$end
--------------------------------------------------------------
 ----------------------------------------------------------------
             Standard Nuclear Orientation (Angstroms)
    I     Atom           X                Y                Z
 ----------------------------------------------------------------
    1      C       4.8110104861     2.0533211008    -1.9914753063
    2      C       1.0350104861     1.5093211008    -2.1774753063
    3      C       0.6150104861     2.1633211008    -1.0274753063
    4      C       2.4070104861     1.4253211008    -2.4724753063
    5      C       3.3420104861     2.0473211008    -1.6364753063
    6      C       1.5450104861     2.7613211008    -0.1954753063
    7      C       2.9030104861     2.7123211008    -0.4994753063
    8      H       0.3120104861     1.0603211008    -2.8434753063
    9      H      -0.4389895139     2.2163211008    -0.7874753063
   10      H       2.7310104861     0.9063211008    -3.3624753063
   11      H       1.2130104861     3.2783211008     0.6945246937
   12      H       5.0660104861     1.1113211008    -2.4804753063
   13      H       5.3960104861     2.1283211008    -1.0784753063
   14      H       3.6130104861     3.1903211008     0.1595246937
   15      H       5.0944604861     2.8957891008    -2.6394753063
 ----------------------------------------------------------------
 Nuclear Repulsion Energy =         269.65957940 hartrees
 There are       25 alpha and       25 beta electrons
 Requested basis set is def2-TZVPD
 There are 131 shells and 331 basis functions

 Total QAlloc Memory Limit   2000 MB
 Mega-Array Size      1956 MB
 MEM_STATIC part      2000 MB

 Citation of the SMD model:
 Marenich, A.V.; Cramer, C.J.; Truhlar, D.G.
 J. Phys. Chem. B 2009, 113, 6378-6396.
 iSolventCode=           1
 Solvent: water                                                           

 vradii
            1           2           3           4           5           6
    1   1.8500000   1.8500000   1.8500000   1.8500000   1.8500000   1.8500000
            7           8           9          10          11          12
    1   1.8500000   1.2000000   1.2000000   1.2000000   1.2000000   1.2000000
           13          14          15
    1   1.2000000   1.2000000   1.2000000
 Changing PCM_VDW_RADII to SMD_RADIUS
 Discretize the solute cavity surface with Lebedev spheres
	Using 110 Lebedev grid points for each H atom
	Using 194 Lebedev grid points for other atoms
	Atomic van der Waals radii will be scaled by 1.20
 Remove points where switching function is < 1.0e-08
 Keep 1079 surface tesserae and discard 1159 interior tesserae
 Molecular Surface Area = 132.399 Angst**2

                       Distance Matrix (Angstroms)
             C (  1)   C (  2)   C (  3)   C (  4)   C (  5)   C (  6)
   C (  2)  3.819517
   C (  3)  4.306717  1.388026
   C (  4)  2.530802  1.405868  2.417423
   C (  5)  1.511298  2.429892  2.796581  1.400002
   C (  6)  3.793895  2.399152  1.383737  2.777169  2.411532
   C (  7)  2.510141  2.784298  2.411458  2.407304  1.388422  1.392473
   H (  8)  4.685398  1.080688  2.146223  2.158678  3.407626  3.380177
   H (  9)  5.388755  2.145839  1.082278  3.400680  3.878830  2.140968
   H ( 10)  2.742563  2.155052  3.392599  1.080017  2.157378  3.857138
   H ( 11)  4.654119  3.377785  2.136847  3.858644  3.388446  1.081486
   H ( 12)  1.091563  4.061918  4.798887  2.677488  2.135558  4.510118
   H ( 13)  1.086931  4.539745  4.781400  3.372175  2.129986  4.001322
   H ( 14)  2.711969  3.864378  3.384036  3.390735  2.146044  2.141656
   H ( 15)  1.100000  4.314496  4.816692  3.067988  2.190203  4.311591
             C (  7)   H (  8)   H (  9)   H ( 10)   H ( 11)   H ( 12)
   H (  8)  3.864805
   H (  9)  3.390859  2.475373
   H ( 10)  3.389394  2.478838  4.289012
   H ( 11)  2.145249  4.271858  2.460340  4.938619
   H ( 12)  3.341576  4.768111  5.864495  2.504431  5.442621
   H ( 13)  2.625137  5.486611  5.842915  3.716472  4.686525  1.763177
   H ( 14)  1.080215  4.944847  4.273662  4.289413  2.460481  3.661018
   H ( 15)  3.068503  5.126635  5.874577  3.172792  5.131037  1.791764
             H ( 13)   H ( 14)
   H ( 14)  2.416522
   H ( 15)  1.765407  3.180541

 A cutoff of  1.0D-14 yielded   8358 shell pairs
 There are     54492 function pairs (     69446 Cartesian)
 Smallest overlap matrix eigenvalue = 5.71E-07
 Linear dependence detected in AO basis
 Tighter screening thresholds may be required for diffuse basis sets
 Use S2THRESH > 14 and THRESH = 14 in case of SCF convergence issues
 Number of orthogonalized atomic orbitals = 330
 Maximum deviation from orthogonality = 1.529E-10

 Scale SEOQF with 1.000000e-02/1.000000e-01/1.000000e-01

 Standard Electronic Orientation quadrupole field applied
 Nucleus-field energy     =     0.0000000025 hartrees
 Guess from superposition of atomic densities
 Warning:  Energy on first SCF cycle will be non-variational
 SAD guess density has 50.000000 electrons

 -----------------------------------------------------------------------
  General SCF calculation program by
  Eric Jon Sundstrom, Paul Horn, Yuezhi Mao, Dmitri Zuev, Alec White,
  David Stuck, Shaama M.S., Shane Yost, Joonho Lee, David Small,
  Daniel Levine, Susi Lehtola, Hugh Burton, Evgeny Epifanovsky,
  Bang C. Huynh
 -----------------------------------------------------------------------
 Exchange:     0.1670 Hartree-Fock + 1.0000 wB97X-V + LR-HF
 Correlation:  1.0000 wB97X-V
 Using Euler-Maclaurin-Lebedev (99,590) quadrature formula
 Nonlocal Correlation:  VV10 with C = 0.0100 and b = 6.00 and scale = 1.00000
 Grid used for NLC:  SG-1 standard quadrature
Energy prior to optimization (guess energy) = -271.527698789174
Begin Timing: Total SCF Calculation
begin iterations for algorithm: DIIS         
the SCF tolerance is set to 1.00e-08
    1    -271.5276987892      1.83e-03     00000 
    2    -271.5653106740      1.15e-03     00000 
    3    -271.5849036188      1.55e-04     00000 
    4    -271.5855772984      4.63e-05     00000 
    5    -271.5856240465      2.44e-05     00000 
    6    -271.5856336660      5.87e-06     00000 
    7    -271.5856344745      2.13e-06     00000 
    8    -271.5856345517      3.49e-07     00000 
    9    -271.5856345564      9.24e-08     00000 
   10    -271.5856345566      3.75e-08     00000 
   11    -271.5856345566      1.51e-08     00000 
   12    -271.5856345567      3.70e-09     00000 Convergence criterion met
Timing for Total SCF: 561.00s (wall), 3286.82s (cpu)
(3)  G-ENP(liq) elect-nuc-pol free energy of system     -271.585634557 a.u.
(4)  G-CDS(liq) cavity-dispersion-solvent structure 
     free energy                                                3.1818 kcal/mol
(6)  G-S(liq) free energy of system                     -271.580563974 a.u.
E_pcm = -0.0074800016
E_cds = 0.0050705822
Multipole orders to be included
        2
        3
computing dipole RHS
computing quadrupole RHS
total number of RHS in solve_reponses: 8
RHS batch sizes
        8
Beginning Block Conjugate Gradient Iterations. Batch Number: 0
computing hessian-vector products by finite difference
              1      6.23e-01     00000 Conjugate Gradient Iteration
computing hessian-vector products by finite difference
              2      1.89e-01     00000 Conjugate Gradient Iteration
computing hessian-vector products by finite difference
              3      4.58e-02     00000 Conjugate Gradient Iteration
computing hessian-vector products by finite difference
              4      1.15e-02     00000 Conjugate Gradient Iteration
computing hessian-vector products by finite difference
              5      2.28e-03     00000 Conjugate Gradient Iteration
computing hessian-vector products by finite difference
              6      7.43e-04     00000 Conjugate Gradient Iteration
computing hessian-vector products by finite difference
              7      1.66e-04     00000 Conjugate Gradient Iteration
computing hessian-vector products by finite difference
              8      2.80e-05     00000 Conjugate Gradient Iteration
computing hessian-vector products by finite difference
              9      3.85e-06     00000 Conjugate Gradient Iteration
computing hessian-vector products by finite difference
             10      5.74e-07     00000 Conjugate Gradient Iteration
computing hessian-vector products by finite difference
             11      8.06e-08     00000 Conjugate Gradient Iteration
computing hessian-vector products by finite difference
             12      1.44e-08     00000 Conjugate Gradient Iteration
computing hessian-vector products by finite difference
             13      3.21e-09     00000 CG Converged
batch 0 complete
Done Calculating Responses
TESTING ORTHOGONALIZATION OF MULTIPOLE BASIS
Multipole virts passed orthogonality test
Virts Per Order
           75
          125

 --------------------------------------------------------------

                    Orbital Energies (a.u.)
 --------------------------------------------------------------

 Alpha MOs
 -- Occupied --
-10.2779 -10.2693 -10.2668 -10.2666 -10.2641 -10.2635 -10.2537  -0.9929
 -0.9018  -0.8733  -0.8070  -0.7258  -0.6993  -0.6241  -0.5681  -0.5605
 -0.5276  -0.5233  -0.5083  -0.4810  -0.4694  -0.4365  -0.4332  -0.3452
 -0.3358
 -- Virtual --
  0.0656   0.0685   0.0725   0.0844   0.0899   0.1095   0.1159   0.1185
  0.1408   0.1601   0.1712   0.1740   0.1915   0.1934   0.2003   0.2077
  0.2287   0.2309   0.2398   0.2441   0.2542   0.2644   0.2656   0.2725
  0.2862   0.2869   0.2908   0.2963   0.2978   0.3072   0.3093   0.3154
  0.3232   0.3307   0.3388   0.3396   0.3562   0.3572   0.3734   0.3757
  0.3833   0.3867   0.3893   0.3917   0.3947   0.4067   0.4094   0.4132
  0.4159   0.4313   0.4344   0.4404   0.4447   0.4528   0.4559   0.4574
  0.4671   0.4746   0.4806   0.4855   0.4967   0.5008   0.5159   0.5218
  0.5234   0.5297   0.5389   0.5411   0.5436   0.5504   0.5547   0.5725
  0.5855   0.5911   0.5999   0.6044   0.6108   0.6218   0.6474   0.6510
  0.6667   0.6765   0.6870   0.6904   0.6935   0.6995   0.7225   0.7264
  0.7328   0.7340   0.7497   0.7616   0.7664   0.7715   0.7825   0.7900
  0.7929   0.7960   0.8025   0.8052   0.8101   0.8258   0.8299   0.8373
  0.8393   0.8414   0.8451   0.8575   0.8628   0.8804   0.8932   0.9017
  0.9113   0.9247   0.9343   0.9528   0.9569   1.0214   1.0231   1.0454
  1.0500   1.0637   1.0706   1.0827   1.0889   1.0902   1.1070   1.1488
  1.1688   1.1855   1.2518   1.2833   1.2993   1.3162   1.3506   1.3534
  1.3847   1.4401   1.4565   1.4606   1.4656   1.4919   1.5292   1.5421
  1.6005   1.6070   1.6235   1.6286   1.6616   1.6843   1.7457   1.7839
  1.7969   1.8014   1.8082   1.8252   1.8329   1.8697   1.8941   1.9142
  1.9237   1.9324   1.9607   1.9619   1.9875   2.0000   2.0195   2.0286
  2.0347   2.0511   2.0752   2.0985   2.1192   2.1247   2.1722   2.1799
  2.2002   2.2400   2.2479   2.2664   2.2907   2.3154   2.3947   2.3997
  2.4071   2.4153   2.4942   2.5102   2.5402   2.5530   2.5664   2.6093
  2.6241   2.6332   2.6706   2.6726   2.7010   2.7230   2.7579   2.7714
  2.7961   2.8179   2.8246   2.8504   2.8703   2.9112   2.9150   2.9160
  2.9411   2.9480   2.9593   2.9788   2.9966   3.0190   3.0228   3.0515
  3.0675   3.0879   3.1056   3.1373   3.1789   3.1951   3.2013   3.2350
  3.2373   3.2422   3.2930   3.3156   3.3305   3.3572   3.3726   3.3766
  3.3994   3.4457   3.4489   3.4595   3.4643   3.4732   3.4902   3.5073
  3.5130   3.5305   3.5403   3.5503   3.5676   3.5743   3.5914   3.6088
  3.6124   3.6419   3.6628   3.6910   3.7166   3.7562   3.7904   3.8129
  3.8394   3.8931   3.9097   3.9597   3.9709   3.9828   4.0385   4.0603
  4.1154   4.2040   4.2732   4.2792   4.2948   4.3189   4.3279   4.3281
  4.3500   4.3652   4.3827   4.4108   4.4400   4.4493   4.4751   4.5336
  4.6054   4.6390   4.7525   4.7706   4.8214   4.8934   4.9073   4.9486
  5.0245   5.0506   5.1623   5.2732   5.3695   5.3862   5.5002   5.5323
  5.6736   5.8482  22.5750  22.6699  22.8943  22.9012  23.0023  23.0847
 23.4146
 --------------------------------------------------------------

          Ground-State Mulliken Net Atomic Charges

     Atom                 Charge (a.u.)
  ----------------------------------------
      1 C                    -1.083871
      2 C                    -0.558823
      3 C                    -0.548830
      4 C                    -0.417847
      5 C                     0.833500
      6 C                    -0.550865
      7 C                    -0.420428
      8 H                     0.378061
      9 H                     0.392187
     10 H                     0.392105
     11 H                     0.372933
     12 H                     0.293577
     13 H                     0.296807
     14 H                     0.380384
     15 H                     0.241111
  ----------------------------------------
  Sum of atomic charges =     0.000000

 -----------------------------------------------------------------
                    Cartesian Multipole Moments
 -----------------------------------------------------------------
    Charge (ESU x 10^10)
                 0.0000
    Dipole Moment (Debye)
         X       0.5026      Y       0.0818      Z      -0.1423
       Tot       0.5288
    Quadrupole Moments (Debye-Ang)
        XX     -34.9226     XY       1.9756     YY     -43.6594
        XZ      -1.4670     YZ       3.5383     ZZ     -39.5528
    Octopole Moments (Debye-Ang^2)
       XXX    -271.6399    XXY     -69.2511    XYY     -99.0898
       YYY    -275.6883    XXZ      48.6023    XYZ       2.9463
       YYZ      77.9002    XZZ     -94.8527    YZZ     -92.9150
       ZZZ     172.8760
    Hexadecapole Moments (Debye-Ang^3)
      XXXX   -1955.9065   XXXY    -556.3845   XXYY    -512.0018
      XYYY    -651.3730   YYYY   -1295.2014   XXXZ     430.1885
      XXYZ      97.5278   XYYZ     180.1746   YYYZ     386.6018
      XXZZ    -443.9252   XYZZ    -216.7776   YYZZ    -360.5862
      XZZZ     458.8903   YZZZ     340.1004   ZZZZ    -751.9578
 -----------------------------------------------------------------
Archival summary:
1\1\compute-0-7.local\SP\ProcedureUnspecified\BasisUnspecified\78\meili\WedSep2916:55:352021WedSep2916:55:352021\0\\#,ProcedureUnspecified,BasisUnspecified,\\0,1\C\C,1,1.38842\H,2,1.08022,1,120.246\C,2,1.39247,1,120.265,3,-179.608,0\H,4,1.08149,2,119.727,1,179.756,0\C,4,1.38374,2,120.596,1,-0.752469,0\H,6,1.08228,4,120.002,2,-179.349,0\C,6,1.38803,4,119.895,2,-0.0932246,0\H,8,1.08069,6,120.259,4,-178.56,0\C,1,1.4,2,119.382,3,179.51,0\H,10,1.08002,1,120.346,2,179.812,0\C,1,1.5113,2,119.854,3,-3.1755,0\H,12,1.08693,1,109.033,2,29.5712,0\H,12,1.09156,1,109.201,2,147.444,0\H,12,1.1,1,113.072,2,-90.1425,0\\\@

 Total job time:  11322.74s(wall), 67705.11s(cpu) 
 Wed Sep 29 16:55:35 2021

        *************************************************************
        *                                                           *
        *  Thank you very much for using Q-Chem.  Have a nice day.  *
        *                                                           *
        *************************************************************


Done Job For Fragment 1
calling putenv with: QCSCRATCH=/home/meili/scratch 
calling putenv with: QCTHREADS=8 
Doing General SCFMI
 Exchange:     0.1670 Hartree-Fock + 1.0000 wB97X-V + LR-HF
 Correlation:  1.0000 wB97X-V
 Using Euler-Maclaurin-Lebedev (99,590) quadrature formula
 Nonlocal Correlation:  VV10 with C = 0.0100 and b = 6.00 and scale = 1.00000
 Grid used for NLC:  SG-1 standard quadrature
performing fock build before subrot guess so that all methods have access
Printing subrot_rss_gen Method Specification:
Occupied Subspace Method is 0
Virtual Subspace Method is 0
Energy of the unrelaxed supersystem initial determinant -657.701805707628
performing fock build before subrot guess so that all methods have access
Printing subrot_rss_gen Method Specification:
Occupied Subspace Method is 0
Virtual Subspace Method is 0
Energy of the unrelaxed supersystem initial determinant w/ solvent -657.727979489817
write pseudocanon occs and virts to disk
write pseudocanon orbital energies to disk
Tolerance of ortho_decomp_scf: 1.00e-06
GDM subspace size: 20
Beginning the Orthogonal Decomposition of the Initial Supersystem Wavefunction
    1    -657.6900566370      1.32e-02     ortho_decomp Preconditoned Steepest Descent
    2    -657.6911172184      3.40e-04     ortho_decomp BFGS Step
    3    -657.6911206207      2.52e-05     ortho_decomp BFGS Step
    4    -657.6911206270      1.09e-06     ortho_decomp BFGS Step
    5    -657.6911206271      4.76e-08     ortho_decomp 00000 Convergence criterion met
 Hartree-Fock
 Hartree-Fock
 Hartree-Fock
Doing General SCFMI
 Exchange:     0.1670 Hartree-Fock + 1.0000 wB97X-V + LR-HF
 Correlation:  1.0000 wB97X-V
 Using Euler-Maclaurin-Lebedev (99,590) quadrature formula
 Nonlocal Correlation:  VV10 with C = 0.0100 and b = 6.00 and scale = 1.00000
 Grid used for NLC:  SG-1 standard quadrature
performing fock build at end of subrot_r(subrot) constructor so that all methods have access
<S^2> of initial wavefunction before polarization iterations 0.0000000000
Beginning iterations for the determination of the polarized wavefunction
Energy prior to optimization (guess energy) = -657.727979489816
Begin Timing: Total SCF Calculation
begin iterations for algorithm: DIIS         
the SCF tolerance is set to 1.00e-08
    1    -657.7279794898      2.85e-05     00000 
    2    -657.7280893757      1.13e-05     00000 
    3    -657.7281011891      6.51e-06     00000 
    4    -657.7281051922      1.98e-06     00000 
    5    -657.7281056130      1.18e-06     00000 
    6    -657.7281057208      5.13e-07     00000 
    7    -657.7281057319      2.37e-07     00000 
    8    -657.7281057350      1.04e-07     00000 
    9    -657.7281057359      3.70e-08     00000 
   10    -657.7281057362      1.45e-08     00000 
   11    -657.7281057362      4.83e-09     00000 Convergence criterion met
write pseudocanon occs and virts to disk
write pseudocanon orbital energies to disk
Timing for Total SCF: 6254.00s (wall), 38468.07s (cpu)
<S^2> of polarized wavefunction after polarization iterations 0.0000000000
relaxing scfmi constraint to allow all rotations in the entire AO span
Doing General SCFMI
 Exchange:     0.1670 Hartree-Fock + 1.0000 wB97X-V + LR-HF
 Correlation:  1.0000 wB97X-V
 Using Euler-Maclaurin-Lebedev (99,590) quadrature formula
 Nonlocal Correlation:  VV10 with C = 0.0100 and b = 6.00 and scale = 1.00000
 Grid used for NLC:  SG-1 standard quadrature
performing fock build at end of subrot_r(subrot) constructor so that all methods have access
<S^2> of polarized wavefunction before ct-allowed iterations 0.0000000000
Beginning iterations for the determination of the CT-Allowed wavefunction
Energy prior to optimization (guess energy) = -657.728105736184
Begin Timing: Total SCF Calculation
begin iterations for algorithm: DIIS         
the SCF tolerance is set to 1.00e-08
    1    -657.7281057362      4.80e-05     00000 
    2    -657.7287659498      5.04e-06     00000 
    3    -657.7287849036      7.97e-07     00000 
    4    -657.7287855035      3.02e-07     00000 
    5    -657.7287855381      1.06e-07     00000 
    6    -657.7287855448      2.61e-08     00000 
    7    -657.7287855452      1.11e-08     00000 
    8    -657.7287855452      2.79e-09     00000 Convergence criterion met
write pseudocanon occs and virts to disk
write pseudocanon orbital energies to disk
Timing for Total SCF: 4311.00s (wall), 26564.68s (cpu)
<S^2> of ct_allowed wavefunction after ct-allowed iterations 0.0000000000

================================
        Results of EDA2         
================================
Basic EDA Quantities
--------------------
Fragment Energies (Ha):
1 -386.1342220954
2 -271.5805639744
--------------------
  E_prp (kJ/mol) = 0.0000
  E_sol (kJ/mol) = -3.7860
  E_frz (kJ/mol) = -1.0592
  E_pol (kJ/mol) = -0.3315
  E_vct (kJ/mol) = -1.7849
  E_int (kJ/mol) = -6.9616
--------------------


Initial Wavefunction Decomposition
--------------------
  --------------------
  Orthogonal Fragment Subspace Decomposition:
  --------------------
     E_elec   (ELEC)   (kJ/mol) = -9.4655
     E_pauli  (PAULI)  (kJ/mol) = 20.7447
     E_disp   (DISP)   (kJ/mol) = -12.3385
     --------------------
     Terms summing to E_pauli:
     --------------------
        E_kep_pauli       (kJ/mol) = 26.9948
        E_disp_free_pauli (kJ/mol) = -6.2501
  --------------------
  Classical Frozen Decomposition:
  --------------------
     E_cls_elec  (CLS ELEC)  (kJ/mol) = -1.3724
     E_cls_pauli (CLS PAULI) (kJ/mol) = 0.3132
    [E_mod_pauli (MOD PAULI) (kJ/mol) = 12.6516 (CLS PAULI - DISP from orthogonal decomposition) ]
  --------------------
--------------------

Simplified EDA Summary (kJ/mol)
--------------------
 PREPARATION     0.0000
 SOLVATION       -3.7860
 FROZEN          11.2792      (does not include dispersion)
[PAULI           20.7447]     (if this is negligible, then frozen describes electrostatics)
 DISPERSION      -12.3385
 POLARIZATION    -0.3315
 CHARGE TRANSFER -1.7849
 TOTAL           -6.9616     (PRP + SOL + FRZ + DISP + POL + CT)
--------------------

 --------------------------------------------------------------

                    Orbital Energies (a.u.)
 --------------------------------------------------------------

 Alpha MOs
 -- Occupied --
-19.2390 -10.3291 -10.2780 -10.2694 -10.2688 -10.2681 -10.2671 -10.2668
-10.2664 -10.2660 -10.2643 -10.2636 -10.2635 -10.2541 -10.2538 -10.2471
 -1.1980  -0.9931  -0.9912  -0.9142  -0.9019  -0.8777  -0.8734  -0.8439
 -0.8072  -0.7579  -0.7360  -0.7261  -0.7012  -0.6994  -0.6618  -0.6248
 -0.5993  -0.5830  -0.5684  -0.5610  -0.5498  -0.5443  -0.5331  -0.5277
 -0.5256  -0.5231  -0.5086  -0.5061  -0.4937  -0.4811  -0.4757  -0.4689
 -0.4448  -0.4383  -0.4348  -0.4326  -0.4274  -0.4254  -0.3478  -0.3451
 -0.3355  -0.3085
 -- Virtual --
  0.0590   0.0616   0.0651   0.0692   0.0726   0.0771   0.0802   0.0834
  0.0890   0.0952   0.1007   0.1049   0.1070   0.1177   0.1215   0.1247
  0.1287   0.1328   0.1343   0.1526   0.1552   0.1615   0.1640   0.1682
  0.1753   0.1769   0.1804   0.1816   0.1955   0.1976   0.2036   0.2080
  0.2135   0.2146   0.2188   0.2247   0.2292   0.2308   0.2347   0.2388
  0.2430   0.2441   0.2480   0.2539   0.2570   0.2618   0.2669   0.2696
  0.2741   0.2759   0.2777   0.2795   0.2819   0.2855   0.2910   0.2928
  0.2948   0.3018   0.3052   0.3072   0.3096   0.3106   0.3148   0.3189
  0.3211   0.3218   0.3254   0.3282   0.3364   0.3383   0.3401   0.3418
  0.3457   0.3501   0.3510   0.3544   0.3582   0.3600   0.3639   0.3659
  0.3678   0.3686   0.3725   0.3745   0.3767   0.3803   0.3821   0.3867
  0.3921   0.3932   0.3956   0.3965   0.3992   0.4032   0.4050   0.4087
  0.4110   0.4147   0.4164   0.4191   0.4221   0.4244   0.4281   0.4324
  0.4365   0.4389   0.4428   0.4444   0.4493   0.4520   0.4525   0.4558
  0.4578   0.4626   0.4646   0.4682   0.4747   0.4757   0.4774   0.4813
  0.4844   0.4862   0.4929   0.4937   0.4986   0.5003   0.5017   0.5051
  0.5098   0.5112   0.5127   0.5150   0.5220   0.5237   0.5255   0.5303
  0.5351   0.5389   0.5389   0.5406   0.5468   0.5493   0.5523   0.5546
  0.5584   0.5647   0.5701   0.5718   0.5746   0.5774   0.5809   0.5854
  0.5920   0.5967   0.6015   0.6078   0.6098   0.6117   0.6129   0.6172
  0.6207   0.6253   0.6365   0.6396   0.6439   0.6466   0.6499   0.6542
  0.6577   0.6647   0.6697   0.6727   0.6774   0.6802   0.6847   0.6873
  0.6898   0.6979   0.6987   0.7024   0.7053   0.7120   0.7170   0.7183
  0.7222   0.7242   0.7296   0.7313   0.7360   0.7380   0.7384   0.7414
  0.7432   0.7453   0.7519   0.7571   0.7611   0.7636   0.7689   0.7696
  0.7741   0.7782   0.7808   0.7814   0.7865   0.7890   0.7902   0.7955
  0.7984   0.8033   0.8053   0.8066   0.8102   0.8126   0.8189   0.8229
  0.8264   0.8307   0.8360   0.8373   0.8412   0.8420   0.8450   0.8478
  0.8536   0.8563   0.8591   0.8629   0.8668   0.8688   0.8734   0.8750
  0.8846   0.8880   0.8934   0.8973   0.9039   0.9086   0.9122   0.9163
  0.9214   0.9234   0.9273   0.9341   0.9397   0.9439   0.9481   0.9530
  0.9574   0.9664   0.9744   0.9776   0.9829   0.9886   0.9981   0.9994
  1.0042   1.0109   1.0167   1.0253   1.0309   1.0368   1.0419   1.0469
  1.0543   1.0610   1.0654   1.0734   1.0819   1.0901   1.0944   1.0975
  1.1037   1.1080   1.1144   1.1179   1.1241   1.1378   1.1453   1.1476
  1.1603   1.1636   1.1825   1.1982   1.2016   1.2088   1.2138   1.2247
  1.2336   1.2556   1.2744   1.2818   1.2921   1.2934   1.3195   1.3260
  1.3349   1.3402   1.3495   1.3556   1.3640   1.3728   1.3810   1.3934
  1.3982   1.4065   1.4239   1.4317   1.4472   1.4545   1.4622   1.4694
  1.4797   1.4847   1.4884   1.4994   1.5082   1.5216   1.5240   1.5345
  1.5494   1.5548   1.5577   1.5761   1.6004   1.6053   1.6196   1.6286
  1.6393   1.6466   1.6580   1.6683   1.6721   1.6864   1.6886   1.6977
  1.7182   1.7285   1.7670   1.7822   1.7896   1.7990   1.8087   1.8127
  1.8190   1.8243   1.8384   1.8531   1.8556   1.8595   1.8827   1.8861
  1.8976   1.9071   1.9146   1.9228   1.9293   1.9353   1.9441   1.9502
  1.9591   1.9664   1.9720   1.9798   1.9883   1.9951   2.0051   2.0079
  2.0170   2.0242   2.0381   2.0406   2.0511   2.0548   2.0635   2.0675
  2.0711   2.0764   2.0848   2.0897   2.0949   2.0980   2.1060   2.1120
  2.1292   2.1367   2.1494   2.1589   2.1604   2.1781   2.1901   2.1917
  2.2072   2.2198   2.2331   2.2427   2.2512   2.2572   2.2688   2.2710
  2.2825   2.2948   2.3012   2.3203   2.3364   2.3404   2.3534   2.3673
  2.3739   2.3771   2.3993   2.4123   2.4193   2.4204   2.4347   2.4422
  2.4498   2.4665   2.4784   2.5066   2.5120   2.5208   2.5278   2.5473
  2.5614   2.5716   2.5866   2.6023   2.6111   2.6178   2.6219   2.6356
  2.6451   2.6485   2.6517   2.6574   2.6637   2.6850   2.6945   2.7012
  2.7044   2.7149   2.7341   2.7414   2.7510   2.7534   2.7669   2.7834
  2.7894   2.7963   2.8116   2.8200   2.8246   2.8358   2.8390   2.8518
  2.8525   2.8673   2.8762   2.8821   2.8986   2.9168   2.9207   2.9251
  2.9328   2.9409   2.9450   2.9515   2.9581   2.9664   2.9678   2.9728
  2.9840   2.9866   2.9912   3.0002   3.0083   3.0138   3.0271   3.0400
  3.0451   3.0519   3.0583   3.0738   3.0900   3.0973   3.1022   3.1047
  3.1096   3.1163   3.1196   3.1444   3.1540   3.1646   3.1791   3.1869
  3.1992   3.2098   3.2176   3.2226   3.2348   3.2482   3.2570   3.2626
  3.2663   3.2764   3.2896   3.3041   3.3070   3.3199   3.3401   3.3449
  3.3490   3.3719   3.3743   3.3833   3.3935   3.3970   3.4102   3.4144
  3.4215   3.4285   3.4381   3.4413   3.4510   3.4606   3.4651   3.4733
  3.4783   3.4813   3.4874   3.4902   3.5011   3.5103   3.5172   3.5183
  3.5291   3.5367   3.5424   3.5436   3.5449   3.5493   3.5497   3.5602
  3.5693   3.5712   3.5779   3.5826   3.5877   3.5921   3.6036   3.6087
  3.6136   3.6240   3.6292   3.6334   3.6391   3.6525   3.6555   3.6699
  3.6772   3.6955   3.7037   3.7157   3.7213   3.7224   3.7290   3.7510
  3.7580   3.7808   3.7949   3.8099   3.8152   3.8209   3.8413   3.8445
  3.8625   3.8740   3.8979   3.9197   3.9267   3.9649   3.9724   3.9771
  3.9904   3.9946   4.0112   4.0440   4.0531   4.0668   4.0819   4.1136
  4.1284   4.1533   4.1977   4.2061   4.2225   4.2325   4.2344   4.2765
  4.2865   4.2894   4.2997   4.3093   4.3259   4.3311   4.3353   4.3382
  4.3427   4.3583   4.3618   4.3657   4.3731   4.3878   4.3917   4.4069
  4.4181   4.4237   4.4379   4.4428   4.4574   4.4601   4.4837   4.4934
  4.5539   4.5640   4.5760   4.6195   4.6303   4.6444   4.6559   4.7136
  4.7575   4.7583   4.7646   4.7760   4.8084   4.8246   4.8306   4.8937
  4.9023   4.9153   4.9307   4.9498   4.9684   5.0457   5.0471   5.0618
  5.0707   5.1006   5.1441   5.1615   5.1766   5.1901   5.2856   5.3485
  5.3647   5.3811   5.3883   5.4100   5.4843   5.5036   5.5337   5.5554
  5.6370   5.6723   5.6897   5.7546   5.7847   5.8266   5.9836   6.2446
  6.5302   6.6284   6.6395   6.8887   7.0419   7.3056   7.4797  22.6469
 22.6783  22.7069  22.7607  22.8967  22.9235  22.9418  22.9766  23.0227
 23.0358  23.0899  23.0997  23.2416  23.4282  23.5766  44.4522
 --------------------------------------------------------------

          Ground-State Mulliken Net Atomic Charges

     Atom                 Charge (a.u.)
  ----------------------------------------
      1 C                     0.061554
      2 C                    -1.032893
      3 C                     0.130098
      4 C                    -0.522175
      5 C                    -0.086806
      6 C                    -0.479951
      7 C                    -0.886649
      8 C                     0.589266
      9 O                    -0.533857
     10 H                     0.320575
     11 H                    -0.358377
     12 H                     0.262222
     13 H                     0.397984
     14 H                     0.382004
     15 H                     0.392069
     16 H                     0.424609
     17 H                     0.324389
     18 H                     0.319030
     19 H                     0.254120
     20 C                    -1.109328
     21 C                    -0.481554
     22 C                    -0.386972
     23 C                    -0.511049
     24 C                     0.628791
     25 C                    -0.565823
     26 C                    -0.435149
     27 H                     0.446737
     28 H                     0.396724
     29 H                     0.421180
     30 H                     0.394826
     31 H                     0.296239
     32 H                     0.301703
     33 H                     0.404337
     34 H                     0.242120
  ----------------------------------------
  Sum of atomic charges =     0.000000

 -----------------------------------------------------------------
                    Cartesian Multipole Moments
 -----------------------------------------------------------------
    Charge (ESU x 10^10)
                 0.0000
    Dipole Moment (Debye)
         X       0.6778      Y      -1.4626      Z      -1.2270
       Tot       2.0259
    Quadrupole Moments (Debye-Ang)
        XX     -94.4895     XY       3.5218     YY     -82.2205
        XZ       0.6707     YZ      -1.6310     ZZ     -95.8021
    Octopole Moments (Debye-Ang^2)
       XXX      57.5100    XXY      20.3260    XYY     -18.6821
       YYY    -102.5823    XXZ     -11.9229    XYZ       6.8447
       YYZ      74.6636    XZZ      12.3578    YZZ     -33.7501
       ZZZ      -1.4320
    Hexadecapole Moments (Debye-Ang^3)
      XXXX   -3355.7963   XXXY    -998.5770   XXYY    -923.8408
      XYYY    -959.3589   YYYY   -2166.6817   XXXZ     630.7363
      XXYZ     238.9576   XYYZ     178.0508   YYYZ     539.3324
      XXZZ    -951.3391   XYZZ    -331.4677   YYZZ    -620.0475
      XZZZ     675.8583   YZZZ     654.2960   ZZZZ   -2390.7359
 -----------------------------------------------------------------
Archival summary:
1\1\compute-0-7.local\SP\ProcedureUnspecified\BasisUnspecified\11518\meili\WedSep2922:02:482021WedSep2922:02:482021\0\\#,ProcedureUnspecified,BasisUnspecified,\\0,1\C\C,1,1.38989\H,2,1.08284,1,120.056\C,1,1.39231,2,119.175,3,179.66,0\H,4,1.08104,1,119.531,2,179.05,0\C,4,1.39559,1,121,2,-0.120949,0\H,6,1.07886,4,121.087,1,179.814,0\C,6,1.39096,4,119.435,1,-1.01404,0\O,8,1.34574,6,121.462,4,179.268,0\H,9,0.954112,8,111.836,6,-177.845,0\C,8,1.38965,6,120.227,4,1.57757,0\H,11,1.07455,8,120.12,6,-179.535,0\C,1,1.5065,2,120.24,3,-0.356189,0\H,13,1.08601,1,108.721,2,-128.309,0\H,13,1.09109,1,109.669,2,-10.1448,0\C,13,1.52112,1,111.32,2,110.973,0\H,16,1.0832,13,107.1,1,71.4936,0\H,16,1.1,13,110.647,1,-46.1776,0\H,16,1.1,13,110.36,1,-173.34,0\H,14,2.24817,13,155.226,1,159.431,0\C,20,1.08069,14,106.45,13,-163.225,0\C,21,1.38803,20,120.259,14,-49.3592,0\H,22,1.08228,21,120.098,20,0.694303,0\C,22,1.38374,21,119.895,20,-178.56,0\H,24,1.08149,22,119.675,21,179.399,0\C,24,1.39247,22,120.596,21,-0.0932246,0\H,26,1.08022,24,119.488,22,179.637,0\C,26,1.38842,24,120.265,22,-0.752469,0\C,28,1.4,26,119.382,24,-0.0977607,0\H,29,1.08002,28,120.346,26,179.812,0\C,28,1.5113,26,119.854,24,177.217,0\H,31,1.08693,28,109.033,26,29.5712,0\H,31,1.09156,28,109.201,26,147.444,0\H,31,1.1,28,113.072,26,-90.1425,0\\\@

 Total job time:  53461.22s(wall), 117879.46s(cpu) 
 Wed Sep 29 22:02:48 2021

        *************************************************************
        *                                                           *
        *  Thank you very much for using Q-Chem.  Have a nice day.  *
        *                                                           *
        *************************************************************


