
Running Job 1 of 1 SSI-102HIE-269HIE-1_SMD_TZVPD.in
qchem SSI-102HIE-269HIE-1_SMD_TZVPD.in_15214.0 /tmp/qchem15214/ 0
/global/common/cori/software/qchem/5.2/exe/qcprog.exe_s SSI-102HIE-269HIE-1_SMD_TZVPD.in_15214.0 /tmp/qchem15214/
                  Welcome to Q-Chem
     A Quantum Leap Into The Future Of Chemistry


 Q-Chem 5.2, Q-Chem, Inc., Pleasanton, CA (2019)

 License issued to: National Energy Research Scientific Computing Center

 Yihan Shao,  Zhengting Gan,  E. Epifanovsky,  A. T. B. Gilbert,  M. Wormit,  
 J. Kussmann,  A. W. Lange,  A. Behn,  Jia Deng,  Xintian Feng,  D. Ghosh,  
 M. Goldey,  P. R. Horn,  L. D. Jacobson,  I. Kaliman,  T. Kus,  A. Landau,  
 Jie Liu,  E. I. Proynov,  R. M. Richard,  R. P. Steele,  E. J. Sundstrom,  
 H. L. Woodcock III,  P. M. Zimmerman,  D. Zuev,  B. Albrecht,  E. Alguire,  
 S. A. Baeppler,  D. Barton,  Z. Benda,  Y. A. Bernard,  E. J. Berquist,  
 K. B. Bravaya,  H. Burton,  D. Casanova,  Chun-Min Chang,  Yunqing Chen,  
 A. Chien,  K. D. Closser,  M. P. Coons,  S. Coriani,  S. Dasgupta,  
 A. L. Dempwolff,  M. Diedenhofen,  Hainam Do,  R. G. Edgar,  Po-Tung Fang,  
 S. Faraji,  S. Fatehi,  Qingguo Feng,  K. D. Fenk,  J. Fosso-Tande,  
 J. Gayvert,  Qinghui Ge,  A. Ghysels,  G. Gidofalvi,  J. Gomes,  
 J. Gonthier,  A. Gunina,  D. Hait,  M. W. D. Hanson-Heine,  
 P. H. P. Harbach,  A. W. Hauser,  M. F. Herbst,  J. E. Herr,  
 E. G. Hohenstein,  Z. C. Holden,  Kerwin Hui,  B. C. Huynh,  T.-C. Jagau,  
 Hyunjun Ji,  B. Kaduk,  K. Khistyaev,  Jaehoon Kim,  P. Klunzinger,  K. Koh,  
 D. Kosenkov,  L. Koulias,  T. Kowalczyk,  C. M. Krauter,  A. Kunitsa,  
 Ka Un Lao,  A. Laurent,  K. V. Lawler,  Joonho Lee,  D. Lefrancois,  
 S. Lehtola,  D. S. Levine,  Yi-Pei Li,  You-Sheng Lin,  Fenglai Liu,  
 E. Livshits,  A. Luenser,  P. Manohar,  E. Mansoor,  S. F. Manzer,  
 Shan-Ping Mao,  Yuezhi Mao,  N. Mardirossian,  A. V. Marenich,  
 T. Markovich,  L. A. Martinez-Martinez,  S. A. Maurer,  N. J. Mayhall,  
 S. C. McKenzie,  J.-M. Mewes,  P. Morgante,  A. F. Morrison,  
 J. W. Mullinax,  K. Nanda,  T. S. Nguyen-Beck,  R. Olivares-Amaya,  
 J. A. Parkhill,  Zheng Pei,  T. M. Perrine,  F. Plasser,  P. Pokhilko,  
 S. Prager,  A. Prociuk,  E. Ramos,  D. R. Rehn,  F. Rob,  M. Scheurer,  
 M. Schneider,  N. Sergueev,  S. M. Sharada,  S. Sharma,  D. W. Small,  
 T. Stauch,  T. Stein,  Yu-Chuan Su,  A. J. W. Thom,  A. Tkatchenko,  
 T. Tsuchimochi,  N. M. Tubman,  L. Vogt,  M. L. Vidal,  O. Vydrov,  
 M. A. Watson,  J. Wenzel,  M. de Wergifosse,  T. A. Wesolowski,  A. White,  
 J. Witte,  A. Yamada,  Jun Yang,  K. Yao,  S. Yeganeh,  S. R. Yost,  
 Zhi-Qiang You,  A. Zech,  Igor Ying Zhang,  Xing Zhang,  Yan Zhao,  
 Ying Zhu,  B. R. Brooks,  G. K. L. Chan,  C. J. Cramer,  M. S. Gordon,  
 W. J. Hehre,  A. Klamt,  M. W. Schmidt,  C. D. Sherrill,  D. G. Truhlar,  
 A. Aspuru-Guzik,  R. Baer,  A. T. Bell,  N. A. Besley,  Jeng-Da Chai,  
 A. E. DePrince, III,  R. A. DiStasio Jr.,  A. Dreuw,  B. D. Dunietz,  
 T. R. Furlani,  Chao-Ping Hsu,  Yousung Jung,  Jing Kong,  D. S. Lambrecht,  
 WanZhen Liang,  C. Ochsenfeld,  V. A. Rassolov,  L. V. Slipchenko,  
 J. E. Subotnik,  T. Van Voorhis,  J. M. Herbert,  A. I. Krylov,  
 P. M. W. Gill,  M. Head-Gordon

 Contributors to earlier versions of Q-Chem not listed above: 
 R. D. Adamson,  B. Austin,  J. Baker,  G. J. O. Beran,  K. Brandhorst,  
 S. T. Brown,  E. F. C. Byrd,  A. K. Chakraborty,  C.-L. Cheng,  
 Siu Hung Chien,  D. M. Chipman,  D. L. Crittenden,  H. Dachsel,  
 R. J. Doerksen,  A. D. Dutoi,  L. Fusti-Molnar,  W. A. Goddard III,  
 A. Golubeva-Zadorozhnaya,  S. R. Gwaltney,  G. Hawkins,  A. Heyden,  
 S. Hirata,  G. Kedziora,  F. J. Keil,  C. Kelley,  Jihan Kim,  R. A. King,  
 R. Z. Khaliullin,  P. P. Korambath,  W. Kurlancheek,  A. M. Lee,  M. S. Lee,  
 S. V. Levchenko,  Ching Yeh Lin,  D. Liotard,  R. C. Lochan,  I. Lotan,  
 P. E. Maslen,  N. Nair,  D. P. O'Neill,  D. Neuhauser,  E. Neuscamman,  
 C. M. Oana,  R. Olson,  B. Peters,  R. Peverati,  P. A. Pieniazek,  
 Y. M. Rhee,  J. Ritchie,  M. A. Rohrdanz,  E. Rosta,  N. J. Russ,  
 H. F. Schaefer III,  N. E. Schultz,  N. Shenvi,  A. C. Simmonett,  A. Sodt,  
 D. Stuck,  K. S. Thanthiriwatte,  V. Vanovschi,  Tao Wang,  A. Warshel,  
 C. F. Williams,  Q. Wu,  X. Xu,  W. Zhang

 Please cite Q-Chem as follows:
 Y. Shao et al., Mol. Phys. 113, 184-215 (2015)
 DOI: 10.1080/00268976.2014.952696

 Q-Chem 5.2.0 for Intel X86 EM64T Linux

 Parts of Q-Chem use Armadillo 8.300.2 (Tropical Shenanigans).
 http://arma.sourceforge.net/

 Q-Chem begins on Sun Sep 26 12:57:53 2021  

Host: cori01
0

     Scratch files written to /tmp/qchem15214//
 May1019 |scratch|qcdevops|jenkins|workspace|build_RNUM -1
Processing $rem in /global/common/cori/software/qchem/5.2/config/preferences:
	 MEM_TOTAL  96000 
NAlpha2: 88
NElect   88
Mult     1
Symmetry turned off for PCM/SM12/SMD calculation

 Q-Chem warning in module libgen/rem_setup.C, line 2803:

 Neither GIA nor STOLL is specified by user. Use STOLL as the default


Checking the input file for inconsistencies... 	...done.

--------------------------------------------------------------
User input:
--------------------------------------------------------------
$comment
SSI-102HIE-269HIE-1.pdb
$end

$molecule
0 1
--
0 1
C   -3.983165266494    1.254036709520   -1.898628437785
C   -1.482165266494   -0.972963290480   -0.500628437785
C   -2.882165266494    0.605036709519   -1.110628437785
C   -2.165165266494    1.061036709520   -0.045628437785
N   -2.430165266494   -0.672963290480   -1.378628437785
N   -1.300165266494    0.066036709519    0.310371562215
H   -0.983165266494   -1.933963290480   -0.508628437785
H   -0.634165266494    0.117036709520    1.073371562215
H   -2.199165266494    2.000036709520    0.476371562215
H   -4.884165266494    1.210036709520   -1.288628437785
H   -4.130165266494    0.640036709519   -2.793628437785
H   -3.787695266494    2.290106709520   -2.212238437785
--
0 1
C    2.980834733506   -1.240963290481    2.659371562215
C    2.220834733506   -1.157963290480    0.167371562215
C    2.557834733506   -0.591963290480    1.361371562215
C    2.092834733506    1.025036709519   -0.065628437785
N    1.937834733506   -0.134963290481   -0.700628437785
N    2.467834733506    0.777036709519    1.183371562215
H    2.160834733506   -2.187963290480   -0.130628437785
H    1.660834733506   -0.249963290480   -1.663628437785
H    3.924834733506   -0.778963290480    2.950371562215
H    3.146834733506   -2.292963290480    2.445371562215
H    1.954834733506    2.035036709520   -0.434628437785
H    2.249294733506   -1.114083290481    3.471011562215
$end

$rem
JOBTYPE			EDA
EDA2			1
method			wB97X-V
BASIS			def2-TZVPD
XC_GRID			000099000590
NL_GRID			1
UNRESTRICTED		FALSE
MAX_SCF_CYCLES		200
SYMMETRY		FALSE
SYM_IGNORE		TRUE
MEM_STATIC		2000
BASIS_LIN_DEP_THRESH 	6
THRESH 			14
SCF_CONVERGENCE 	8
SCF_PRINT_FRGM 		TRUE
SOLVENT_METHOD          SMD
$end

$SMX
SOLVENT			WATER
$END
--------------------------------------------------------------
 ----------------------------------------------------------------
             Standard Nuclear Orientation (Angstroms)
    I     Atom           X                Y                Z
 ----------------------------------------------------------------
    1      C      -3.9831652665     1.2540367095    -1.8986284378
    2      C      -1.4821652665    -0.9729632905    -0.5006284378
    3      C      -2.8821652665     0.6050367095    -1.1106284378
    4      C      -2.1651652665     1.0610367095    -0.0456284378
    5      N      -2.4301652665    -0.6729632905    -1.3786284378
    6      N      -1.3001652665     0.0660367095     0.3103715622
    7      H      -0.9831652665    -1.9339632905    -0.5086284378
    8      H      -0.6341652665     0.1170367095     1.0733715622
    9      H      -2.1991652665     2.0000367095     0.4763715622
   10      H      -4.8841652665     1.2100367095    -1.2886284378
   11      H      -4.1301652665     0.6400367095    -2.7936284378
   12      H      -3.7876952665     2.2901067095    -2.2122384378
   13      C       2.9808347335    -1.2409632905     2.6593715622
   14      C       2.2208347335    -1.1579632905     0.1673715622
   15      C       2.5578347335    -0.5919632905     1.3613715622
   16      C       2.0928347335     1.0250367095    -0.0656284378
   17      N       1.9378347335    -0.1349632905    -0.7006284378
   18      N       2.4678347335     0.7770367095     1.1833715622
   19      H       2.1608347335    -2.1879632905    -0.1306284378
   20      H       1.6608347335    -0.2499632905    -1.6636284378
   21      H       3.9248347335    -0.7789632905     2.9503715622
   22      H       3.1468347335    -2.2929632905     2.4453715622
   23      H       1.9548347335     2.0350367095    -0.4346284378
   24      H       2.2492947335    -1.1140832905     3.4710115622
 ----------------------------------------------------------------
 Nuclear Repulsion Energy =         652.14102698 hartrees
 There are       44 alpha and       44 beta electrons
 Requested basis set is def2-TZVPD
 There are 216 shells and 552 basis functions

 Total QAlloc Memory Limit  96000 MB
 Mega-Array Size      1956 MB
 MEM_STATIC part      2000 MB
 
 Citation of the SMD model:
 Marenich, A.V.; Cramer, C.J.; Truhlar, D.G.
 J. Phys. Chem. B 2009, 113, 6378-6396.
 iSolventCode=           1
 Solvent: water                                                           
 
 vradii
            1           2           3           4           5           6
    1   1.8500000   1.8500000   1.8500000   1.8500000   1.8900000   1.8900000
            7           8           9          10          11          12
    1   1.2000000   1.2000000   1.2000000   1.2000000   1.2000000   1.2000000
           13          14          15          16          17          18
    1   1.8500000   1.8500000   1.8500000   1.8500000   1.8900000   1.8900000
           19          20          21          22          23          24
    1   1.2000000   1.2000000   1.2000000   1.2000000   1.2000000   1.2000000
 Changing PCM_VDW_RADII to SMD_RADIUS
 Discretize the solute cavity surface with Lebedev spheres
	Using 110 Lebedev grid points for each H atom
	Using 194 Lebedev grid points for other atoms
	Atomic van der Waals radii will be scaled by 1.20
 Remove points where switching function is < 1.0e-08
 Keep 1773 surface tesserae and discard 1875 interior tesserae
 Molecular Surface Area = 225.698 Angst**2
 A cutoff of  1.0D-14 yielded  20245 shell pairs
 There are    133085 function pairs (    169041 Cartesian)
 Smallest overlap matrix eigenvalue = 1.20E-06

 Scale SEOQF with 1.000000e-01/1.000000e-01/1.000000e-01

 Standard Electronic Orientation quadrupole field applied
 Nucleus-field energy     =     0.0000000095 hartrees

 -----------------------------------------------------------------------
  General SCF calculation program by
  Eric Jon Sundstrom, Paul Horn, Yuezhi Mao, Dmitri Zuev, Alec White,
  David Stuck, Shaama M.S., Shane Yost, Joonho Lee, David Small,
  Daniel Levine, Susi Lehtola, Hugh Burton, Evgeny Epifanovsky
 -----------------------------------------------------------------------
================================================================
                 ALMO-EDA with the EDA2 driver                  
================================================================
 The second-generation ALMO-EDA (for DFT):                      
 P. R. Horn, Y. Mao and M. Head-Gordon, PCCP, 18, 23067 (2016)  
 Decomposition of the frozen energy:                            
 P. R. Horn, Y. Mao and M. Head-Gordon, JCP, 144, 114107 (2016) 
 FERF model for polarization:                                   
 P. R. Horn and M. Head-Gordon, JCP, 143, 114111 (2015)         
Using eda2 option set 1
Option set summary: Frozen orbital wavefunction, initial wavefunction decomposition, and nDQ polarization.
--------------------------------
Printing EDA Options
--------------------------------
eda_child_super_basis      0
fragmo_guess_mode          0
child_mp                   1
child_mp_orders            232
cls_elec                   1
cls_disp                   0
scfmi_mode                 1
scfmi_occs                 0
scfmi_virts                0
frz_relax                  0
frz_relax_method           0
dc_pen_start               0
dc_pen_conv                0
dc_pen_increment           0
dc_pen_steps               0
dc_pen_thresh_factor       0
dc_pen_pre_newton_thresh   0
frz_ortho_decomp           1
frz_ortho_decomp_conv      6
frgm_method                2
scfmi_freeze_ss            0
separate_rehyb             0
plot_diff_den              0
eda_nocv                   0
eda_vct_relax              1
disp_free_x                0
disp_free_c                0
eda_bsse                   0
eda_pct_a                  0
eda_covp                   0
--------------------------------
Attempting to make child job directory: /tmp/qchem15214//Frg1/
Attempting to make child job directory: /tmp/qchem15214//Frg2/
Creating input file /tmp/qchem15214/Frg1.input
using default PutDataFrgm: nothing
calling putenv with: QCSCRATCH=/tmp/qchem15214/ 
calling putenv with: QCLOCALSCR=/tmp/qchem15214/ 
Spawning Job For Fragment 0
                  Welcome to Q-Chem
     A Quantum Leap Into The Future Of Chemistry


 Q-Chem 5.2, Q-Chem, Inc., Pleasanton, CA (2019)

 License issued to: National Energy Research Scientific Computing Center

 Yihan Shao,  Zhengting Gan,  E. Epifanovsky,  A. T. B. Gilbert,  M. Wormit,  
 J. Kussmann,  A. W. Lange,  A. Behn,  Jia Deng,  Xintian Feng,  D. Ghosh,  
 M. Goldey,  P. R. Horn,  L. D. Jacobson,  I. Kaliman,  T. Kus,  A. Landau,  
 Jie Liu,  E. I. Proynov,  R. M. Richard,  R. P. Steele,  E. J. Sundstrom,  
 H. L. Woodcock III,  P. M. Zimmerman,  D. Zuev,  B. Albrecht,  E. Alguire,  
 S. A. Baeppler,  D. Barton,  Z. Benda,  Y. A. Bernard,  E. J. Berquist,  
 K. B. Bravaya,  H. Burton,  D. Casanova,  Chun-Min Chang,  Yunqing Chen,  
 A. Chien,  K. D. Closser,  M. P. Coons,  S. Coriani,  S. Dasgupta,  
 A. L. Dempwolff,  M. Diedenhofen,  Hainam Do,  R. G. Edgar,  Po-Tung Fang,  
 S. Faraji,  S. Fatehi,  Qingguo Feng,  K. D. Fenk,  J. Fosso-Tande,  
 J. Gayvert,  Qinghui Ge,  A. Ghysels,  G. Gidofalvi,  J. Gomes,  
 J. Gonthier,  A. Gunina,  D. Hait,  M. W. D. Hanson-Heine,  
 P. H. P. Harbach,  A. W. Hauser,  M. F. Herbst,  J. E. Herr,  
 E. G. Hohenstein,  Z. C. Holden,  Kerwin Hui,  B. C. Huynh,  T.-C. Jagau,  
 Hyunjun Ji,  B. Kaduk,  K. Khistyaev,  Jaehoon Kim,  P. Klunzinger,  K. Koh,  
 D. Kosenkov,  L. Koulias,  T. Kowalczyk,  C. M. Krauter,  A. Kunitsa,  
 Ka Un Lao,  A. Laurent,  K. V. Lawler,  Joonho Lee,  D. Lefrancois,  
 S. Lehtola,  D. S. Levine,  Yi-Pei Li,  You-Sheng Lin,  Fenglai Liu,  
 E. Livshits,  A. Luenser,  P. Manohar,  E. Mansoor,  S. F. Manzer,  
 Shan-Ping Mao,  Yuezhi Mao,  N. Mardirossian,  A. V. Marenich,  
 T. Markovich,  L. A. Martinez-Martinez,  S. A. Maurer,  N. J. Mayhall,  
 S. C. McKenzie,  J.-M. Mewes,  P. Morgante,  A. F. Morrison,  
 J. W. Mullinax,  K. Nanda,  T. S. Nguyen-Beck,  R. Olivares-Amaya,  
 J. A. Parkhill,  Zheng Pei,  T. M. Perrine,  F. Plasser,  P. Pokhilko,  
 S. Prager,  A. Prociuk,  E. Ramos,  D. R. Rehn,  F. Rob,  M. Scheurer,  
 M. Schneider,  N. Sergueev,  S. M. Sharada,  S. Sharma,  D. W. Small,  
 T. Stauch,  T. Stein,  Yu-Chuan Su,  A. J. W. Thom,  A. Tkatchenko,  
 T. Tsuchimochi,  N. M. Tubman,  L. Vogt,  M. L. Vidal,  O. Vydrov,  
 M. A. Watson,  J. Wenzel,  M. de Wergifosse,  T. A. Wesolowski,  A. White,  
 J. Witte,  A. Yamada,  Jun Yang,  K. Yao,  S. Yeganeh,  S. R. Yost,  
 Zhi-Qiang You,  A. Zech,  Igor Ying Zhang,  Xing Zhang,  Yan Zhao,  
 Ying Zhu,  B. R. Brooks,  G. K. L. Chan,  C. J. Cramer,  M. S. Gordon,  
 W. J. Hehre,  A. Klamt,  M. W. Schmidt,  C. D. Sherrill,  D. G. Truhlar,  
 A. Aspuru-Guzik,  R. Baer,  A. T. Bell,  N. A. Besley,  Jeng-Da Chai,  
 A. E. DePrince, III,  R. A. DiStasio Jr.,  A. Dreuw,  B. D. Dunietz,  
 T. R. Furlani,  Chao-Ping Hsu,  Yousung Jung,  Jing Kong,  D. S. Lambrecht,  
 WanZhen Liang,  C. Ochsenfeld,  V. A. Rassolov,  L. V. Slipchenko,  
 J. E. Subotnik,  T. Van Voorhis,  J. M. Herbert,  A. I. Krylov,  
 P. M. W. Gill,  M. Head-Gordon

 Contributors to earlier versions of Q-Chem not listed above: 
 R. D. Adamson,  B. Austin,  J. Baker,  G. J. O. Beran,  K. Brandhorst,  
 S. T. Brown,  E. F. C. Byrd,  A. K. Chakraborty,  C.-L. Cheng,  
 Siu Hung Chien,  D. M. Chipman,  D. L. Crittenden,  H. Dachsel,  
 R. J. Doerksen,  A. D. Dutoi,  L. Fusti-Molnar,  W. A. Goddard III,  
 A. Golubeva-Zadorozhnaya,  S. R. Gwaltney,  G. Hawkins,  A. Heyden,  
 S. Hirata,  G. Kedziora,  F. J. Keil,  C. Kelley,  Jihan Kim,  R. A. King,  
 R. Z. Khaliullin,  P. P. Korambath,  W. Kurlancheek,  A. M. Lee,  M. S. Lee,  
 S. V. Levchenko,  Ching Yeh Lin,  D. Liotard,  R. C. Lochan,  I. Lotan,  
 P. E. Maslen,  N. Nair,  D. P. O'Neill,  D. Neuhauser,  E. Neuscamman,  
 C. M. Oana,  R. Olson,  B. Peters,  R. Peverati,  P. A. Pieniazek,  
 Y. M. Rhee,  J. Ritchie,  M. A. Rohrdanz,  E. Rosta,  N. J. Russ,  
 H. F. Schaefer III,  N. E. Schultz,  N. Shenvi,  A. C. Simmonett,  A. Sodt,  
 D. Stuck,  K. S. Thanthiriwatte,  V. Vanovschi,  Tao Wang,  A. Warshel,  
 C. F. Williams,  Q. Wu,  X. Xu,  W. Zhang

 Please cite Q-Chem as follows:
 Y. Shao et al., Mol. Phys. 113, 184-215 (2015)
 DOI: 10.1080/00268976.2014.952696

 Q-Chem 5.2.0 for Intel X86 EM64T Linux

 Parts of Q-Chem use Armadillo 8.300.2 (Tropical Shenanigans).
 http://arma.sourceforge.net/

 Q-Chem begins on Sun Sep 26 13:04:39 2021  

Host: cori01
0

     Scratch files written to /tmp/qchem15214//Frg1//
 May1019 |scratch|qcdevops|jenkins|workspace|build_RNUM -1
Processing $rem in /global/common/cori/software/qchem/5.2/config/preferences:
	 MEM_TOTAL  96000 
NAlpha2: 44
NElect   44
Mult     1
Symmetry turned off for PCM/SM12/SMD calculation

Checking the input file for inconsistencies... 	...done.

--------------------------------------------------------------
User input:
--------------------------------------------------------------
$molecule
0 1
 6	-3.9831652665	1.2540367095	-1.8986284378
 6	-1.4821652665	-0.9729632905	-0.5006284378
 6	-2.8821652665	0.6050367095	-1.1106284378
 6	-2.1651652665	1.0610367095	-0.0456284378
 7	-2.4301652665	-0.6729632905	-1.3786284378
 7	-1.3001652665	0.0660367095	0.3103715622
 1	-0.9831652665	-1.9339632905	-0.5086284378
 1	-0.6341652665	0.1170367095	1.0733715622
 1	-2.1991652665	2.0000367095	0.4763715622
 1	-4.8841652665	1.2100367095	-1.2886284378
 1	-4.1301652665	0.6400367095	-2.7936284378
 1	-3.7876952665	2.2901067095	-2.2122384378
$end
$rem
EDA2		1
METHOD		WB97X-V
BASIS		DEF2-TZVPD
XC_GRID		000099000590
NL_GRID		1
UNRESTRICTED		FALSE
MAX_SCF_CYCLES		200
SYMMETRY		FALSE
SYM_IGNORE		TRUE
BASIS_LIN_DEP_THRESH		6
THRESH		14
SCF_CONVERGENCE		8
SCF_PRINT_FRGM		TRUE
SOLVENT_METHOD		SMD
!required keywords
JOBTYPE		SP
SYM_IGNORE		TRUE
SUBSYSTEM		TRUE
GEN_SCFMAN		TRUE
CHILD_INSTRUCTION		2
SYM_IGNORE		TRUE
SCFMI		0
RI_K 0		
PARI_K 0		
MIN_PARI_K 0		
IARI_K 0		
OCC_RI_K 0		
PURECART		1111
MEM_STATIC		2000
MEM_TOTAL		96000
GUI		0
CHILD_MP		1
CHILD_MP_ORDERS		232
FRZ_RELAX		0
FRZ_RELAX_METHOD		0
EDA_CLS_ELEC		1
EDA_CLS_DISP		0
FRZ_ORTHO_DECOMP		1
EDA2		FALSE
FRGM_METHOD		FALSE
CIS_N_ROOTS  0
LOCAL_CIS    0
CIS_RLX_DNS  1
$end
$smx
SOLVENT			WATER
$end
--------------------------------------------------------------
 ----------------------------------------------------------------
             Standard Nuclear Orientation (Angstroms)
    I     Atom           X                Y                Z
 ----------------------------------------------------------------
    1      C      -3.9831652665     1.2540367095    -1.8986284378
    2      C      -1.4821652665    -0.9729632905    -0.5006284378
    3      C      -2.8821652665     0.6050367095    -1.1106284378
    4      C      -2.1651652665     1.0610367095    -0.0456284378
    5      N      -2.4301652665    -0.6729632905    -1.3786284378
    6      N      -1.3001652665     0.0660367095     0.3103715622
    7      H      -0.9831652665    -1.9339632905    -0.5086284378
    8      H      -0.6341652665     0.1170367095     1.0733715622
    9      H      -2.1991652665     2.0000367095     0.4763715622
   10      H      -4.8841652665     1.2100367095    -1.2886284378
   11      H      -4.1301652665     0.6400367095    -2.7936284378
   12      H      -3.7876952665     2.2901067095    -2.2122384378
 ----------------------------------------------------------------
 Nuclear Repulsion Energy =         224.78975855 hartrees
 There are       22 alpha and       22 beta electrons
 Requested basis set is def2-TZVPD
 There are 108 shells and 276 basis functions

 Total QAlloc Memory Limit  96000 MB
 Mega-Array Size      1956 MB
 MEM_STATIC part      2000 MB
 
 Citation of the SMD model:
 Marenich, A.V.; Cramer, C.J.; Truhlar, D.G.
 J. Phys. Chem. B 2009, 113, 6378-6396.
 iSolventCode=           1
 Solvent: water                                                           
 
 vradii
            1           2           3           4           5           6
    1   1.8500000   1.8500000   1.8500000   1.8500000   1.8900000   1.8900000
            7           8           9          10          11          12
    1   1.2000000   1.2000000   1.2000000   1.2000000   1.2000000   1.2000000
 Changing PCM_VDW_RADII to SMD_RADIUS
 Discretize the solute cavity surface with Lebedev spheres
	Using 110 Lebedev grid points for each H atom
	Using 194 Lebedev grid points for other atoms
	Atomic van der Waals radii will be scaled by 1.20
 Remove points where switching function is < 1.0e-08
 Keep 883 surface tesserae and discard 941 interior tesserae
 Molecular Surface Area = 116.063 Angst**2

                       Distance Matrix (Angstroms)
             C (  1)   C (  2)   C (  3)   C (  4)   N (  5)   N (  6)
   C (  2)  3.628903
   C (  3)  1.501448  2.195947
   C (  4)  2.603072  2.193324  1.362443
   N (  5)  2.528940  1.326495  1.381815  2.203150
   N (  6)  3.672807  1.330551  2.193738  1.365645  2.162346
   H (  7)  4.592978  1.082860  3.227247  3.252925  2.107328  2.184319
   H (  8)  4.619670  2.093963  3.171987  2.118315  3.140385  1.014064
   H (  9)  3.062645  3.210506  2.220604  1.074877  3.261796  2.139185
   H ( 10)  1.088961  4.118257  2.098979  2.993361  3.094496  4.087859
   H ( 11)  1.095276  3.856361  2.095523  3.404405  2.572196  4.239480
   H ( 12)  1.100000  4.346574  2.207485  2.972779  3.364161  4.183044
             H (  7)   H (  8)   H (  9)   H ( 10)   H ( 11)
   H (  8)  2.613642
   H (  9)  4.233821  2.520183
   H ( 10)  5.070595  4.983592  3.308859
   H ( 11)  4.663723  5.239202  4.033765  1.777200
   H ( 12)  5.348873  5.046010  3.136270  1.794952  1.782703
 
 A cutoff of  1.0D-14 yielded   5734 shell pairs
 There are     38174 function pairs (     48953 Cartesian)
 Smallest overlap matrix eigenvalue = 1.49E-06

 Scale SEOQF with 1.000000e-01/1.000000e-01/1.000000e-01

 Standard Electronic Orientation quadrupole field applied
 Nucleus-field energy     =     0.0000000073 hartrees
 Guess from superposition of atomic densities
 Warning:  Energy on first SCF cycle will be non-variational
 SAD guess density has 43.559167 electrons

 -----------------------------------------------------------------------
  General SCF calculation program by
  Eric Jon Sundstrom, Paul Horn, Yuezhi Mao, Dmitri Zuev, Alec White,
  David Stuck, Shaama M.S., Shane Yost, Joonho Lee, David Small,
  Daniel Levine, Susi Lehtola, Hugh Burton, Evgeny Epifanovsky
 -----------------------------------------------------------------------
 Exchange:     0.1670 Hartree-Fock + 1.0000 wB97X-V + LR-HF
 Correlation:  1.0000 wB97X-V
 Using Euler-Maclaurin-Lebedev (99,590) quadrature formula
 Nonlocal Correlation:  VV10 with C = 0.0100 and b = 6.00 and scale = 1.00000
 Grid used for NLC:  SG-1 standard quadrature
Energy prior to optimization (guess energy) = -265.145778166919
Begin Timing: Total SCF Calculation
begin iterations for algorithm: DIIS         
the SCF tolerance is set to 1.00e-08
    1    -265.1457781669      7.20e-03     00000 
    2    -265.1096301423      7.33e-03     00000 
    3    -265.5666060394      7.19e-04     00000 
    4    -265.5712082212      3.74e-04     00000 
    5    -265.5725722029      1.11e-04     00000 
    6    -265.5727282320      4.15e-05     00000 
    7    -265.5727523861      1.17e-05     00000 
    8    -265.5727549918      3.45e-06     00000 
    9    -265.5727552897      1.68e-06     00000 
   10    -265.5727553434      4.13e-07     00000 
   11    -265.5727553490      8.39e-08     00000 
   12    -265.5727553493      4.54e-08     00000 
   13    -265.5727553493      1.21e-08     00000 
   14    -265.5727553493      4.94e-09     00000 Convergence criterion met
Timing for Total SCF: 983.00s (wall), 1952.99s (cpu)
(3)  G-ENP(liq) elect-nuc-pol free energy of system     -265.572755349 a.u.
(4)  G-CDS(liq) cavity-dispersion-solvent structure 
     free energy                                                2.1869 kcal/mol
(6)  G-S(liq) free energy of system                     -265.569270323 a.u.
E_pcm = -0.0221832283
E_cds = 0.0034850262
Multipole orders to be included
        2
        3
computing dipole RHS
computing quadrupole RHS
total number of RHS in solve_reponses: 8
RHS batch sizes
        8
Beginning Block Conjugate Gradient Iterations. Batch Number: 0
computing hessian-vector products by finite difference
              1      6.02e-01     00000 Conjugate Gradient Iteration
computing hessian-vector products by finite difference
              2      1.87e-01     00000 Conjugate Gradient Iteration
computing hessian-vector products by finite difference
              3      4.67e-02     00000 Conjugate Gradient Iteration
computing hessian-vector products by finite difference
              4      1.37e-02     00000 Conjugate Gradient Iteration
computing hessian-vector products by finite difference
              5      2.67e-03     00000 Conjugate Gradient Iteration
computing hessian-vector products by finite difference
              6      4.67e-04     00000 Conjugate Gradient Iteration
computing hessian-vector products by finite difference
              7      8.87e-05     00000 Conjugate Gradient Iteration
computing hessian-vector products by finite difference
              8      1.62e-05     00000 Conjugate Gradient Iteration
computing hessian-vector products by finite difference
              9      2.55e-06     00000 Conjugate Gradient Iteration
computing hessian-vector products by finite difference
             10      3.85e-07     00000 Conjugate Gradient Iteration
computing hessian-vector products by finite difference
             11      6.66e-08     00000 Conjugate Gradient Iteration
computing hessian-vector products by finite difference
             12      9.05e-09     00000 CG Converged
batch 0 complete
Done Calculating Responses
TESTING ORTHOGONALIZATION OF MULTIPOLE BASIS
Multipole virts passed orthogonality test
Virts Per Order
           66
          110
 
 --------------------------------------------------------------
 
                    Orbital Energies (a.u.)
 --------------------------------------------------------------
 
 Alpha MOs
 -- Occupied --
-14.4587 -14.3861 -10.3152 -10.2834 -10.2812 -10.2571  -1.1529  -0.9946
 -0.8941  -0.8216  -0.7215  -0.6873  -0.6591  -0.5629  -0.5524  -0.5375
 -0.5102  -0.4903  -0.4746  -0.3785  -0.3780  -0.3189
 -- Virtual --
  0.0693   0.0879   0.0974   0.1070   0.1185   0.1314   0.1374   0.1441
  0.1717   0.1748   0.1834   0.1882   0.1993   0.2039   0.2218   0.2460
  0.2500   0.2582   0.2595   0.2617   0.2680   0.2931   0.2986   0.3073
  0.3127   0.3182   0.3258   0.3282   0.3390   0.3444   0.3511   0.3569
  0.3594   0.3662   0.3819   0.3872   0.3949   0.4024   0.4124   0.4236
  0.4280   0.4284   0.4417   0.4485   0.4654   0.4711   0.4770   0.4804
  0.4890   0.4935   0.4968   0.5126   0.5136   0.5430   0.5560   0.5582
  0.5690   0.5767   0.5846   0.5948   0.6056   0.6123   0.6249   0.6287
  0.6508   0.6579   0.6683   0.6835   0.6984   0.7057   0.7146   0.7284
  0.7347   0.7460   0.7623   0.7769   0.7806   0.7846   0.7892   0.8023
  0.8123   0.8275   0.8379   0.8443   0.8697   0.8842   0.8982   0.9078
  0.9167   0.9366   0.9551   0.9779   0.9995   1.0190   1.0275   1.0396
  1.0552   1.0682   1.0801   1.0951   1.1240   1.1709   1.1877   1.2208
  1.2318   1.2523   1.2720   1.3275   1.3479   1.3633   1.4007   1.4366
  1.4510   1.4607   1.5312   1.5499   1.6051   1.6242   1.6673   1.6832
  1.6989   1.7426   1.8053   1.8323   1.8473   1.8666   1.8767   1.8812
  1.8994   1.9272   1.9435   1.9606   1.9772   1.9947   2.0054   2.0116
  2.0315   2.0615   2.0971   2.1455   2.2005   2.2287   2.2374   2.2754
  2.3043   2.3212   2.4026   2.4146   2.4229   2.4603   2.4707   2.5091
  2.5237   2.5660   2.5816   2.6196   2.6491   2.6735   2.6891   2.7217
  2.7676   2.7842   2.8053   2.8508   2.8627   2.8984   2.9093   2.9741
  3.0120   3.0284   3.0480   3.0722   3.0921   3.1055   3.1462   3.1750
  3.1836   3.2102   3.2242   3.2534   3.2868   3.3189   3.3255   3.3378
  3.3530   3.3728   3.3801   3.4023   3.4201   3.4424   3.4743   3.4950
  3.5097   3.5154   3.5886   3.6078   3.6299   3.6546   3.6772   3.7316
  3.7502   3.7924   3.8224   3.8713   3.9159   3.9451   3.9704   4.0402
  4.0834   4.1174   4.1297   4.2631   4.2935   4.3628   4.4208   4.4609
  4.5092   4.5993   4.6176   4.7377   4.7787   4.8267   4.8324   4.8772
  4.9386   4.9665   5.0393   5.0424   5.0548   5.1059   5.1688   5.1999
  5.2337   5.3053   5.3776   5.4550   5.4877   5.5377   5.5866   5.6070
  5.6713   5.6971   5.7562   5.7947   5.8770   6.0437   6.2492   6.2845
 22.6182  22.8984  23.1363  23.3820  32.6442  32.7583
 --------------------------------------------------------------
 
          Ground-State Mulliken Net Atomic Charges

     Atom                 Charge (a.u.)
  ----------------------------------------
      1 C                    -0.813440
      2 C                    -0.265797
      3 C                     0.523922
      4 C                    -0.597669
      5 N                    -0.517995
      6 N                     0.076230
      7 H                     0.346706
      8 H                     0.199410
      9 H                     0.318263
     10 H                     0.212034
     11 H                     0.243628
     12 H                     0.274707
  ----------------------------------------
  Sum of atomic charges =     0.000000

 -----------------------------------------------------------------
                    Cartesian Multipole Moments
 -----------------------------------------------------------------
    Charge (ESU x 10^10)
                 0.0000
    Dipole Moment (Debye)
         X       2.5005      Y       1.8226      Z       3.9630
       Tot       5.0279
    Quadrupole Moments (Debye-Ang)
        XX     -43.2436     XY      -7.8898     YY     -33.5001
        XZ      -5.9377     YZ      -2.7231     ZZ     -39.8652
    Octopole Moments (Debye-Ang^2)
       XXX     279.1187    XXY      15.7191    XYY      86.0032
       YYY     -25.6796    XXZ      40.1030    XYZ      10.9159
       YYZ      32.1719    XZZ      98.5652    YZZ      -0.6990
       ZZZ     100.2617
    Hexadecapole Moments (Debye-Ang^3)
      XXXX   -1565.4071   XXXY      57.0853   XXYY    -299.0226
      XYYY     112.1709   YYYY    -220.6223   XXXZ    -312.2138
      XXYZ     -22.9808   XYYZ    -104.5332   YYYZ      34.4202
      XXZZ    -337.4028   XYZZ      20.0288   YYZZ    -101.0383
      XZZZ    -311.2151   YZZZ      21.4148   ZZZZ    -358.8864
 -----------------------------------------------------------------
Archival summary:
1\1\nid00524\SP\ProcedureUnspecified\BasisUnspecified\246\meili\SunSep2617:38:052021SunSep2617:38:052021\0\\#,ProcedureUnspecified,BasisUnspecified,\\0,1\N\C,1,1.32649\H,2,1.08286,1,121.678\N,2,1.33055,1,108.941,3,-179.987,0\H,4,1.01406,2,125.996,1,-179.688,0\C,4,1.36564,2,108.869,1,0.623338,0\H,6,1.07488,4,122.001,2,179.788,0\C,6,1.36244,4,107.053,2,-0.406301,0\C,8,1.50145,6,130.653,4,178.862,0\H,9,1.08896,8,107.173,6,-75.5164,0\H,9,1.09528,8,106.557,6,168.015,0\H,9,1.1,8,115.242,6,47.4865,0\\\@

 Total job time:  16408.07s(wall), 32223.35s(cpu) 
 Sun Sep 26 17:38:07 2021

        *************************************************************
        *                                                           *
        *  Thank you very much for using Q-Chem.  Have a nice day.  *
        *                                                           *
        *************************************************************


Done Job For Fragment 0
calling putenv with: QCSCRATCH=/global/cscratch1/sd/meili 
calling putenv with: QCLOCALSCR=/tmp 
calling putenv with: QCTHREADS=32 
Creating input file /tmp/qchem15214/Frg2.input
using default PutDataFrgm: nothing
calling putenv with: QCSCRATCH=/tmp/qchem15214/ 
calling putenv with: QCLOCALSCR=/tmp/qchem15214/ 
Spawning Job For Fragment 1
                  Welcome to Q-Chem
     A Quantum Leap Into The Future Of Chemistry


 Q-Chem 5.2, Q-Chem, Inc., Pleasanton, CA (2019)

 License issued to: National Energy Research Scientific Computing Center

 Yihan Shao,  Zhengting Gan,  E. Epifanovsky,  A. T. B. Gilbert,  M. Wormit,  
 J. Kussmann,  A. W. Lange,  A. Behn,  Jia Deng,  Xintian Feng,  D. Ghosh,  
 M. Goldey,  P. R. Horn,  L. D. Jacobson,  I. Kaliman,  T. Kus,  A. Landau,  
 Jie Liu,  E. I. Proynov,  R. M. Richard,  R. P. Steele,  E. J. Sundstrom,  
 H. L. Woodcock III,  P. M. Zimmerman,  D. Zuev,  B. Albrecht,  E. Alguire,  
 S. A. Baeppler,  D. Barton,  Z. Benda,  Y. A. Bernard,  E. J. Berquist,  
 K. B. Bravaya,  H. Burton,  D. Casanova,  Chun-Min Chang,  Yunqing Chen,  
 A. Chien,  K. D. Closser,  M. P. Coons,  S. Coriani,  S. Dasgupta,  
 A. L. Dempwolff,  M. Diedenhofen,  Hainam Do,  R. G. Edgar,  Po-Tung Fang,  
 S. Faraji,  S. Fatehi,  Qingguo Feng,  K. D. Fenk,  J. Fosso-Tande,  
 J. Gayvert,  Qinghui Ge,  A. Ghysels,  G. Gidofalvi,  J. Gomes,  
 J. Gonthier,  A. Gunina,  D. Hait,  M. W. D. Hanson-Heine,  
 P. H. P. Harbach,  A. W. Hauser,  M. F. Herbst,  J. E. Herr,  
 E. G. Hohenstein,  Z. C. Holden,  Kerwin Hui,  B. C. Huynh,  T.-C. Jagau,  
 Hyunjun Ji,  B. Kaduk,  K. Khistyaev,  Jaehoon Kim,  P. Klunzinger,  K. Koh,  
 D. Kosenkov,  L. Koulias,  T. Kowalczyk,  C. M. Krauter,  A. Kunitsa,  
 Ka Un Lao,  A. Laurent,  K. V. Lawler,  Joonho Lee,  D. Lefrancois,  
 S. Lehtola,  D. S. Levine,  Yi-Pei Li,  You-Sheng Lin,  Fenglai Liu,  
 E. Livshits,  A. Luenser,  P. Manohar,  E. Mansoor,  S. F. Manzer,  
 Shan-Ping Mao,  Yuezhi Mao,  N. Mardirossian,  A. V. Marenich,  
 T. Markovich,  L. A. Martinez-Martinez,  S. A. Maurer,  N. J. Mayhall,  
 S. C. McKenzie,  J.-M. Mewes,  P. Morgante,  A. F. Morrison,  
 J. W. Mullinax,  K. Nanda,  T. S. Nguyen-Beck,  R. Olivares-Amaya,  
 J. A. Parkhill,  Zheng Pei,  T. M. Perrine,  F. Plasser,  P. Pokhilko,  
 S. Prager,  A. Prociuk,  E. Ramos,  D. R. Rehn,  F. Rob,  M. Scheurer,  
 M. Schneider,  N. Sergueev,  S. M. Sharada,  S. Sharma,  D. W. Small,  
 T. Stauch,  T. Stein,  Yu-Chuan Su,  A. J. W. Thom,  A. Tkatchenko,  
 T. Tsuchimochi,  N. M. Tubman,  L. Vogt,  M. L. Vidal,  O. Vydrov,  
 M. A. Watson,  J. Wenzel,  M. de Wergifosse,  T. A. Wesolowski,  A. White,  
 J. Witte,  A. Yamada,  Jun Yang,  K. Yao,  S. Yeganeh,  S. R. Yost,  
 Zhi-Qiang You,  A. Zech,  Igor Ying Zhang,  Xing Zhang,  Yan Zhao,  
 Ying Zhu,  B. R. Brooks,  G. K. L. Chan,  C. J. Cramer,  M. S. Gordon,  
 W. J. Hehre,  A. Klamt,  M. W. Schmidt,  C. D. Sherrill,  D. G. Truhlar,  
 A. Aspuru-Guzik,  R. Baer,  A. T. Bell,  N. A. Besley,  Jeng-Da Chai,  
 A. E. DePrince, III,  R. A. DiStasio Jr.,  A. Dreuw,  B. D. Dunietz,  
 T. R. Furlani,  Chao-Ping Hsu,  Yousung Jung,  Jing Kong,  D. S. Lambrecht,  
 WanZhen Liang,  C. Ochsenfeld,  V. A. Rassolov,  L. V. Slipchenko,  
 J. E. Subotnik,  T. Van Voorhis,  J. M. Herbert,  A. I. Krylov,  
 P. M. W. Gill,  M. Head-Gordon

 Contributors to earlier versions of Q-Chem not listed above: 
 R. D. Adamson,  B. Austin,  J. Baker,  G. J. O. Beran,  K. Brandhorst,  
 S. T. Brown,  E. F. C. Byrd,  A. K. Chakraborty,  C.-L. Cheng,  
 Siu Hung Chien,  D. M. Chipman,  D. L. Crittenden,  H. Dachsel,  
 R. J. Doerksen,  A. D. Dutoi,  L. Fusti-Molnar,  W. A. Goddard III,  
 A. Golubeva-Zadorozhnaya,  S. R. Gwaltney,  G. Hawkins,  A. Heyden,  
 S. Hirata,  G. Kedziora,  F. J. Keil,  C. Kelley,  Jihan Kim,  R. A. King,  
 R. Z. Khaliullin,  P. P. Korambath,  W. Kurlancheek,  A. M. Lee,  M. S. Lee,  
 S. V. Levchenko,  Ching Yeh Lin,  D. Liotard,  R. C. Lochan,  I. Lotan,  
 P. E. Maslen,  N. Nair,  D. P. O'Neill,  D. Neuhauser,  E. Neuscamman,  
 C. M. Oana,  R. Olson,  B. Peters,  R. Peverati,  P. A. Pieniazek,  
 Y. M. Rhee,  J. Ritchie,  M. A. Rohrdanz,  E. Rosta,  N. J. Russ,  
 H. F. Schaefer III,  N. E. Schultz,  N. Shenvi,  A. C. Simmonett,  A. Sodt,  
 D. Stuck,  K. S. Thanthiriwatte,  V. Vanovschi,  Tao Wang,  A. Warshel,  
 C. F. Williams,  Q. Wu,  X. Xu,  W. Zhang

 Please cite Q-Chem as follows:
 Y. Shao et al., Mol. Phys. 113, 184-215 (2015)
 DOI: 10.1080/00268976.2014.952696

 Q-Chem 5.2.0 for Intel X86 EM64T Linux

 Parts of Q-Chem use Armadillo 8.300.2 (Tropical Shenanigans).
 http://arma.sourceforge.net/

 Q-Chem begins on Sun Sep 26 17:38:11 2021  

Host: cori01
0

     Scratch files written to /tmp/qchem15214//Frg2//
 May1019 |scratch|qcdevops|jenkins|workspace|build_RNUM -1
Processing $rem in /global/common/cori/software/qchem/5.2/config/preferences:
	 MEM_TOTAL  96000 
NAlpha2: 44
NElect   44
Mult     1
Symmetry turned off for PCM/SM12/SMD calculation

Checking the input file for inconsistencies... 	...done.

--------------------------------------------------------------
User input:
--------------------------------------------------------------
$molecule
0 1
 6	2.9808347335	-1.2409632905	2.6593715622
 6	2.2208347335	-1.1579632905	0.1673715622
 6	2.5578347335	-0.5919632905	1.3613715622
 6	2.0928347335	1.0250367095	-0.0656284378
 7	1.9378347335	-0.1349632905	-0.7006284378
 7	2.4678347335	0.7770367095	1.1833715622
 1	2.1608347335	-2.1879632905	-0.1306284378
 1	1.6608347335	-0.2499632905	-1.6636284378
 1	3.9248347335	-0.7789632905	2.9503715622
 1	3.1468347335	-2.2929632905	2.4453715622
 1	1.9548347335	2.0350367095	-0.4346284378
 1	2.2492947335	-1.1140832905	3.4710115622
$end
$rem
EDA2		1
METHOD		WB97X-V
BASIS		DEF2-TZVPD
XC_GRID		000099000590
NL_GRID		1
UNRESTRICTED		FALSE
MAX_SCF_CYCLES		200
SYMMETRY		FALSE
SYM_IGNORE		TRUE
BASIS_LIN_DEP_THRESH		6
THRESH		14
SCF_CONVERGENCE		8
SCF_PRINT_FRGM		TRUE
SOLVENT_METHOD		SMD
!required keywords
JOBTYPE		SP
SYM_IGNORE		TRUE
SUBSYSTEM		TRUE
GEN_SCFMAN		TRUE
CHILD_INSTRUCTION		2
SYM_IGNORE		TRUE
SCFMI		0
RI_K 0		
PARI_K 0		
MIN_PARI_K 0		
IARI_K 0		
OCC_RI_K 0		
PURECART		1111
MEM_STATIC		2000
MEM_TOTAL		96000
GUI		0
CHILD_MP		1
CHILD_MP_ORDERS		232
FRZ_RELAX		0
FRZ_RELAX_METHOD		0
EDA_CLS_ELEC		1
EDA_CLS_DISP		0
FRZ_ORTHO_DECOMP		1
EDA2		FALSE
FRGM_METHOD		FALSE
CIS_N_ROOTS  0
LOCAL_CIS    0
CIS_RLX_DNS  1
$end
$smx
SOLVENT			WATER
$end
--------------------------------------------------------------
 ----------------------------------------------------------------
             Standard Nuclear Orientation (Angstroms)
    I     Atom           X                Y                Z
 ----------------------------------------------------------------
    1      C       2.9808347335    -1.2409632905     2.6593715622
    2      C       2.2208347335    -1.1579632905     0.1673715622
    3      C       2.5578347335    -0.5919632905     1.3613715622
    4      C       2.0928347335     1.0250367095    -0.0656284378
    5      N       1.9378347335    -0.1349632905    -0.7006284378
    6      N       2.4678347335     0.7770367095     1.1833715622
    7      H       2.1608347335    -2.1879632905    -0.1306284378
    8      H       1.6608347335    -0.2499632905    -1.6636284378
    9      H       3.9248347335    -0.7789632905     2.9503715622
   10      H       3.1468347335    -2.2929632905     2.4453715622
   11      H       1.9548347335     2.0350367095    -0.4346284378
   12      H       2.2492947335    -1.1140832905     3.4710115622
 ----------------------------------------------------------------
 Nuclear Repulsion Energy =         224.36752056 hartrees
 There are       22 alpha and       22 beta electrons
 Requested basis set is def2-TZVPD
 There are 108 shells and 276 basis functions

 Total QAlloc Memory Limit  96000 MB
 Mega-Array Size      1956 MB
 MEM_STATIC part      2000 MB
 
 Citation of the SMD model:
 Marenich, A.V.; Cramer, C.J.; Truhlar, D.G.
 J. Phys. Chem. B 2009, 113, 6378-6396.
 iSolventCode=           1
 Solvent: water                                                           
 
 vradii
            1           2           3           4           5           6
    1   1.8500000   1.8500000   1.8500000   1.8500000   1.8900000   1.8900000
            7           8           9          10          11          12
    1   1.2000000   1.2000000   1.2000000   1.2000000   1.2000000   1.2000000
 Changing PCM_VDW_RADII to SMD_RADIUS
 Discretize the solute cavity surface with Lebedev spheres
	Using 110 Lebedev grid points for each H atom
	Using 194 Lebedev grid points for other atoms
	Atomic van der Waals radii will be scaled by 1.20
 Remove points where switching function is < 1.0e-08
 Keep 896 surface tesserae and discard 928 interior tesserae
 Molecular Surface Area = 116.418 Angst**2

                       Distance Matrix (Angstroms)
             C (  1)   C (  2)   C (  3)   C (  4)   N (  5)   N (  6)
   C (  2)  2.606636
   C (  3)  1.511600  1.363657
   C (  4)  3.653618  2.199128  2.206183
   N (  5)  3.687911  1.371146  2.201157  1.331484
   N (  6)  2.552267  2.199429  1.383454  1.327452  2.159190
   H (  7)  3.058318  1.073920  2.220561  3.214377  2.142297  3.257617
   H (  8)  4.627398  2.119109  3.173673  2.089462  1.008624  3.132313
   H (  9)  1.090532  3.285171  2.104419  3.963193  4.206270  2.768804
   H ( 10)  1.086304  2.708318  2.101280  4.292454  4.001995  3.388006
   H ( 11)  4.621438  3.260124  3.238882  1.084115  2.186309  2.112737
   H ( 12)  1.100004  3.304054  2.195082  4.136198  4.296308  2.976137
             H (  7)   H (  8)   H (  9)   H ( 10)   H ( 11)
   H (  8)  2.521098
   H (  9)  3.819625  5.166675
   H ( 10)  2.760253  4.823477  1.775529
   H ( 11)  4.238936  2.611150  4.822626  5.333559
   H ( 12)  3.759369  5.239992  1.786283  1.802019  5.025703
 
 A cutoff of  1.0D-14 yielded   5737 shell pairs
 There are     38177 function pairs (     48959 Cartesian)
 Smallest overlap matrix eigenvalue = 1.52E-06

 Scale SEOQF with 1.000000e-01/1.000000e-01/1.000000e-01

 Standard Electronic Orientation quadrupole field applied
 Nucleus-field energy     =     0.0000000022 hartrees
 Guess from superposition of atomic densities
 Warning:  Energy on first SCF cycle will be non-variational
 SAD guess density has 43.559167 electrons

 -----------------------------------------------------------------------
  General SCF calculation program by
  Eric Jon Sundstrom, Paul Horn, Yuezhi Mao, Dmitri Zuev, Alec White,
  David Stuck, Shaama M.S., Shane Yost, Joonho Lee, David Small,
  Daniel Levine, Susi Lehtola, Hugh Burton, Evgeny Epifanovsky
 -----------------------------------------------------------------------
 Exchange:     0.1670 Hartree-Fock + 1.0000 wB97X-V + LR-HF
 Correlation:  1.0000 wB97X-V
 Using Euler-Maclaurin-Lebedev (99,590) quadrature formula
 Nonlocal Correlation:  VV10 with C = 0.0100 and b = 6.00 and scale = 1.00000
 Grid used for NLC:  SG-1 standard quadrature
Energy prior to optimization (guess energy) = -265.142664540531
Begin Timing: Total SCF Calculation
begin iterations for algorithm: DIIS         
the SCF tolerance is set to 1.00e-08
    1    -265.1426645405      7.23e-03     00000 
    2    -265.1010508043      7.39e-03     00000 
    3    -265.5672172013      7.30e-04     00000 
    4    -265.5719342064      3.81e-04     00000 
    5    -265.5733487415      1.12e-04     00000 
    6    -265.5735075668      4.18e-05     00000 
    7    -265.5735321692      1.17e-05     00000 
    8    -265.5735347828      3.42e-06     00000 
    9    -265.5735350767      1.68e-06     00000 
   10    -265.5735351289      4.00e-07     00000 
   11    -265.5735351341      7.80e-08     00000 
   12    -265.5735351343      4.12e-08     00000 
   13    -265.5735351343      1.11e-08     00000 
   14    -265.5735351343      4.49e-09     00000 Convergence criterion met
Timing for Total SCF: 962.00s (wall), 1912.07s (cpu)
(3)  G-ENP(liq) elect-nuc-pol free energy of system     -265.573535134 a.u.
(4)  G-CDS(liq) cavity-dispersion-solvent structure 
     free energy                                                2.1274 kcal/mol
(6)  G-S(liq) free energy of system                     -265.570144954 a.u.
E_pcm = -0.0227297087
E_cds = 0.0033901801
Multipole orders to be included
        2
        3
computing dipole RHS
computing quadrupole RHS
total number of RHS in solve_reponses: 8
RHS batch sizes
        8
Beginning Block Conjugate Gradient Iterations. Batch Number: 0
computing hessian-vector products by finite difference
              1      6.44e-01     00000 Conjugate Gradient Iteration
computing hessian-vector products by finite difference
              2      1.98e-01     00000 Conjugate Gradient Iteration
computing hessian-vector products by finite difference
              3      5.38e-02     00000 Conjugate Gradient Iteration
computing hessian-vector products by finite difference
              4      1.59e-02     00000 Conjugate Gradient Iteration
computing hessian-vector products by finite difference
              5      2.97e-03     00000 Conjugate Gradient Iteration
computing hessian-vector products by finite difference
              6      5.74e-04     00000 Conjugate Gradient Iteration
computing hessian-vector products by finite difference
              7      1.07e-04     00000 Conjugate Gradient Iteration
computing hessian-vector products by finite difference
              8      1.93e-05     00000 Conjugate Gradient Iteration
computing hessian-vector products by finite difference
              9      3.02e-06     00000 Conjugate Gradient Iteration
computing hessian-vector products by finite difference
             10      4.24e-07     00000 Conjugate Gradient Iteration
computing hessian-vector products by finite difference
             11      6.08e-08     00000 Conjugate Gradient Iteration
computing hessian-vector products by finite difference
             12      9.50e-09     00000 CG Converged
batch 0 complete
Done Calculating Responses
TESTING ORTHOGONALIZATION OF MULTIPOLE BASIS
Multipole virts passed orthogonality test
Virts Per Order
           66
          110
 
 --------------------------------------------------------------
 
                    Orbital Energies (a.u.)
 --------------------------------------------------------------
 
 Alpha MOs
 -- Occupied --
-14.4580 -14.3855 -10.3170 -10.2849 -10.2831 -10.2585  -1.1517  -0.9932
 -0.8944  -0.8214  -0.7220  -0.6871  -0.6593  -0.5617  -0.5522  -0.5377
 -0.5089  -0.4929  -0.4777  -0.3766  -0.3761  -0.3211
 -- Virtual --
  0.0691   0.0880   0.0981   0.1085   0.1190   0.1309   0.1354   0.1461
  0.1716   0.1746   0.1810   0.1877   0.2027   0.2041   0.2262   0.2402
  0.2503   0.2525   0.2643   0.2657   0.2736   0.2921   0.3010   0.3082
  0.3155   0.3195   0.3252   0.3257   0.3337   0.3386   0.3500   0.3622
  0.3642   0.3671   0.3769   0.3822   0.3941   0.4019   0.4112   0.4147
  0.4213   0.4269   0.4350   0.4501   0.4600   0.4703   0.4738   0.4816
  0.4910   0.4962   0.5009   0.5192   0.5349   0.5476   0.5519   0.5636
  0.5661   0.5791   0.5927   0.5959   0.6079   0.6118   0.6269   0.6293
  0.6463   0.6559   0.6754   0.6806   0.6932   0.7035   0.7116   0.7174
  0.7358   0.7447   0.7559   0.7707   0.7781   0.7863   0.7931   0.8055
  0.8143   0.8202   0.8246   0.8392   0.8691   0.8717   0.8794   0.9005
  0.9179   0.9402   0.9698   0.9866   0.9987   1.0077   1.0249   1.0270
  1.0666   1.0757   1.1115   1.1244   1.1329   1.1589   1.1894   1.2243
  1.2326   1.2441   1.2728   1.3264   1.3461   1.3587   1.3775   1.4249
  1.4482   1.4613   1.5405   1.5491   1.5947   1.6429   1.6626   1.6767
  1.7010   1.7341   1.7997   1.8272   1.8327   1.8709   1.8742   1.8860
  1.9062   1.9541   1.9568   1.9575   1.9705   1.9916   1.9950   2.0150
  2.0273   2.0635   2.0906   2.1360   2.1900   2.2344   2.2735   2.2767
  2.3096   2.3513   2.3700   2.3909   2.4224   2.4596   2.4731   2.5041
  2.5654   2.5870   2.6151   2.6182   2.6335   2.6527   2.6874   2.7214
  2.7489   2.7723   2.8040   2.8424   2.8726   2.8744   2.9073   2.9889
  3.0162   3.0574   3.0676   3.0771   3.0891   3.1232   3.1293   3.1594
  3.1714   3.1932   3.2134   3.2259   3.2832   3.2966   3.3093   3.3381
  3.3518   3.3733   3.3870   3.3926   3.4236   3.4453   3.4798   3.5086
  3.5235   3.5380   3.5769   3.6038   3.6332   3.6536   3.7235   3.7359
  3.7539   3.7924   3.8086   3.8348   3.8640   3.9285   3.9566   4.0346
  4.0751   4.1012   4.1452   4.2446   4.2975   4.4173   4.4340   4.4835
  4.5245   4.5776   4.6304   4.6785   4.7637   4.8223   4.8465   4.8769
  4.9620   4.9789   5.0206   5.0386   5.0415   5.0613   5.1649   5.1921
  5.2299   5.3002   5.3738   5.4487   5.4878   5.5313   5.5844   5.6034
  5.6723   5.7014   5.7543   5.7875   5.8832   6.0339   6.2484   6.2853
 22.6141  22.8914  23.1273  23.3571  32.6509  32.7684
 --------------------------------------------------------------
 
          Ground-State Mulliken Net Atomic Charges

     Atom                 Charge (a.u.)
  ----------------------------------------
      1 C                    -0.795394
      2 C                    -0.466690
      3 C                     0.437152
      4 C                    -0.275055
      5 N                     0.075247
      6 N                    -0.534557
      7 H                     0.325179
      8 H                     0.189652
      9 H                     0.235544
     10 H                     0.229041
     11 H                     0.336006
     12 H                     0.243875
  ----------------------------------------
  Sum of atomic charges =     0.000000

 -----------------------------------------------------------------
                    Cartesian Multipole Moments
 -----------------------------------------------------------------
    Charge (ESU x 10^10)
                 0.0000
    Dipole Moment (Debye)
         X      -1.1640      Y      -2.2581      Z      -4.3381
       Tot       5.0272
    Quadrupole Moments (Debye-Ang)
        XX     -43.0160     XY      -6.4782     YY     -33.2509
        XZ      -7.9332     YZ      -4.9079     ZZ     -34.3468
    Octopole Moments (Debye-Ang^2)
       XXX    -288.6951    XXY      -8.0536    XYY     -82.0605
       YYY      23.9407    XXZ     -44.8504    XYZ     -13.3174
       YYZ     -37.0478    XZZ     -85.5262    YZZ      -0.6542
       ZZZ     -98.8305
    Hexadecapole Moments (Debye-Ang^3)
      XXXX   -1428.8609   XXXY      41.5083   XXYY    -263.2339
      XYYY      70.9973   YYYY    -232.1482   XXXZ    -292.0656
      XXYZ     -10.3736   XYYZ    -103.3792   YYYZ      63.8832
      XXZZ    -307.5906   XYZZ       4.7878   YYZZ    -137.3779
      XZZZ    -282.0995   YZZZ      60.3676   ZZZZ    -492.6997
 -----------------------------------------------------------------
Archival summary:
1\1\nid00524\SP\ProcedureUnspecified\BasisUnspecified\246\meili\SunSep2622:10:232021SunSep2622:10:232021\0\\#,ProcedureUnspecified,BasisUnspecified,\\0,1\N\C,1,1.32745\H,2,1.08411,1,122.023\N,2,1.33148,1,108.593,3,-179.926,0\H,4,1.00862,2,125.919,1,-179.755,0\C,4,1.37115,2,108.909,1,0.0504015,0\H,6,1.07392,4,121.896,2,179.97,0\C,6,1.36366,4,107.195,2,-0.0638136,0\C,8,1.5116,6,130.002,4,-178.902,0\H,9,1.0863,8,106.821,6,9.72957,0\H,9,1.09053,8,106.827,6,126.615,0\H,9,1.1,8,113.451,6,-112.927,0\\\@

 Total job time:  16336.45s(wall), 32404.75s(cpu) 
 Sun Sep 26 22:10:27 2021

        *************************************************************
        *                                                           *
        *  Thank you very much for using Q-Chem.  Have a nice day.  *
        *                                                           *
        *************************************************************


Done Job For Fragment 1
calling putenv with: QCSCRATCH=/global/cscratch1/sd/meili 
calling putenv with: QCLOCALSCR=/tmp 
calling putenv with: QCTHREADS=32 
Doing General SCFMI
 Exchange:     0.1670 Hartree-Fock + 1.0000 wB97X-V + LR-HF
 Correlation:  1.0000 wB97X-V
 Using Euler-Maclaurin-Lebedev (99,590) quadrature formula
 Nonlocal Correlation:  VV10 with C = 0.0100 and b = 6.00 and scale = 1.00000
 Grid used for NLC:  SG-1 standard quadrature
performing fock build before subrot guess so that all methods have access
Printing subrot_rss_gen Method Specification:
Occupied Subspace Method is 0
Virtual Subspace Method is 0
Energy of the unrelaxed supersystem initial determinant -531.110908111033
performing fock build before subrot guess so that all methods have access
Printing subrot_rss_gen Method Specification:
Occupied Subspace Method is 0
Virtual Subspace Method is 0
Energy of the unrelaxed supersystem initial determinant w/ solvent -531.149152092552
write pseudocanon occs and virts to disk
write pseudocanon orbital energies to disk
Tolerance of ortho_decomp_scf: 1.00e-06
GDM subspace size: 20
Beginning the Orthogonal Decomposition of the Initial Supersystem Wavefunction
    1    -531.0913663291      1.75e-02     ortho_decomp Preconditoned Steepest Descent
    2    -531.0922475265      3.86e-04     ortho_decomp BFGS Step
    3    -531.0922497085      2.51e-05     ortho_decomp BFGS Step
    4    -531.0922497112      8.44e-07     ortho_decomp 00000 Convergence criterion met
 Hartree-Fock
 Hartree-Fock
 Hartree-Fock
Doing General SCFMI
 Exchange:     0.1670 Hartree-Fock + 1.0000 wB97X-V + LR-HF
 Correlation:  1.0000 wB97X-V
 Using Euler-Maclaurin-Lebedev (99,590) quadrature formula
 Nonlocal Correlation:  VV10 with C = 0.0100 and b = 6.00 and scale = 1.00000
 Grid used for NLC:  SG-1 standard quadrature
performing fock build at end of subrot_r(subrot) constructor so that all methods have access
<S^2> of initial wavefunction before polarization iterations 0.0000000000
Beginning iterations for the determination of the polarized wavefunction
Energy prior to optimization (guess energy) = -531.149152092552
Begin Timing: Total SCF Calculation
begin iterations for algorithm: DIIS         
the SCF tolerance is set to 1.00e-08
    1    -531.1491520926      3.54e-05     00000 
    2    -531.1492491233      1.80e-05     00000 
    3    -531.1492625874      1.02e-05     00000 
    4    -531.1492679505      2.62e-06     00000 
    5    -531.1492684275      1.29e-06     00000 
    6    -531.1492685592      4.72e-07     00000 
    7    -531.1492685711      1.57e-07     00000 
    8    -531.1492685726      4.11e-08     00000 
    9    -531.1492685727      1.60e-08     00000 
   10    -531.1492685728      5.68e-09     00000 Convergence criterion met
write pseudocanon occs and virts to disk
write pseudocanon orbital energies to disk
Timing for Total SCF: 4825.00s (wall), 9597.95s (cpu)
<S^2> of polarized wavefunction after polarization iterations 0.0000000000
relaxing scfmi constraint to allow all rotations in the entire AO span
Doing General SCFMI
 Exchange:     0.1670 Hartree-Fock + 1.0000 wB97X-V + LR-HF
 Correlation:  1.0000 wB97X-V
 Using Euler-Maclaurin-Lebedev (99,590) quadrature formula
 Nonlocal Correlation:  VV10 with C = 0.0100 and b = 6.00 and scale = 1.00000
 Grid used for NLC:  SG-1 standard quadrature
performing fock build at end of subrot_r(subrot) constructor so that all methods have access
<S^2> of polarized wavefunction before ct-allowed iterations 0.0000000000
Beginning iterations for the determination of the CT-Allowed wavefunction
Energy prior to optimization (guess energy) = -531.149268572764
Begin Timing: Total SCF Calculation
begin iterations for algorithm: DIIS         
the SCF tolerance is set to 1.00e-08
    1    -531.1492685728      5.57e-05     00000 
    2    -531.1496897509      5.04e-06     00000 
    3    -531.1497017970      8.57e-07     00000 
    4    -531.1497022520      3.49e-07     00000 
    5    -531.1497022726      1.36e-07     00000 
    6    -531.1497022773      4.51e-08     00000 
    7    -531.1497022777      1.39e-08     00000 
    8    -531.1497022778      5.76e-09     00000 Convergence criterion met
write pseudocanon occs and virts to disk
write pseudocanon orbital energies to disk
Timing for Total SCF: 3774.00s (wall), 7514.43s (cpu)
<S^2> of ct_allowed wavefunction after ct-allowed iterations 0.0000000000

================================
        Results of EDA2         
================================
Basic EDA Quantities
--------------------
Fragment Energies (Ha):
1 -265.5692703232
2 -265.5701449542
--------------------
  E_prp (kJ/mol) = 0.0000
  E_sol (kJ/mol) = 15.4218
  E_frz (kJ/mol) = -25.0228
  E_pol (kJ/mol) = -0.3058
  E_vct (kJ/mol) = -1.1387
  E_int (kJ/mol) = -11.0455
--------------------


Initial Wavefunction Decomposition
--------------------
  --------------------
  Orthogonal Fragment Subspace Decomposition:
  --------------------
     E_elec   (ELEC)   (kJ/mol) = -30.6107
     E_pauli  (PAULI)  (kJ/mol) = 18.5006
     E_disp   (DISP)   (kJ/mol) = -12.9127
     --------------------
     Terms summing to E_pauli:
     --------------------
        E_kep_pauli       (kJ/mol) = 23.9654
        E_disp_free_pauli (kJ/mol) = -5.4648
  --------------------
  Classical Frozen Decomposition:
  --------------------
     E_cls_elec  (CLS ELEC)  (kJ/mol) = -21.4604
     E_cls_pauli (CLS PAULI) (kJ/mol) = -3.5624
    [E_mod_pauli (MOD PAULI) (kJ/mol) = 9.3503 (CLS PAULI - DISP from orthogonal decomposition) ]
  --------------------
--------------------

Simplified EDA Summary (kJ/mol)
--------------------
 PREPARATION     0.0000
 SOLVATION       15.4218
 FROZEN          -12.1101      (does not include dispersion)
[PAULI           18.5006]     (if this is negligible, then frozen describes electrostatics)
 DISPERSION      -12.9127
 POLARIZATION    -0.3058
 CHARGE TRANSFER -1.1387
 TOTAL           -11.0455     (PRP + SOL + FRZ + DISP + POL + CT)
--------------------
 
 --------------------------------------------------------------
 
                    Orbital Energies (a.u.)
 --------------------------------------------------------------
 
 Alpha MOs
 -- Occupied --
-14.4581 -14.4579 -14.3861 -14.3861 -10.3174 -10.3150 -10.2856 -10.2836
-10.2833 -10.2812 -10.2588 -10.2571  -1.1532  -1.1514  -0.9944  -0.9935
 -0.8949  -0.8939  -0.8218  -0.8214  -0.7228  -0.7208  -0.6878  -0.6867
 -0.6601  -0.6587  -0.5674  -0.5580  -0.5525  -0.5520  -0.5385  -0.5368
 -0.5114  -0.5078  -0.4932  -0.4899  -0.4781  -0.4746  -0.3788  -0.3783
 -0.3765  -0.3763  -0.3215  -0.3184
 -- Virtual --
  0.0640   0.0768   0.0853   0.0893   0.0948   0.1051   0.1094   0.1104
  0.1159   0.1224   0.1297   0.1329   0.1391   0.1449   0.1475   0.1554
  0.1664   0.1738   0.1757   0.1804   0.1823   0.1848   0.1972   0.2007
  0.2075   0.2093   0.2157   0.2216   0.2299   0.2404   0.2423   0.2491
  0.2537   0.2591   0.2630   0.2678   0.2732   0.2752   0.2851   0.2927
  0.2971   0.3008   0.3039   0.3061   0.3119   0.3184   0.3214   0.3242
  0.3268   0.3316   0.3327   0.3360   0.3407   0.3428   0.3499   0.3527
  0.3547   0.3566   0.3652   0.3675   0.3694   0.3739   0.3771   0.3839
  0.3855   0.3874   0.3904   0.3932   0.3966   0.4033   0.4059   0.4117
  0.4177   0.4199   0.4243   0.4263   0.4308   0.4324   0.4397   0.4468
  0.4505   0.4538   0.4562   0.4620   0.4674   0.4694   0.4738   0.4801
  0.4854   0.4882   0.4888   0.4972   0.5000   0.5011   0.5029   0.5134
  0.5173   0.5252   0.5297   0.5305   0.5386   0.5439   0.5492   0.5528
  0.5565   0.5641   0.5714   0.5754   0.5797   0.5833   0.5859   0.5900
  0.5958   0.6030   0.6080   0.6181   0.6218   0.6255   0.6323   0.6367
  0.6379   0.6463   0.6523   0.6560   0.6650   0.6710   0.6742   0.6756
  0.6876   0.6897   0.6956   0.7018   0.7096   0.7142   0.7182   0.7243
  0.7318   0.7340   0.7386   0.7429   0.7514   0.7536   0.7591   0.7669
  0.7707   0.7765   0.7883   0.7892   0.7935   0.7965   0.8003   0.8079
  0.8158   0.8184   0.8200   0.8297   0.8302   0.8371   0.8395   0.8440
  0.8514   0.8578   0.8625   0.8681   0.8757   0.8828   0.8954   0.8967
  0.9069   0.9104   0.9160   0.9243   0.9326   0.9348   0.9409   0.9506
  0.9615   0.9843   0.9911   1.0016   1.0034   1.0086   1.0175   1.0472
  1.0522   1.0556   1.0611   1.0709   1.0737   1.0885   1.0915   1.0969
  1.1039   1.1157   1.1317   1.1374   1.1436   1.1576   1.1642   1.1764
  1.1844   1.1944   1.2040   1.2055   1.2278   1.2406   1.2553   1.2582
  1.2753   1.2897   1.2956   1.3053   1.3196   1.3284   1.3640   1.3695
  1.3776   1.3850   1.3892   1.4074   1.4123   1.4196   1.4541   1.4746
  1.4777   1.4926   1.5026   1.5161   1.5689   1.5765   1.6151   1.6213
  1.6265   1.6477   1.6600   1.6752   1.6815   1.6893   1.7141   1.7248
  1.7403   1.7438   1.7507   1.7747   1.8209   1.8352   1.8556   1.8617
  1.8700   1.8840   1.8938   1.8992   1.9127   1.9164   1.9230   1.9307
  1.9421   1.9459   1.9508   1.9680   1.9693   1.9754   1.9899   1.9960
  2.0093   2.0175   2.0204   2.0373   2.0408   2.0500   2.0554   2.0589
  2.0779   2.0902   2.1025   2.1267   2.1385   2.1514   2.1649   2.1942
  2.2223   2.2352   2.2469   2.2638   2.2688   2.2885   2.3063   2.3147
  2.3246   2.3385   2.3613   2.3848   2.4021   2.4138   2.4375   2.4437
  2.4542   2.4693   2.4814   2.4882   2.5048   2.5162   2.5502   2.5716
  2.5841   2.5874   2.5998   2.6065   2.6231   2.6290   2.6333   2.6488
  2.6717   2.6834   2.7060   2.7127   2.7191   2.7360   2.7483   2.7768
  2.7818   2.7991   2.8121   2.8164   2.8247   2.8466   2.8603   2.8695
  2.8825   2.8881   2.9029   2.9123   2.9190   2.9277   3.0048   3.0130
  3.0316   3.0434   3.0666   3.0745   3.0784   3.0808   3.0979   3.1082
  3.1183   3.1199   3.1433   3.1509   3.1628   3.1782   3.1844   3.1887
  3.2083   3.2149   3.2192   3.2382   3.2470   3.2590   3.2827   3.2946
  3.3005   3.3125   3.3197   3.3325   3.3389   3.3474   3.3617   3.3743
  3.3829   3.3862   3.3932   3.4053   3.4081   3.4141   3.4320   3.4434
  3.4509   3.4615   3.4670   3.4763   3.4970   3.5041   3.5149   3.5269
  3.5401   3.5479   3.5551   3.5699   3.5924   3.6118   3.6170   3.6264
  3.6388   3.6566   3.6701   3.6850   3.6934   3.7365   3.7446   3.7506
  3.7620   3.7721   3.8025   3.8083   3.8342   3.8392   3.8465   3.8752
  3.8799   3.9263   3.9435   3.9562   3.9691   3.9899   4.0491   4.0656
  4.0872   4.1062   4.1104   4.1242   4.1413   4.1568   4.2571   4.2756
  4.3046   4.3159   4.3746   4.4251   4.4298   4.4441   4.4705   4.4976
  4.5190   4.5319   4.5861   4.6107   4.6214   4.6454   4.6846   4.7478
  4.7702   4.7867   4.8329   4.8395   4.8580   4.8722   4.8961   4.9151
  4.9609   4.9949   4.9994   5.0132   5.0293   5.0461   5.0531   5.0593
  5.0619   5.0699   5.0707   5.1223   5.1981   5.2032   5.2258   5.2406
  5.2514   5.2554   5.3165   5.3311   5.3919   5.3989   5.4623   5.4772
  5.5021   5.5117   5.5444   5.5581   5.5975   5.6065   5.6182   5.6270
  5.6852   5.6944   5.7159   5.7428   5.7796   5.8016   5.8143   5.8312
  5.8984   5.9199   6.0469   6.0546   6.2533   6.2613   6.2938   6.3118
 22.6209  22.6258  22.9208  22.9337  23.1527  23.1818  23.3748  23.3955
 32.6996  32.7465  32.7887  32.8058
 --------------------------------------------------------------
 
          Ground-State Mulliken Net Atomic Charges

     Atom                 Charge (a.u.)
  ----------------------------------------
      1 C                    -0.881493
      2 C                    -0.280713
      3 C                     0.474528
      4 C                    -0.555289
      5 N                    -0.512881
      6 N                     0.150368
      7 H                     0.373297
      8 H                     0.161691
      9 H                     0.316274
     10 H                     0.218566
     11 H                     0.253981
     12 H                     0.276256
     13 C                    -0.887754
     14 C                    -0.590214
     15 C                     0.635213
     16 C                    -0.344680
     17 N                     0.158919
     18 N                    -0.529251
     19 H                     0.303206
     20 H                     0.199538
     21 H                     0.260106
     22 H                     0.244121
     23 H                     0.316642
     24 H                     0.239567
  ----------------------------------------
  Sum of atomic charges =     0.000000

 -----------------------------------------------------------------
                    Cartesian Multipole Moments
 -----------------------------------------------------------------
    Charge (ESU x 10^10)
                -0.0000
    Dipole Moment (Debye)
         X       1.3943      Y      -0.4430      Z      -0.3790
       Tot       1.5113
    Quadrupole Moments (Debye-Ang)
        XX     -86.2414     XY     -14.3974     YY     -66.7982
        XZ     -13.8374     YZ      -7.6320     ZZ     -74.2802
    Octopole Moments (Debye-Ang^2)
       XXX      -9.0955    XXY       7.5954    XYY       4.0868
       YYY      -1.7571    XXZ      -4.4486    XYZ      -2.4635
       YYZ      -4.8563    XZZ      13.2249    YZZ      -1.3931
       ZZZ       1.5477
    Hexadecapole Moments (Debye-Ang^3)
      XXXX   -2994.7786   XXXY      98.2057   XXYY    -562.3677
      XYYY     183.0127   YYYY    -453.1334   XXXZ    -603.5433
      XXYZ     -33.4582   XYYZ    -207.8639   YYYZ      98.2779
      XXZZ    -645.0000   XYZZ      24.6820   YYZZ    -238.5342
      XZZZ    -593.0726   YZZZ      81.6377   ZZZZ    -851.8455
 -----------------------------------------------------------------
Archival summary:
1\1\nid00524\SP\ProcedureUnspecified\BasisUnspecified\4812\meili\MonSep2702:33:092021MonSep2702:33:092021\0\\#,ProcedureUnspecified,BasisUnspecified,\\0,1\N\H,1,1.01406\C,1,1.33055,2,125.996\H,3,1.08286,1,129.381,2,0.326254,0\N,3,1.32649,1,108.941,2,-179.688,0\C,1,1.36564,2,125.134,3,179.64,0\H,6,1.07488,1,122.001,2,0.0960592,0\C,6,1.36244,1,107.053,2,179.902,0\C,8,1.50145,6,130.653,1,178.862,0\H,9,1.08896,8,107.173,6,-75.5164,0\H,9,1.09528,8,106.557,6,168.015,0\H,9,1.1,8,115.242,6,47.4865,0\C,2,3.09165,1,108.474,3,85.4559,0\H,13,1.08411,2,106.662,1,65.0212,0\N,13,1.32745,2,81.238,1,-174.054,0\N,13,1.33148,2,79.4642,1,-63.1495,0\H,16,1.00862,13,125.919,2,103.309,0\C,16,1.37115,13,108.909,2,-76.8854,0\H,18,1.07392,16,121.896,13,179.97,0\C,18,1.36366,16,107.195,13,-0.0638136,0\C,20,1.5116,18,130.002,16,-178.902,0\H,21,1.0863,20,106.821,18,9.72957,0\H,21,1.09053,20,106.827,18,126.615,0\H,21,1.1,20,113.451,18,-112.927,0\\\@

 Total job time:  48919.20s(wall), 32206.65s(cpu) 
 Mon Sep 27 02:33:12 2021

        *************************************************************
        *                                                           *
        *  Thank you very much for using Q-Chem.  Have a nice day.  *
        *                                                           *
        *************************************************************


