                  Welcome to Q-Chem
     A Quantum Leap Into The Future Of Chemistry


 Q-Chem 5.2 (devel), Q-Chem, Inc., Pleasanton, CA (2019)

 Yihan Shao,  Zhengting Gan,  E. Epifanovsky,  A. T. B. Gilbert,  M. Wormit,  
 J. Kussmann,  A. W. Lange,  A. Behn,  Jia Deng,  Xintian Feng,  D. Ghosh,  
 M. Goldey,  P. R. Horn,  L. D. Jacobson,  I. Kaliman,  T. Kus,  A. Landau,  
 Jie Liu,  E. I. Proynov,  R. M. Richard,  R. P. Steele,  E. J. Sundstrom,  
 H. L. Woodcock III,  P. M. Zimmerman,  D. Zuev,  B. Albrecht,  E. Alguire,  
 S. A. Baeppler,  D. Barton,  Z. Benda,  Y. A. Bernard,  E. J. Berquist,  
 K. B. Bravaya,  H. Burton,  D. Casanova,  Chun-Min Chang,  Yunqing Chen,  
 A. Chien,  K. D. Closser,  M. P. Coons,  S. Coriani,  S. Dasgupta,  
 A. L. Dempwolff,  M. Diedenhofen,  Hainam Do,  R. G. Edgar,  Po-Tung Fang,  
 S. Faraji,  S. Fatehi,  Qingguo Feng,  K. D. Fenk,  J. Fosso-Tande,  
 J. Gayvert,  Qinghui Ge,  A. Ghysels,  G. Gidofalvi,  J. Gomes,  
 J. Gonthier,  A. Gunina,  D. Hait,  M. W. D. Hanson-Heine,  
 P. H. P. Harbach,  A. W. Hauser,  M. F. Herbst,  J. E. Herr,  
 E. G. Hohenstein,  Z. C. Holden,  Kerwin Hui,  B. C. Huynh,  T.-C. Jagau,  
 Hyunjun Ji,  B. Kaduk,  K. Khistyaev,  Jaehoon Kim,  P. Klunzinger,  K. Koh,  
 D. Kosenkov,  L. Koulias,  T. Kowalczyk,  C. M. Krauter,  A. Kunitsa,  
 Ka Un Lao,  A. Laurent,  K. V. Lawler,  Joonho Lee,  D. Lefrancois,  
 S. Lehtola,  D. S. Levine,  Yi-Pei Li,  You-Sheng Lin,  Fenglai Liu,  
 E. Livshits,  A. Luenser,  P. Manohar,  E. Mansoor,  S. F. Manzer,  
 Shan-Ping Mao,  Yuezhi Mao,  N. Mardirossian,  A. V. Marenich,  
 T. Markovich,  L. A. Martinez-Martinez,  S. A. Maurer,  N. J. Mayhall,  
 S. C. McKenzie,  J.-M. Mewes,  P. Morgante,  A. F. Morrison,  
 J. W. Mullinax,  K. Nanda,  T. S. Nguyen-Beck,  R. Olivares-Amaya,  
 J. A. Parkhill,  Zheng Pei,  T. M. Perrine,  F. Plasser,  P. Pokhilko,  
 S. Prager,  A. Prociuk,  E. Ramos,  D. R. Rehn,  F. Rob,  M. Scheurer,  
 M. Schneider,  N. Sergueev,  S. M. Sharada,  S. Sharma,  D. W. Small,  
 T. Stauch,  T. Stein,  Yu-Chuan Su,  A. J. W. Thom,  A. Tkatchenko,  
 T. Tsuchimochi,  N. M. Tubman,  L. Vogt,  M. L. Vidal,  O. Vydrov,  
 M. A. Watson,  J. Wenzel,  M. de Wergifosse,  T. A. Wesolowski,  A. White,  
 J. Witte,  A. Yamada,  Jun Yang,  K. Yao,  S. Yeganeh,  S. R. Yost,  
 Zhi-Qiang You,  A. Zech,  Igor Ying Zhang,  Xing Zhang,  Yan Zhao,  
 Ying Zhu,  B. R. Brooks,  G. K. L. Chan,  C. J. Cramer,  M. S. Gordon,  
 W. J. Hehre,  A. Klamt,  M. W. Schmidt,  C. D. Sherrill,  D. G. Truhlar,  
 A. Aspuru-Guzik,  R. Baer,  A. T. Bell,  N. A. Besley,  Jeng-Da Chai,  
 A. E. DePrince, III,  R. A. DiStasio Jr.,  A. Dreuw,  B. D. Dunietz,  
 T. R. Furlani,  Chao-Ping Hsu,  Yousung Jung,  Jing Kong,  D. S. Lambrecht,  
 WanZhen Liang,  C. Ochsenfeld,  V. A. Rassolov,  L. V. Slipchenko,  
 J. E. Subotnik,  T. Van Voorhis,  J. M. Herbert,  A. I. Krylov,  
 P. M. W. Gill,  M. Head-Gordon

 Contributors to earlier versions of Q-Chem not listed above: 
 R. D. Adamson,  B. Austin,  J. Baker,  G. J. O. Beran,  K. Brandhorst,  
 S. T. Brown,  E. F. C. Byrd,  A. K. Chakraborty,  C.-L. Cheng,  
 Siu Hung Chien,  D. M. Chipman,  D. L. Crittenden,  H. Dachsel,  
 R. J. Doerksen,  A. D. Dutoi,  L. Fusti-Molnar,  W. A. Goddard III,  
 A. Golubeva-Zadorozhnaya,  S. R. Gwaltney,  G. Hawkins,  A. Heyden,  
 S. Hirata,  G. Kedziora,  F. J. Keil,  C. Kelley,  Jihan Kim,  R. A. King,  
 R. Z. Khaliullin,  P. P. Korambath,  W. Kurlancheek,  A. M. Lee,  M. S. Lee,  
 S. V. Levchenko,  Ching Yeh Lin,  D. Liotard,  R. C. Lochan,  I. Lotan,  
 P. E. Maslen,  N. Nair,  D. P. O'Neill,  D. Neuhauser,  E. Neuscamman,  
 C. M. Oana,  R. Olson,  B. Peters,  R. Peverati,  P. A. Pieniazek,  
 Y. M. Rhee,  J. Ritchie,  M. A. Rohrdanz,  E. Rosta,  N. J. Russ,  
 H. F. Schaefer III,  N. E. Schultz,  N. Shenvi,  A. C. Simmonett,  A. Sodt,  
 D. Stuck,  K. S. Thanthiriwatte,  V. Vanovschi,  Tao Wang,  A. Warshel,  
 C. F. Williams,  Q. Wu,  X. Xu,  W. Zhang

 Please cite Q-Chem as follows:
 Y. Shao et al., Mol. Phys. 113, 184-215 (2015)
 DOI: 10.1080/00268976.2014.952696

 Q-Chem 5.2.1 for Intel X86 EM64T Linux

 Parts of Q-Chem use Armadillo 8.300.2 (Tropical Shenanigans).
 http://arma.sourceforge.net/

 Q-Chem begins on Wed Sep 29 18:35:47 2021  

compute-0-8.local
Host: 0

     Scratch files written to /home/meili/scratch/qchem64006//
NAlpha2: 128
NElect   128
Mult     1
Symmetry turned off for PCM/SM12/SMD calculation

 Q-Chem warning in module libgen/rem_setup.C, line 2813:

 Neither GIA nor STOLL is specified by user. Use STOLL as the default


Checking the input file for inconsistencies... 	...done.

--------------------------------------------------------------
User input:
--------------------------------------------------------------
$comment
SSI-080TRP-090TYR-1.pdb
$end

$molecule
0 1
--
0 1
C    2.774541772817    4.576061300099   -0.214490184111
C    1.126541772817    1.343061300099    0.823509815889
C    1.047541772817    2.732061300099    0.555509815889
C    2.361541772817    3.171061300099    0.157509815889
C    3.151541772817    2.065061300099    0.193509815889
C   -1.177458227183    1.253061300099    1.370509815889
C    0.027541772817    0.598061300099    1.225509815889
C   -1.287458227183    2.629061300099    1.120509815889
C   -0.187458227183    3.375061300099    0.710509815889
N    2.422541772817    0.971061300099    0.592509815889
H   -2.052458227183    0.696061300099    1.680509815889
H    0.111541772817   -0.464938699901    1.387509815889
H   -2.246458227183    3.116061300099    1.245509815889
H   -0.277458227183    4.435061300099    0.518509815889
H    2.788541772817    0.025061300099    0.686509815889
H    4.203541772817    2.059061300099   -0.041490184111
H    1.913541772817    5.101061300099   -0.627490184111
H    3.531541772817    4.517061300099   -0.994490184111
H    3.167261772817    5.153289300099    0.635559815889
--
0 1
C    1.223541772817   -4.245938699901   -1.132490184111
C   -1.340458227183   -1.429938699901   -1.059490184111
C   -0.152458227183   -2.135938699901   -1.246490184111
C   -2.470458227183   -2.088938699901   -0.600490184111
C   -0.077458227183   -3.500938699901   -0.966490184111
C   -2.416458227183   -3.455938699901   -0.321490184111
C   -1.215458227183   -4.153938699901   -0.495490184111
O   -3.612458227183   -1.377938699901   -0.435490184111
H   -1.379458227183   -0.370938699901   -1.262490184111
H    0.732541772817   -1.614938699901   -1.584490184111
H   -3.480458227183   -0.441938699901   -0.590490184111
H   -3.300458227183   -3.961938699901    0.034509815889
H    1.699541772817   -3.942938699901   -2.060490184111
H    1.001541772817   -5.309938699901   -1.227490184111
H   -1.173458227183   -5.209938699901   -0.267490184111
H    1.910571772817   -4.112250699901   -0.283890184111
$end

$rem
JOBTYPE			EDA
EDA2			1
method			wB97X-V
BASIS			def2-TZVPD
XC_GRID			000099000590
NL_GRID			1
UNRESTRICTED		FALSE
MAX_SCF_CYCLES		200
SYMMETRY		FALSE
SYM_IGNORE		TRUE
MEM_STATIC		2000
BASIS_LIN_DEP_THRESH 	6
THRESH 			14
SCF_CONVERGENCE 	8
SCF_PRINT_FRGM 		TRUE
SOLVENT_METHOD          SMD
$end

$SMX
SOLVENT			WATER
$END
--------------------------------------------------------------
 ----------------------------------------------------------------
             Standard Nuclear Orientation (Angstroms)
    I     Atom           X                Y                Z
 ----------------------------------------------------------------
    1      C       2.7745417728     4.5760613001    -0.2144901841
    2      C       1.1265417728     1.3430613001     0.8235098159
    3      C       1.0475417728     2.7320613001     0.5555098159
    4      C       2.3615417728     3.1710613001     0.1575098159
    5      C       3.1515417728     2.0650613001     0.1935098159
    6      C      -1.1774582272     1.2530613001     1.3705098159
    7      C       0.0275417728     0.5980613001     1.2255098159
    8      C      -1.2874582272     2.6290613001     1.1205098159
    9      C      -0.1874582272     3.3750613001     0.7105098159
   10      N       2.4225417728     0.9710613001     0.5925098159
   11      H      -2.0524582272     0.6960613001     1.6805098159
   12      H       0.1115417728    -0.4649386999     1.3875098159
   13      H      -2.2464582272     3.1160613001     1.2455098159
   14      H      -0.2774582272     4.4350613001     0.5185098159
   15      H       2.7885417728     0.0250613001     0.6865098159
   16      H       4.2035417728     2.0590613001    -0.0414901841
   17      H       1.9135417728     5.1010613001    -0.6274901841
   18      H       3.5315417728     4.5170613001    -0.9944901841
   19      H       3.1672617728     5.1532893001     0.6355598159
   20      C       1.2235417728    -4.2459386999    -1.1324901841
   21      C      -1.3404582272    -1.4299386999    -1.0594901841
   22      C      -0.1524582272    -2.1359386999    -1.2464901841
   23      C      -2.4704582272    -2.0889386999    -0.6004901841
   24      C      -0.0774582272    -3.5009386999    -0.9664901841
   25      C      -2.4164582272    -3.4559386999    -0.3214901841
   26      C      -1.2154582272    -4.1539386999    -0.4954901841
   27      O      -3.6124582272    -1.3779386999    -0.4354901841
   28      H      -1.3794582272    -0.3709386999    -1.2624901841
   29      H       0.7325417728    -1.6149386999    -1.5844901841
   30      H      -3.4804582272    -0.4419386999    -0.5904901841
   31      H      -3.3004582272    -3.9619386999     0.0345098159
   32      H       1.6995417728    -3.9429386999    -2.0604901841
   33      H       1.0015417728    -5.3099386999    -1.2274901841
   34      H      -1.1734582272    -5.2099386999    -0.2674901841
   35      H       1.9105717728    -4.1122506999    -0.2838901841
 ----------------------------------------------------------------
 Nuclear Repulsion Energy =        1190.40524751 hartrees
 There are       64 alpha and       64 beta electrons
 Requested basis set is def2-TZVPD
 There are 320 shells and 822 basis functions

 Total QAlloc Memory Limit   2000 MB
 Mega-Array Size      1956 MB
 MEM_STATIC part      2000 MB

 Citation of the SMD model:
 Marenich, A.V.; Cramer, C.J.; Truhlar, D.G.
 J. Phys. Chem. B 2009, 113, 6378-6396.
 iSolventCode=           1
 Solvent: water                                                           

 vradii
            1           2           3           4           5           6
    1   1.8500000   1.8500000   1.8500000   1.8500000   1.8500000   1.8500000
            7           8           9          10          11          12
    1   1.8500000   1.8500000   1.8500000   1.8900000   1.2000000   1.2000000
           13          14          15          16          17          18
    1   1.2000000   1.2000000   1.2000000   1.2000000   1.2000000   1.2000000
           19          20          21          22          23          24
    1   1.2000000   1.8500000   1.8500000   1.8500000   1.8500000   1.8500000
           25          26          27          28          29          30
    1   1.8500000   1.8500000   1.5200000   1.2000000   1.2000000   1.2000000
           31          32          33          34          35
    1   1.2000000   1.2000000   1.2000000   1.2000000   1.2000000
 Changing PCM_VDW_RADII to SMD_RADIUS
 Discretize the solute cavity surface with Lebedev spheres
	Using 110 Lebedev grid points for each H atom
	Using 194 Lebedev grid points for other atoms
	Atomic van der Waals radii will be scaled by 1.20
 Remove points where switching function is < 1.0e-08
 Keep 2522 surface tesserae and discard 2840 interior tesserae
 Molecular Surface Area = 301.438 Angst**2
 A cutoff of  1.0D-14 yielded  41833 shell pairs
 There are    276471 function pairs (    350601 Cartesian)
 Smallest overlap matrix eigenvalue = 3.97E-07
 Linear dependence detected in AO basis
 Tighter screening thresholds may be required for diffuse basis sets
 Use S2THRESH > 14 and THRESH = 14 in case of SCF convergence issues
 Number of orthogonalized atomic orbitals = 816
 Maximum deviation from orthogonality = 2.203E-10

 Scale SEOQF with 1.000000e-01/1.000000e-02/1.000000e-01

 Standard Electronic Orientation quadrupole field applied
 Nucleus-field energy     =     0.0000000157 hartrees

 -----------------------------------------------------------------------
  General SCF calculation program by
  Eric Jon Sundstrom, Paul Horn, Yuezhi Mao, Dmitri Zuev, Alec White,
  David Stuck, Shaama M.S., Shane Yost, Joonho Lee, David Small,
  Daniel Levine, Susi Lehtola, Hugh Burton, Evgeny Epifanovsky,
  Bang C. Huynh
 -----------------------------------------------------------------------
================================================================
                 ALMO-EDA with the EDA2 driver                  
================================================================
 The second-generation ALMO-EDA (for DFT):                      
 P. R. Horn, Y. Mao and M. Head-Gordon, PCCP, 18, 23067 (2016)  
 Decomposition of the frozen energy:                            
 P. R. Horn, Y. Mao and M. Head-Gordon, JCP, 144, 114107 (2016) 
 FERF model for polarization:                                   
 P. R. Horn and M. Head-Gordon, JCP, 143, 114111 (2015)         
Using eda2 option set 1
Option set summary: Frozen orbital wavefunction, initial wavefunction decomposition, and nDQ polarization.
--------------------------------
Printing EDA Options
--------------------------------
eda_child_super_basis      0
fragmo_guess_mode          0
child_mp                   1
child_mp_orders            232
cls_elec                   1
cls_disp                   0
scfmi_mode                 1
scfmi_occs                 0
scfmi_virts                0
frz_relax                  0
frz_relax_method           0
dc_pen_start               0
dc_pen_conv                0
dc_pen_increment           0
dc_pen_steps               0
dc_pen_thresh_factor       0
dc_pen_pre_newton_thresh   0
frz_ortho_decomp           1
frz_ortho_decomp_conv      6
frgm_method                2
scfmi_freeze_ss            0
separate_rehyb             0
plot_diff_den              0
eda_nocv                   0
eda_vct_relax              1
disp_free_x                0
disp_free_c                0
eda_bsse                   0
eda_pct_a                  0
eda_covp                   0
--------------------------------
Attempting to make child job directory: /home/meili/scratch/qchem64006//Frg1/
Attempting to make child job directory: /home/meili/scratch/qchem64006//Frg2/
Creating input file /home/meili/scratch/qchem64006/Frg1.input
using default PutDataFrgm: nothing
calling putenv with: QCSCRATCH=/home/meili/scratch/qchem64006/ 
Spawning Job For Fragment 0
                  Welcome to Q-Chem
     A Quantum Leap Into The Future Of Chemistry


 Q-Chem 5.2 (devel), Q-Chem, Inc., Pleasanton, CA (2019)

 Yihan Shao,  Zhengting Gan,  E. Epifanovsky,  A. T. B. Gilbert,  M. Wormit,  
 J. Kussmann,  A. W. Lange,  A. Behn,  Jia Deng,  Xintian Feng,  D. Ghosh,  
 M. Goldey,  P. R. Horn,  L. D. Jacobson,  I. Kaliman,  T. Kus,  A. Landau,  
 Jie Liu,  E. I. Proynov,  R. M. Richard,  R. P. Steele,  E. J. Sundstrom,  
 H. L. Woodcock III,  P. M. Zimmerman,  D. Zuev,  B. Albrecht,  E. Alguire,  
 S. A. Baeppler,  D. Barton,  Z. Benda,  Y. A. Bernard,  E. J. Berquist,  
 K. B. Bravaya,  H. Burton,  D. Casanova,  Chun-Min Chang,  Yunqing Chen,  
 A. Chien,  K. D. Closser,  M. P. Coons,  S. Coriani,  S. Dasgupta,  
 A. L. Dempwolff,  M. Diedenhofen,  Hainam Do,  R. G. Edgar,  Po-Tung Fang,  
 S. Faraji,  S. Fatehi,  Qingguo Feng,  K. D. Fenk,  J. Fosso-Tande,  
 J. Gayvert,  Qinghui Ge,  A. Ghysels,  G. Gidofalvi,  J. Gomes,  
 J. Gonthier,  A. Gunina,  D. Hait,  M. W. D. Hanson-Heine,  
 P. H. P. Harbach,  A. W. Hauser,  M. F. Herbst,  J. E. Herr,  
 E. G. Hohenstein,  Z. C. Holden,  Kerwin Hui,  B. C. Huynh,  T.-C. Jagau,  
 Hyunjun Ji,  B. Kaduk,  K. Khistyaev,  Jaehoon Kim,  P. Klunzinger,  K. Koh,  
 D. Kosenkov,  L. Koulias,  T. Kowalczyk,  C. M. Krauter,  A. Kunitsa,  
 Ka Un Lao,  A. Laurent,  K. V. Lawler,  Joonho Lee,  D. Lefrancois,  
 S. Lehtola,  D. S. Levine,  Yi-Pei Li,  You-Sheng Lin,  Fenglai Liu,  
 E. Livshits,  A. Luenser,  P. Manohar,  E. Mansoor,  S. F. Manzer,  
 Shan-Ping Mao,  Yuezhi Mao,  N. Mardirossian,  A. V. Marenich,  
 T. Markovich,  L. A. Martinez-Martinez,  S. A. Maurer,  N. J. Mayhall,  
 S. C. McKenzie,  J.-M. Mewes,  P. Morgante,  A. F. Morrison,  
 J. W. Mullinax,  K. Nanda,  T. S. Nguyen-Beck,  R. Olivares-Amaya,  
 J. A. Parkhill,  Zheng Pei,  T. M. Perrine,  F. Plasser,  P. Pokhilko,  
 S. Prager,  A. Prociuk,  E. Ramos,  D. R. Rehn,  F. Rob,  M. Scheurer,  
 M. Schneider,  N. Sergueev,  S. M. Sharada,  S. Sharma,  D. W. Small,  
 T. Stauch,  T. Stein,  Yu-Chuan Su,  A. J. W. Thom,  A. Tkatchenko,  
 T. Tsuchimochi,  N. M. Tubman,  L. Vogt,  M. L. Vidal,  O. Vydrov,  
 M. A. Watson,  J. Wenzel,  M. de Wergifosse,  T. A. Wesolowski,  A. White,  
 J. Witte,  A. Yamada,  Jun Yang,  K. Yao,  S. Yeganeh,  S. R. Yost,  
 Zhi-Qiang You,  A. Zech,  Igor Ying Zhang,  Xing Zhang,  Yan Zhao,  
 Ying Zhu,  B. R. Brooks,  G. K. L. Chan,  C. J. Cramer,  M. S. Gordon,  
 W. J. Hehre,  A. Klamt,  M. W. Schmidt,  C. D. Sherrill,  D. G. Truhlar,  
 A. Aspuru-Guzik,  R. Baer,  A. T. Bell,  N. A. Besley,  Jeng-Da Chai,  
 A. E. DePrince, III,  R. A. DiStasio Jr.,  A. Dreuw,  B. D. Dunietz,  
 T. R. Furlani,  Chao-Ping Hsu,  Yousung Jung,  Jing Kong,  D. S. Lambrecht,  
 WanZhen Liang,  C. Ochsenfeld,  V. A. Rassolov,  L. V. Slipchenko,  
 J. E. Subotnik,  T. Van Voorhis,  J. M. Herbert,  A. I. Krylov,  
 P. M. W. Gill,  M. Head-Gordon

 Contributors to earlier versions of Q-Chem not listed above: 
 R. D. Adamson,  B. Austin,  J. Baker,  G. J. O. Beran,  K. Brandhorst,  
 S. T. Brown,  E. F. C. Byrd,  A. K. Chakraborty,  C.-L. Cheng,  
 Siu Hung Chien,  D. M. Chipman,  D. L. Crittenden,  H. Dachsel,  
 R. J. Doerksen,  A. D. Dutoi,  L. Fusti-Molnar,  W. A. Goddard III,  
 A. Golubeva-Zadorozhnaya,  S. R. Gwaltney,  G. Hawkins,  A. Heyden,  
 S. Hirata,  G. Kedziora,  F. J. Keil,  C. Kelley,  Jihan Kim,  R. A. King,  
 R. Z. Khaliullin,  P. P. Korambath,  W. Kurlancheek,  A. M. Lee,  M. S. Lee,  
 S. V. Levchenko,  Ching Yeh Lin,  D. Liotard,  R. C. Lochan,  I. Lotan,  
 P. E. Maslen,  N. Nair,  D. P. O'Neill,  D. Neuhauser,  E. Neuscamman,  
 C. M. Oana,  R. Olson,  B. Peters,  R. Peverati,  P. A. Pieniazek,  
 Y. M. Rhee,  J. Ritchie,  M. A. Rohrdanz,  E. Rosta,  N. J. Russ,  
 H. F. Schaefer III,  N. E. Schultz,  N. Shenvi,  A. C. Simmonett,  A. Sodt,  
 D. Stuck,  K. S. Thanthiriwatte,  V. Vanovschi,  Tao Wang,  A. Warshel,  
 C. F. Williams,  Q. Wu,  X. Xu,  W. Zhang

 Please cite Q-Chem as follows:
 Y. Shao et al., Mol. Phys. 113, 184-215 (2015)
 DOI: 10.1080/00268976.2014.952696

 Q-Chem 5.2.1 for Intel X86 EM64T Linux

 Parts of Q-Chem use Armadillo 8.300.2 (Tropical Shenanigans).
 http://arma.sourceforge.net/

 Q-Chem begins on Wed Sep 29 18:35:59 2021  

compute-0-8.local
Host: 0

     Scratch files written to /home/meili/scratch/qchem64006//Frg1//
NAlpha2: 70
NElect   70
Mult     1
Symmetry turned off for PCM/SM12/SMD calculation

Checking the input file for inconsistencies... 	...done.

--------------------------------------------------------------
User input:
--------------------------------------------------------------
$molecule
0 1
 6	2.7745417728	4.5760613001	-0.2144901841
 6	1.1265417728	1.3430613001	0.8235098159
 6	1.0475417728	2.7320613001	0.5555098159
 6	2.3615417728	3.1710613001	0.1575098159
 6	3.1515417728	2.0650613001	0.1935098159
 6	-1.1774582272	1.2530613001	1.3705098159
 6	0.0275417728	0.5980613001	1.2255098159
 6	-1.2874582272	2.6290613001	1.1205098159
 6	-0.1874582272	3.3750613001	0.7105098159
 7	2.4225417728	0.9710613001	0.5925098159
 1	-2.0524582272	0.6960613001	1.6805098159
 1	0.1115417728	-0.4649386999	1.3875098159
 1	-2.2464582272	3.1160613001	1.2455098159
 1	-0.2774582272	4.4350613001	0.5185098159
 1	2.7885417728	0.0250613001	0.6865098159
 1	4.2035417728	2.0590613001	-0.0414901841
 1	1.9135417728	5.1010613001	-0.6274901841
 1	3.5315417728	4.5170613001	-0.9944901841
 1	3.1672617728	5.1532893001	0.6355598159
$end
$rem
EDA2		1
METHOD		WB97X-V
BASIS		DEF2-TZVPD
XC_GRID		000099000590
NL_GRID		1
UNRESTRICTED		FALSE
MAX_SCF_CYCLES		200
SYMMETRY		FALSE
SYM_IGNORE		TRUE
BASIS_LIN_DEP_THRESH		6
THRESH		14
SCF_CONVERGENCE		8
SCF_PRINT_FRGM		TRUE
SOLVENT_METHOD		SMD
!required keywords
JOBTYPE		SP
SYM_IGNORE		TRUE
SUBSYSTEM		TRUE
GEN_SCFMAN		TRUE
CHILD_INSTRUCTION		2
SYM_IGNORE		TRUE
SCFMI		0
RI_K 0		
PARI_K 0		
MIN_PARI_K 0		
IARI_K 0		
OCC_RI_K 0		
PURECART		1111
MEM_STATIC		2000
MEM_TOTAL		2000
GUI		0
CHILD_MP		1
CHILD_MP_ORDERS		232
FRZ_RELAX		0
FRZ_RELAX_METHOD		0
EDA_CLS_ELEC		1
EDA_CLS_DISP		0
FRZ_ORTHO_DECOMP		1
EDA2		FALSE
FRGM_METHOD		FALSE
CIS_N_ROOTS  0
LOCAL_CIS    0
CIS_RLX_DNS  1
$end
$smx
SOLVENT			WATER
$end
--------------------------------------------------------------
 ----------------------------------------------------------------
             Standard Nuclear Orientation (Angstroms)
    I     Atom           X                Y                Z
 ----------------------------------------------------------------
    1      C       2.7745417728     4.5760613001    -0.2144901841
    2      C       1.1265417728     1.3430613001     0.8235098159
    3      C       1.0475417728     2.7320613001     0.5555098159
    4      C       2.3615417728     3.1710613001     0.1575098159
    5      C       3.1515417728     2.0650613001     0.1935098159
    6      C      -1.1774582272     1.2530613001     1.3705098159
    7      C       0.0275417728     0.5980613001     1.2255098159
    8      C      -1.2874582272     2.6290613001     1.1205098159
    9      C      -0.1874582272     3.3750613001     0.7105098159
   10      N       2.4225417728     0.9710613001     0.5925098159
   11      H      -2.0524582272     0.6960613001     1.6805098159
   12      H       0.1115417728    -0.4649386999     1.3875098159
   13      H      -2.2464582272     3.1160613001     1.2455098159
   14      H      -0.2774582272     4.4350613001     0.5185098159
   15      H       2.7885417728     0.0250613001     0.6865098159
   16      H       4.2035417728     2.0590613001    -0.0414901841
   17      H       1.9135417728     5.1010613001    -0.6274901841
   18      H       3.5315417728     4.5170613001    -0.9944901841
   19      H       3.1672617728     5.1532893001     0.6355598159
 ----------------------------------------------------------------
 Nuclear Repulsion Energy =         484.83989187 hartrees
 There are       35 alpha and       35 beta electrons
 Requested basis set is def2-TZVPD
 There are 175 shells and 451 basis functions

 Total QAlloc Memory Limit   2000 MB
 Mega-Array Size      1956 MB
 MEM_STATIC part      2000 MB

 Citation of the SMD model:
 Marenich, A.V.; Cramer, C.J.; Truhlar, D.G.
 J. Phys. Chem. B 2009, 113, 6378-6396.
 iSolventCode=           1
 Solvent: water                                                           

 vradii
            1           2           3           4           5           6
    1   1.8500000   1.8500000   1.8500000   1.8500000   1.8500000   1.8500000
            7           8           9          10          11          12
    1   1.8500000   1.8500000   1.8500000   1.8900000   1.2000000   1.2000000
           13          14          15          16          17          18
    1   1.2000000   1.2000000   1.2000000   1.2000000   1.2000000   1.2000000
           19
    1   1.2000000
 Changing PCM_VDW_RADII to SMD_RADIUS
 Discretize the solute cavity surface with Lebedev spheres
	Using 110 Lebedev grid points for each H atom
	Using 194 Lebedev grid points for other atoms
	Atomic van der Waals radii will be scaled by 1.20
 Remove points where switching function is < 1.0e-08
 Keep 1354 surface tesserae and discard 1576 interior tesserae
 Molecular Surface Area = 164.942 Angst**2
 A cutoff of  1.0D-14 yielded  14461 shell pairs
 There are     98231 function pairs (    126403 Cartesian)
 Smallest overlap matrix eigenvalue = 5.01E-07
 Linear dependence detected in AO basis
 Tighter screening thresholds may be required for diffuse basis sets
 Use S2THRESH > 14 and THRESH = 14 in case of SCF convergence issues
 Number of orthogonalized atomic orbitals = 448
 Maximum deviation from orthogonality = 1.749E-10

 Scale SEOQF with 1.000000e-01/1.000000e-02/1.000000e-01

 Standard Electronic Orientation quadrupole field applied
 Nucleus-field energy     =     0.0000000082 hartrees
 Guess from superposition of atomic densities
 Warning:  Energy on first SCF cycle will be non-variational
 SAD guess density has 70.000000 electrons

 -----------------------------------------------------------------------
  General SCF calculation program by
  Eric Jon Sundstrom, Paul Horn, Yuezhi Mao, Dmitri Zuev, Alec White,
  David Stuck, Shaama M.S., Shane Yost, Joonho Lee, David Small,
  Daniel Levine, Susi Lehtola, Hugh Burton, Evgeny Epifanovsky,
  Bang C. Huynh
 -----------------------------------------------------------------------
 Exchange:     0.1670 Hartree-Fock + 1.0000 wB97X-V + LR-HF
 Correlation:  1.0000 wB97X-V
 Using Euler-Maclaurin-Lebedev (99,590) quadrature formula
 Nonlocal Correlation:  VV10 with C = 0.0100 and b = 6.00 and scale = 1.00000
 Grid used for NLC:  SG-1 standard quadrature
Energy prior to optimization (guess energy) = -403.081763950440
Begin Timing: Total SCF Calculation
begin iterations for algorithm: DIIS         
the SCF tolerance is set to 1.00e-08
    1    -403.0817639504      1.66e-03     00000 
    2    -403.1346912861      1.20e-03     00000 
    3    -403.1747279580      2.49e-04     00000 
    4    -403.1766044302      1.18e-04     00000 
    5    -403.1770563832      3.93e-05     00000 
    6    -403.1771049604      1.21e-05     00000 
    7    -403.1771094436      4.27e-06     00000 
    8    -403.1771103737      9.75e-07     00000 
    9    -403.1771104725      4.42e-07     00000 
   10    -403.1771104934      2.23e-07     00000 
   11    -403.1771104996      7.13e-08     00000 
   12    -403.1771105005      3.06e-08     00000 
   13    -403.1771105006      1.09e-08     00000 
   14    -403.1771105006      3.56e-09     00000 Convergence criterion met
Timing for Total SCF: 2269.00s (wall), 13637.09s (cpu)
(3)  G-ENP(liq) elect-nuc-pol free energy of system     -403.177110501 a.u.
(4)  G-CDS(liq) cavity-dispersion-solvent structure 
     free energy                                                3.8349 kcal/mol
(6)  G-S(liq) free energy of system                     -403.170999277 a.u.
E_pcm = -0.0162912819
E_cds = 0.0061112232
Multipole orders to be included
        2
        3
computing dipole RHS
computing quadrupole RHS
total number of RHS in solve_reponses: 8
RHS batch sizes
        8
Beginning Block Conjugate Gradient Iterations. Batch Number: 0
computing hessian-vector products by finite difference
              1      6.56e-01     00000 Conjugate Gradient Iteration
computing hessian-vector products by finite difference
              2      2.12e-01     00000 Conjugate Gradient Iteration
computing hessian-vector products by finite difference
              3      6.62e-02     00000 Conjugate Gradient Iteration
computing hessian-vector products by finite difference
              4      2.61e-02     00000 Conjugate Gradient Iteration
computing hessian-vector products by finite difference
              5      9.26e-03     00000 Conjugate Gradient Iteration
computing hessian-vector products by finite difference
              6      2.58e-03     00000 Conjugate Gradient Iteration
computing hessian-vector products by finite difference
              7      6.26e-04     00000 Conjugate Gradient Iteration
computing hessian-vector products by finite difference
              8      1.18e-04     00000 Conjugate Gradient Iteration
computing hessian-vector products by finite difference
              9      2.52e-05     00000 Conjugate Gradient Iteration
computing hessian-vector products by finite difference
             10      5.66e-06     00000 Conjugate Gradient Iteration
computing hessian-vector products by finite difference
             11      9.74e-07     00000 Conjugate Gradient Iteration
computing hessian-vector products by finite difference
             12      1.89e-07     00000 Conjugate Gradient Iteration
computing hessian-vector products by finite difference
             13      5.23e-08     00000 Conjugate Gradient Iteration
computing hessian-vector products by finite difference
             14      9.80e-09     00000 CG Converged
batch 0 complete
Done Calculating Responses
TESTING ORTHOGONALIZATION OF MULTIPOLE BASIS
Multipole virts passed orthogonality test
Virts Per Order
          105
          175

 --------------------------------------------------------------

                    Orbital Energies (a.u.)
 --------------------------------------------------------------

 Alpha MOs
 -- Occupied --
-14.4433 -10.2972 -10.2892 -10.2670 -10.2664 -10.2640 -10.2634 -10.2606
-10.2582 -10.2554  -1.1115  -0.9768  -0.9259  -0.8652  -0.8573  -0.8116
 -0.7418  -0.7093  -0.6729  -0.6454  -0.5943  -0.5788  -0.5512  -0.5453
 -0.5337  -0.5108  -0.5069  -0.4878  -0.4757  -0.4510  -0.4476  -0.4278
 -0.3768  -0.3137  -0.2894
 -- Virtual --
  0.0572   0.0644   0.0799   0.0824   0.0940   0.1024   0.1040   0.1108
  0.1320   0.1352   0.1401   0.1514   0.1622   0.1691   0.1788   0.1822
  0.1900   0.1980   0.2040   0.2123   0.2179   0.2262   0.2321   0.2488
  0.2527   0.2578   0.2633   0.2654   0.2692   0.2780   0.2795   0.2814
  0.2844   0.2878   0.2947   0.2962   0.3061   0.3112   0.3171   0.3248
  0.3286   0.3337   0.3383   0.3429   0.3451   0.3466   0.3527   0.3552
  0.3596   0.3698   0.3769   0.3792   0.3822   0.3901   0.3941   0.3981
  0.4023   0.4103   0.4157   0.4176   0.4220   0.4233   0.4299   0.4420
  0.4426   0.4501   0.4542   0.4583   0.4607   0.4633   0.4681   0.4741
  0.4860   0.4959   0.4993   0.5006   0.5036   0.5184   0.5226   0.5280
  0.5330   0.5391   0.5438   0.5485   0.5521   0.5545   0.5648   0.5665
  0.5748   0.5784   0.5874   0.5945   0.6063   0.6136   0.6222   0.6279
  0.6370   0.6450   0.6479   0.6519   0.6566   0.6761   0.6785   0.6852
  0.6911   0.6948   0.7026   0.7089   0.7159   0.7192   0.7286   0.7391
  0.7402   0.7477   0.7557   0.7561   0.7622   0.7681   0.7766   0.7796
  0.7842   0.7898   0.7943   0.7982   0.8036   0.8052   0.8150   0.8177
  0.8252   0.8353   0.8373   0.8411   0.8453   0.8520   0.8604   0.8653
  0.8706   0.8804   0.8864   0.8940   0.9041   0.9091   0.9146   0.9367
  0.9444   0.9535   0.9639   0.9858   0.9929   1.0050   1.0106   1.0164
  1.0430   1.0444   1.0533   1.0671   1.0728   1.0851   1.0912   1.1011
  1.1182   1.1254   1.1442   1.1488   1.1720   1.1899   1.2005   1.2255
  1.2345   1.2537   1.2639   1.2674   1.3034   1.3144   1.3457   1.3488
  1.3796   1.3983   1.4000   1.4159   1.4298   1.4515   1.4570   1.4705
  1.5177   1.5538   1.5622   1.5673   1.5840   1.5912   1.6147   1.6185
  1.6458   1.6621   1.6974   1.7039   1.7273   1.7342   1.7461   1.7794
  1.7952   1.8285   1.8513   1.8554   1.8666   1.8725   1.8837   1.8942
  1.9036   1.9227   1.9405   1.9478   1.9592   1.9696   1.9789   1.9855
  1.9993   2.0010   2.0055   2.0300   2.0382   2.0605   2.0680   2.0806
  2.0963   2.1245   2.1419   2.1752   2.1879   2.1998   2.2150   2.2205
  2.2520   2.2859   2.2989   2.3186   2.3287   2.3672   2.3740   2.3778
  2.4084   2.4326   2.4491   2.4629   2.4904   2.5057   2.5181   2.5517
  2.5610   2.5728   2.6010   2.6136   2.6288   2.6574   2.6643   2.6822
  2.6857   2.7287   2.7558   2.7651   2.7746   2.7858   2.8026   2.8115
  2.8184   2.8411   2.8526   2.8683   2.8853   2.8922   2.9046   2.9157
  2.9262   2.9462   2.9650   2.9811   2.9933   3.0107   3.0327   3.0353
  3.0422   3.0727   3.0822   3.0933   3.1017   3.1347   3.1559   3.1646
  3.1675   3.1958   3.2122   3.2256   3.2419   3.2526   3.2619   3.2689
  3.2901   3.3035   3.3068   3.3242   3.3629   3.3650   3.3795   3.3988
  3.4064   3.4149   3.4260   3.4408   3.4497   3.4565   3.4732   3.4826
  3.4977   3.5086   3.5149   3.5247   3.5297   3.5417   3.5584   3.5768
  3.5848   3.5951   3.6108   3.6311   3.6451   3.6610   3.6681   3.6774
  3.7041   3.7192   3.7231   3.7271   3.7533   3.7627   3.7894   3.7950
  3.8116   3.8580   3.8698   3.9110   3.9393   3.9433   3.9890   4.0279
  4.0482   4.0662   4.1140   4.1503   4.1741   4.1987   4.2211   4.2373
  4.2618   4.2732   4.2870   4.2993   4.3222   4.3614   4.3626   4.3675
  4.4105   4.4245   4.4334   4.4664   4.4806   4.5288   4.5661   4.5935
  4.6398   4.6487   4.6648   4.7604   4.7939   4.8105   4.8446   4.9322
  4.9348   4.9652   4.9765   4.9959   5.0005   5.0662   5.0739   5.1124
  5.1406   5.1557   5.2074   5.2194   5.2709   5.3912   5.4159   5.4520
  5.5046   5.5495   5.5964   5.6476   5.7127   5.8144   5.8347   5.9538
  5.9752   6.2798   6.3473  22.6405  22.7532  22.9284  22.9630  22.9848
 23.2068  23.2707  23.4525  23.8016  32.8448
 --------------------------------------------------------------

          Ground-State Mulliken Net Atomic Charges

     Atom                 Charge (a.u.)
  ----------------------------------------
      1 C                    -1.042398
      2 C                    -0.129694
      3 C                     0.343578
      4 C                     0.732741
      5 C                    -0.791686
      6 C                    -0.449748
      7 C                    -0.650730
      8 C                    -0.625485
      9 C                    -0.513577
     10 N                     0.127503
     11 H                     0.401935
     12 H                     0.418981
     13 H                     0.415277
     14 H                     0.399999
     15 H                     0.221279
     16 H                     0.320525
     17 H                     0.296277
     18 H                     0.291264
     19 H                     0.233958
  ----------------------------------------
  Sum of atomic charges =     0.000000

 -----------------------------------------------------------------
                    Cartesian Multipole Moments
 -----------------------------------------------------------------
    Charge (ESU x 10^10)
                -0.0000
    Dipole Moment (Debye)
         X       2.4267      Y      -1.8075      Z      -0.2584
       Tot       3.0369
    Quadrupole Moments (Debye-Ang)
        XX     -45.9512     XY      -0.1172     YY     -56.7920
        XZ      -1.1426     YZ      -4.0310     ZZ     -64.2227
    Octopole Moments (Debye-Ang^2)
       XXX    -139.7950    XXY    -125.1332    XYY     -56.6385
       YYY    -386.6795    XXZ     -34.6474    XYZ      -6.8299
       YYZ     -45.4592    XZZ     -65.6885    YZZ    -151.8719
       ZZZ    -125.6084
    Hexadecapole Moments (Debye-Ang^3)
      XXXX   -1184.3519   XXXY    -481.0312   XXYY    -620.6253
      XYYY    -509.0879   YYYY   -2450.2700   XXXZ      -6.6864
      XXYZ     -70.0112   XYYZ      -9.2245   YYYZ    -195.9982
      XXZZ    -293.1709   XYZZ    -183.5592   YYZZ    -521.4121
      XZZZ      12.4015   YZZZ    -206.2017   ZZZZ    -349.9310
 -----------------------------------------------------------------
Archival summary:
1\1\compute-0-8.local\SP\ProcedureUnspecified\BasisUnspecified\199\meili\ThuSep3006:36:052021ThuSep3006:36:052021\0\\#,ProcedureUnspecified,BasisUnspecified,\\0,1\C\C,1,1.40096\H,2,1.081,1,120.251\C,2,1.3909,1,118.922,3,-179.67,0\H,4,1.08281,2,119.553,1,179.878,0\C,4,1.40285,2,121.104,1,-0.370807,0\H,6,1.08258,4,119.493,2,-179.487,0\C,6,1.37916,4,121.038,2,0.407586,0\H,8,1.07855,6,121.355,4,-178.133,0\C,8,1.38724,6,117.878,4,-0.057396,0\N,10,1.36798,8,130.801,6,-179.564,0\H,11,1.01868,10,125.263,8,0.277633,0\C,11,1.37386,10,109.585,8,179.333,0\H,13,1.07794,11,125.221,10,179.155,0\C,13,1.35964,11,110.312,10,0.20203,0\C,15,1.51095,13,127.165,11,179.34,0\H,16,1.08854,15,108.427,13,34.8904,0\H,16,1.08973,15,108.986,13,151.859,0\H,16,1.1,15,113.284,13,-86.8805,0\\\@

 Total job time:  43206.00s(wall), 271153.05s(cpu) 
 Thu Sep 30 06:36:05 2021

        *************************************************************
        *                                                           *
        *  Thank you very much for using Q-Chem.  Have a nice day.  *
        *                                                           *
        *************************************************************


Done Job For Fragment 0
calling putenv with: QCSCRATCH=/home/meili/scratch 
calling putenv with: QCTHREADS=8 
Creating input file /home/meili/scratch/qchem64006/Frg2.input
using default PutDataFrgm: nothing
calling putenv with: QCSCRATCH=/home/meili/scratch/qchem64006/ 
Spawning Job For Fragment 1
                  Welcome to Q-Chem
     A Quantum Leap Into The Future Of Chemistry


 Q-Chem 5.2 (devel), Q-Chem, Inc., Pleasanton, CA (2019)

 Yihan Shao,  Zhengting Gan,  E. Epifanovsky,  A. T. B. Gilbert,  M. Wormit,  
 J. Kussmann,  A. W. Lange,  A. Behn,  Jia Deng,  Xintian Feng,  D. Ghosh,  
 M. Goldey,  P. R. Horn,  L. D. Jacobson,  I. Kaliman,  T. Kus,  A. Landau,  
 Jie Liu,  E. I. Proynov,  R. M. Richard,  R. P. Steele,  E. J. Sundstrom,  
 H. L. Woodcock III,  P. M. Zimmerman,  D. Zuev,  B. Albrecht,  E. Alguire,  
 S. A. Baeppler,  D. Barton,  Z. Benda,  Y. A. Bernard,  E. J. Berquist,  
 K. B. Bravaya,  H. Burton,  D. Casanova,  Chun-Min Chang,  Yunqing Chen,  
 A. Chien,  K. D. Closser,  M. P. Coons,  S. Coriani,  S. Dasgupta,  
 A. L. Dempwolff,  M. Diedenhofen,  Hainam Do,  R. G. Edgar,  Po-Tung Fang,  
 S. Faraji,  S. Fatehi,  Qingguo Feng,  K. D. Fenk,  J. Fosso-Tande,  
 J. Gayvert,  Qinghui Ge,  A. Ghysels,  G. Gidofalvi,  J. Gomes,  
 J. Gonthier,  A. Gunina,  D. Hait,  M. W. D. Hanson-Heine,  
 P. H. P. Harbach,  A. W. Hauser,  M. F. Herbst,  J. E. Herr,  
 E. G. Hohenstein,  Z. C. Holden,  Kerwin Hui,  B. C. Huynh,  T.-C. Jagau,  
 Hyunjun Ji,  B. Kaduk,  K. Khistyaev,  Jaehoon Kim,  P. Klunzinger,  K. Koh,  
 D. Kosenkov,  L. Koulias,  T. Kowalczyk,  C. M. Krauter,  A. Kunitsa,  
 Ka Un Lao,  A. Laurent,  K. V. Lawler,  Joonho Lee,  D. Lefrancois,  
 S. Lehtola,  D. S. Levine,  Yi-Pei Li,  You-Sheng Lin,  Fenglai Liu,  
 E. Livshits,  A. Luenser,  P. Manohar,  E. Mansoor,  S. F. Manzer,  
 Shan-Ping Mao,  Yuezhi Mao,  N. Mardirossian,  A. V. Marenich,  
 T. Markovich,  L. A. Martinez-Martinez,  S. A. Maurer,  N. J. Mayhall,  
 S. C. McKenzie,  J.-M. Mewes,  P. Morgante,  A. F. Morrison,  
 J. W. Mullinax,  K. Nanda,  T. S. Nguyen-Beck,  R. Olivares-Amaya,  
 J. A. Parkhill,  Zheng Pei,  T. M. Perrine,  F. Plasser,  P. Pokhilko,  
 S. Prager,  A. Prociuk,  E. Ramos,  D. R. Rehn,  F. Rob,  M. Scheurer,  
 M. Schneider,  N. Sergueev,  S. M. Sharada,  S. Sharma,  D. W. Small,  
 T. Stauch,  T. Stein,  Yu-Chuan Su,  A. J. W. Thom,  A. Tkatchenko,  
 T. Tsuchimochi,  N. M. Tubman,  L. Vogt,  M. L. Vidal,  O. Vydrov,  
 M. A. Watson,  J. Wenzel,  M. de Wergifosse,  T. A. Wesolowski,  A. White,  
 J. Witte,  A. Yamada,  Jun Yang,  K. Yao,  S. Yeganeh,  S. R. Yost,  
 Zhi-Qiang You,  A. Zech,  Igor Ying Zhang,  Xing Zhang,  Yan Zhao,  
 Ying Zhu,  B. R. Brooks,  G. K. L. Chan,  C. J. Cramer,  M. S. Gordon,  
 W. J. Hehre,  A. Klamt,  M. W. Schmidt,  C. D. Sherrill,  D. G. Truhlar,  
 A. Aspuru-Guzik,  R. Baer,  A. T. Bell,  N. A. Besley,  Jeng-Da Chai,  
 A. E. DePrince, III,  R. A. DiStasio Jr.,  A. Dreuw,  B. D. Dunietz,  
 T. R. Furlani,  Chao-Ping Hsu,  Yousung Jung,  Jing Kong,  D. S. Lambrecht,  
 WanZhen Liang,  C. Ochsenfeld,  V. A. Rassolov,  L. V. Slipchenko,  
 J. E. Subotnik,  T. Van Voorhis,  J. M. Herbert,  A. I. Krylov,  
 P. M. W. Gill,  M. Head-Gordon

 Contributors to earlier versions of Q-Chem not listed above: 
 R. D. Adamson,  B. Austin,  J. Baker,  G. J. O. Beran,  K. Brandhorst,  
 S. T. Brown,  E. F. C. Byrd,  A. K. Chakraborty,  C.-L. Cheng,  
 Siu Hung Chien,  D. M. Chipman,  D. L. Crittenden,  H. Dachsel,  
 R. J. Doerksen,  A. D. Dutoi,  L. Fusti-Molnar,  W. A. Goddard III,  
 A. Golubeva-Zadorozhnaya,  S. R. Gwaltney,  G. Hawkins,  A. Heyden,  
 S. Hirata,  G. Kedziora,  F. J. Keil,  C. Kelley,  Jihan Kim,  R. A. King,  
 R. Z. Khaliullin,  P. P. Korambath,  W. Kurlancheek,  A. M. Lee,  M. S. Lee,  
 S. V. Levchenko,  Ching Yeh Lin,  D. Liotard,  R. C. Lochan,  I. Lotan,  
 P. E. Maslen,  N. Nair,  D. P. O'Neill,  D. Neuhauser,  E. Neuscamman,  
 C. M. Oana,  R. Olson,  B. Peters,  R. Peverati,  P. A. Pieniazek,  
 Y. M. Rhee,  J. Ritchie,  M. A. Rohrdanz,  E. Rosta,  N. J. Russ,  
 H. F. Schaefer III,  N. E. Schultz,  N. Shenvi,  A. C. Simmonett,  A. Sodt,  
 D. Stuck,  K. S. Thanthiriwatte,  V. Vanovschi,  Tao Wang,  A. Warshel,  
 C. F. Williams,  Q. Wu,  X. Xu,  W. Zhang

 Please cite Q-Chem as follows:
 Y. Shao et al., Mol. Phys. 113, 184-215 (2015)
 DOI: 10.1080/00268976.2014.952696

 Q-Chem 5.2.1 for Intel X86 EM64T Linux

 Parts of Q-Chem use Armadillo 8.300.2 (Tropical Shenanigans).
 http://arma.sourceforge.net/

 Q-Chem begins on Thu Sep 30 06:36:06 2021  

compute-0-8.local
Host: 0

     Scratch files written to /home/meili/scratch/qchem64006//Frg2//
NAlpha2: 58
NElect   58
Mult     1
Symmetry turned off for PCM/SM12/SMD calculation

Checking the input file for inconsistencies... 	...done.

--------------------------------------------------------------
User input:
--------------------------------------------------------------
$molecule
0 1
 6	1.2235417728	-4.2459386999	-1.1324901841
 6	-1.3404582272	-1.4299386999	-1.0594901841
 6	-0.1524582272	-2.1359386999	-1.2464901841
 6	-2.4704582272	-2.0889386999	-0.6004901841
 6	-0.0774582272	-3.5009386999	-0.9664901841
 6	-2.4164582272	-3.4559386999	-0.3214901841
 6	-1.2154582272	-4.1539386999	-0.4954901841
 8	-3.6124582272	-1.3779386999	-0.4354901841
 1	-1.3794582272	-0.3709386999	-1.2624901841
 1	0.7325417728	-1.6149386999	-1.5844901841
 1	-3.4804582272	-0.4419386999	-0.5904901841
 1	-3.3004582272	-3.9619386999	0.0345098159
 1	1.6995417728	-3.9429386999	-2.0604901841
 1	1.0015417728	-5.3099386999	-1.2274901841
 1	-1.1734582272	-5.2099386999	-0.2674901841
 1	1.9105717728	-4.1122506999	-0.2838901841
$end
$rem
EDA2		1
METHOD		WB97X-V
BASIS		DEF2-TZVPD
XC_GRID		000099000590
NL_GRID		1
UNRESTRICTED		FALSE
MAX_SCF_CYCLES		200
SYMMETRY		FALSE
SYM_IGNORE		TRUE
BASIS_LIN_DEP_THRESH		6
THRESH		14
SCF_CONVERGENCE		8
SCF_PRINT_FRGM		TRUE
SOLVENT_METHOD		SMD
!required keywords
JOBTYPE		SP
SYM_IGNORE		TRUE
SUBSYSTEM		TRUE
GEN_SCFMAN		TRUE
CHILD_INSTRUCTION		2
SYM_IGNORE		TRUE
SCFMI		0
RI_K 0		
PARI_K 0		
MIN_PARI_K 0		
IARI_K 0		
OCC_RI_K 0		
PURECART		1111
MEM_STATIC		2000
MEM_TOTAL		2000
GUI		0
CHILD_MP		1
CHILD_MP_ORDERS		232
FRZ_RELAX		0
FRZ_RELAX_METHOD		0
EDA_CLS_ELEC		1
EDA_CLS_DISP		0
FRZ_ORTHO_DECOMP		1
EDA2		FALSE
FRGM_METHOD		FALSE
CIS_N_ROOTS  0
LOCAL_CIS    0
CIS_RLX_DNS  1
$end
$smx
SOLVENT			WATER
$end
--------------------------------------------------------------
 ----------------------------------------------------------------
             Standard Nuclear Orientation (Angstroms)
    I     Atom           X                Y                Z
 ----------------------------------------------------------------
    1      C       1.2235417728    -4.2459386999    -1.1324901841
    2      C      -1.3404582272    -1.4299386999    -1.0594901841
    3      C      -0.1524582272    -2.1359386999    -1.2464901841
    4      C      -2.4704582272    -2.0889386999    -0.6004901841
    5      C      -0.0774582272    -3.5009386999    -0.9664901841
    6      C      -2.4164582272    -3.4559386999    -0.3214901841
    7      C      -1.2154582272    -4.1539386999    -0.4954901841
    8      O      -3.6124582272    -1.3779386999    -0.4354901841
    9      H      -1.3794582272    -0.3709386999    -1.2624901841
   10      H       0.7325417728    -1.6149386999    -1.5844901841
   11      H      -3.4804582272    -0.4419386999    -0.5904901841
   12      H      -3.3004582272    -3.9619386999     0.0345098159
   13      H       1.6995417728    -3.9429386999    -2.0604901841
   14      H       1.0015417728    -5.3099386999    -1.2274901841
   15      H      -1.1734582272    -5.2099386999    -0.2674901841
   16      H       1.9105717728    -4.1122506999    -0.2838901841
 ----------------------------------------------------------------
 Nuclear Repulsion Energy =         343.20197781 hartrees
 There are       29 alpha and       29 beta electrons
 Requested basis set is def2-TZVPD
 There are 145 shells and 371 basis functions

 Total QAlloc Memory Limit   2000 MB
 Mega-Array Size      1956 MB
 MEM_STATIC part      2000 MB

 Citation of the SMD model:
 Marenich, A.V.; Cramer, C.J.; Truhlar, D.G.
 J. Phys. Chem. B 2009, 113, 6378-6396.
 iSolventCode=           1
 Solvent: water                                                           

 vradii
            1           2           3           4           5           6
    1   1.8500000   1.8500000   1.8500000   1.8500000   1.8500000   1.8500000
            7           8           9          10          11          12
    1   1.8500000   1.5200000   1.2000000   1.2000000   1.2000000   1.2000000
           13          14          15          16
    1   1.2000000   1.2000000   1.2000000   1.2000000
 Changing PCM_VDW_RADII to SMD_RADIUS
 Discretize the solute cavity surface with Lebedev spheres
	Using 110 Lebedev grid points for each H atom
	Using 194 Lebedev grid points for other atoms
	Atomic van der Waals radii will be scaled by 1.20
 Remove points where switching function is < 1.0e-08
 Keep 1174 surface tesserae and discard 1258 interior tesserae
 Molecular Surface Area = 141.407 Angst**2
 A cutoff of  1.0D-14 yielded  10046 shell pairs
 There are     67096 function pairs (     85798 Cartesian)
 Smallest overlap matrix eigenvalue = 5.56E-07
 Linear dependence detected in AO basis
 Tighter screening thresholds may be required for diffuse basis sets
 Use S2THRESH > 14 and THRESH = 14 in case of SCF convergence issues
 Number of orthogonalized atomic orbitals = 370
 Maximum deviation from orthogonality = 3.040E-10

 Scale SEOQF with 1.000000e-01/1.000000e-02/1.000000e-01

 Standard Electronic Orientation quadrupole field applied
 Nucleus-field energy     =     0.0000000076 hartrees
 Guess from superposition of atomic densities
 Warning:  Energy on first SCF cycle will be non-variational
 SAD guess density has 58.000000 electrons

 -----------------------------------------------------------------------
  General SCF calculation program by
  Eric Jon Sundstrom, Paul Horn, Yuezhi Mao, Dmitri Zuev, Alec White,
  David Stuck, Shaama M.S., Shane Yost, Joonho Lee, David Small,
  Daniel Levine, Susi Lehtola, Hugh Burton, Evgeny Epifanovsky,
  Bang C. Huynh
 -----------------------------------------------------------------------
 Exchange:     0.1670 Hartree-Fock + 1.0000 wB97X-V + LR-HF
 Correlation:  1.0000 wB97X-V
 Using Euler-Maclaurin-Lebedev (99,590) quadrature formula
 Nonlocal Correlation:  VV10 with C = 0.0100 and b = 6.00 and scale = 1.00000
 Grid used for NLC:  SG-1 standard quadrature
Energy prior to optimization (guess energy) = -346.732024398557
Begin Timing: Total SCF Calculation
begin iterations for algorithm: DIIS         
the SCF tolerance is set to 1.00e-08
    1    -346.7320243986      2.19e-03     00000 
    2    -346.7839800892      1.72e-03     00000 
    3    -346.8232551413      3.05e-04     00000 
    4    -346.8250526577      1.33e-04     00000 
    5    -346.8254590171      3.81e-05     00000 
    6    -346.8254915826      1.21e-05     00000 
    7    -346.8254950341      5.48e-06     00000 
    8    -346.8254957647      1.22e-06     00000 
    9    -346.8254958438      5.26e-07     00000 
   10    -346.8254958585      2.64e-07     00000 
   11    -346.8254958624      7.05e-08     00000 
   12    -346.8254958629      2.73e-08     00000 
   13    -346.8254958629      1.04e-08     00000 
   14    -346.8254958629      3.14e-09     00000 Convergence criterion met
Timing for Total SCF: 1114.00s (wall), 6674.14s (cpu)
(3)  G-ENP(liq) elect-nuc-pol free energy of system     -346.825495863 a.u.
(4)  G-CDS(liq) cavity-dispersion-solvent structure 
     free energy                                                3.8264 kcal/mol
(6)  G-S(liq) free energy of system                     -346.819398143 a.u.
E_pcm = -0.0173821064
E_cds = 0.0060977203
Multipole orders to be included
        2
        3
computing dipole RHS
computing quadrupole RHS
total number of RHS in solve_reponses: 8
RHS batch sizes
        8
Beginning Block Conjugate Gradient Iterations. Batch Number: 0
computing hessian-vector products by finite difference
              1      6.61e-01     00000 Conjugate Gradient Iteration
computing hessian-vector products by finite difference
              2      1.97e-01     00000 Conjugate Gradient Iteration
computing hessian-vector products by finite difference
              3      5.37e-02     00000 Conjugate Gradient Iteration
computing hessian-vector products by finite difference
              4      1.74e-02     00000 Conjugate Gradient Iteration
computing hessian-vector products by finite difference
              5      4.58e-03     00000 Conjugate Gradient Iteration
computing hessian-vector products by finite difference
              6      1.78e-03     00000 Conjugate Gradient Iteration
computing hessian-vector products by finite difference
              7      4.14e-04     00000 Conjugate Gradient Iteration
computing hessian-vector products by finite difference
              8      8.14e-05     00000 Conjugate Gradient Iteration
computing hessian-vector products by finite difference
              9      1.53e-05     00000 Conjugate Gradient Iteration
computing hessian-vector products by finite difference
             10      2.12e-06     00000 Conjugate Gradient Iteration
computing hessian-vector products by finite difference
             11      3.13e-07     00000 Conjugate Gradient Iteration
computing hessian-vector products by finite difference
             12      5.68e-08     00000 Conjugate Gradient Iteration
computing hessian-vector products by finite difference
             13      9.87e-09     00000 CG Converged
batch 0 complete
Done Calculating Responses
TESTING ORTHOGONALIZATION OF MULTIPOLE BASIS
Multipole virts passed orthogonality test
Virts Per Order
           87
          145

 --------------------------------------------------------------

                    Orbital Energies (a.u.)
 --------------------------------------------------------------

 Alpha MOs
 -- Occupied --
-19.2393 -10.3304 -10.2708 -10.2696 -10.2680 -10.2674 -10.2644 -10.2522
 -1.1937  -0.9900  -0.8958  -0.8779  -0.8042  -0.7431  -0.7094  -0.6610
 -0.5982  -0.5743  -0.5442  -0.5383  -0.5263  -0.5175  -0.5049  -0.4698
 -0.4488  -0.4399  -0.4339  -0.3484  -0.3096
 -- Virtual --
  0.0628   0.0637   0.0745   0.0827   0.0889   0.0997   0.1140   0.1160
  0.1187   0.1367   0.1509   0.1568   0.1600   0.1773   0.1817   0.1977
  0.2082   0.2107   0.2224   0.2300   0.2408   0.2459   0.2560   0.2588
  0.2678   0.2738   0.2781   0.2808   0.2879   0.3010   0.3012   0.3064
  0.3101   0.3143   0.3177   0.3285   0.3379   0.3469   0.3504   0.3561
  0.3600   0.3628   0.3670   0.3774   0.3812   0.3843   0.3878   0.3980
  0.3994   0.4020   0.4034   0.4119   0.4203   0.4264   0.4299   0.4374
  0.4407   0.4578   0.4611   0.4635   0.4773   0.4788   0.4811   0.4865
  0.4945   0.4984   0.5034   0.5093   0.5171   0.5203   0.5309   0.5410
  0.5460   0.5530   0.5542   0.5627   0.5675   0.5725   0.5875   0.6004
  0.6027   0.6121   0.6204   0.6351   0.6412   0.6622   0.6703   0.6758
  0.6782   0.6859   0.6940   0.6982   0.7039   0.7054   0.7208   0.7332
  0.7370   0.7468   0.7496   0.7556   0.7626   0.7790   0.7872   0.7890
  0.7920   0.7963   0.7985   0.8040   0.8102   0.8167   0.8352   0.8429
  0.8480   0.8522   0.8587   0.8604   0.8696   0.8809   0.8878   0.8965
  0.9071   0.9156   0.9336   0.9534   0.9624   0.9820   0.9952   1.0154
  1.0242   1.0422   1.0450   1.0537   1.0593   1.0784   1.0799   1.0923
  1.1051   1.1231   1.1414   1.1732   1.2016   1.2367   1.2678   1.2990
  1.3086   1.3198   1.3339   1.3584   1.3709   1.3917   1.3936   1.4357
  1.4620   1.4744   1.4752   1.4874   1.5351   1.5706   1.6094   1.6239
  1.6352   1.6449   1.6876   1.6878   1.7079   1.7319   1.7913   1.8074
  1.8231   1.8359   1.8395   1.8677   1.8724   1.8866   1.9257   1.9343
  1.9464   1.9604   1.9773   1.9957   2.0023   2.0367   2.0416   2.0588
  2.0633   2.0795   2.0966   2.1120   2.1220   2.1601   2.2018   2.2129
  2.2268   2.2409   2.2816   2.2875   2.3114   2.3228   2.3515   2.3701
  2.4032   2.4131   2.4413   2.4737   2.4890   2.4983   2.5298   2.5630
  2.5833   2.6105   2.6198   2.6471   2.6564   2.6811   2.6927   2.7510
  2.7584   2.7665   2.7812   2.8057   2.8271   2.8394   2.8686   2.8828
  2.9137   2.9256   2.9447   2.9567   2.9686   2.9820   2.9841   3.0148
  3.0212   3.0480   3.0783   3.0889   3.1099   3.1308   3.1508   3.1741
  3.1860   3.2079   3.2255   3.2282   3.2505   3.2638   3.2867   3.2969
  3.3268   3.3616   3.3870   3.3905   3.3989   3.4202   3.4535   3.4634
  3.4703   3.4786   3.4957   3.5191   3.5268   3.5340   3.5424   3.5493
  3.5581   3.5760   3.5843   3.5945   3.6036   3.6286   3.6560   3.6757
  3.6896   3.7113   3.7434   3.7585   3.8067   3.8282   3.8509   3.8966
  3.9421   3.9654   3.9842   3.9974   4.0447   4.0893   4.1456   4.1854
  4.2533   4.2742   4.2906   4.3110   4.3216   4.3314   4.3405   4.3645
  4.3749   4.4024   4.4350   4.4590   4.5015   4.5435   4.6011   4.6136
  4.7383   4.7476   4.7923   4.8224   4.8724   4.9278   5.0315   5.0618
  5.0900   5.1322   5.1669   5.3054   5.3367   5.4073   5.4526   5.5435
  5.6212   5.6557   5.7216   5.7660   5.9643   6.2293   6.5119   6.6018
  6.6475   6.8810   7.0266   7.3033   7.4656  22.6755  22.6864  22.9436
 22.9886  23.0332  23.1980  23.5228  44.4299
 --------------------------------------------------------------

          Ground-State Mulliken Net Atomic Charges

     Atom                 Charge (a.u.)
  ----------------------------------------
      1 C                    -1.074628
      2 C                    -0.342617
      3 C                    -0.618082
      4 C                     0.672995
      5 C                     0.488403
      6 C                    -0.829902
      7 C                    -0.466565
      8 O                    -0.540443
      9 H                     0.371758
     10 H                     0.399059
     11 H                     0.322144
     12 H                     0.401190
     13 H                     0.294188
     14 H                     0.298382
     15 H                     0.381184
     16 H                     0.242933
  ----------------------------------------
  Sum of atomic charges =     0.000000

 -----------------------------------------------------------------
                    Cartesian Multipole Moments
 -----------------------------------------------------------------
    Charge (ESU x 10^10)
                -0.0000
    Dipole Moment (Debye)
         X       1.4431      Y       1.3657      Z      -0.4542
       Tot       2.0381
    Quadrupole Moments (Debye-Ang)
        XX     -52.4397     XY      -7.9967     YY     -43.8808
        XZ      -1.2116     YZ      -2.0535     ZZ     -50.3232
    Octopole Moments (Debye-Ang^2)
       XXX     198.2736    XXY     157.5242    XYY      61.7936
       YYY     362.9549    XXZ      39.0156    XYZ      10.8292
       YYZ      44.0886    XZZ      63.8455    YZZ     146.4174
       ZZZ     120.0351
    Hexadecapole Moments (Debye-Ang^3)
      XXXX   -1306.2472   XXXY    -424.2266   XXYY    -659.7701
      XYYY    -297.9355   YYYY   -2498.9964   XXXZ     -78.0046
      XXYZ    -132.6331   XYYZ     -56.1531   YYYZ    -335.0408
      XXZZ    -249.0934   XYZZ    -137.7916   YYZZ    -548.7607
      XZZZ     -83.9905   YZZZ    -336.9074   ZZZZ    -296.6744
 -----------------------------------------------------------------
Archival summary:
1\1\compute-0-8.local\SP\ProcedureUnspecified\BasisUnspecified\178\meili\ThuSep3012:21:182021ThuSep3012:21:182021\0\\#,ProcedureUnspecified,BasisUnspecified,\\0,1\C\O,1,1.35533\H,2,0.957886,1,112.135\C,1,1.38631,2,118.539,3,-5.18531,0\H,4,1.07899,1,119.959,2,0.921521,0\C,4,1.39454,1,119.876,2,-179.64,0\H,6,1.08116,4,119.689,1,-178.705,0\C,6,1.39544,4,120.937,1,-0.578246,0\C,8,1.39402,6,118.825,4,0.0834397,0\H,9,1.08115,8,119.806,6,-179.61,0\C,1,1.39623,2,121.458,3,174.933,0\H,11,1.07899,1,119.563,2,-0.0609026,0\C,8,1.50837,6,120.492,4,-178.135,0\H,13,1.08608,8,109.528,6,-43.3671,0\H,13,1.09106,8,108.406,6,-159.393,0\H,13,1.1,8,113.19,6,80.5296,0\\\@

 Total job time:  20712.36s(wall), 125476.38s(cpu) 
 Thu Sep 30 12:21:18 2021

        *************************************************************
        *                                                           *
        *  Thank you very much for using Q-Chem.  Have a nice day.  *
        *                                                           *
        *************************************************************


Done Job For Fragment 1
calling putenv with: QCSCRATCH=/home/meili/scratch 
calling putenv with: QCTHREADS=8 
Doing General SCFMI
 Exchange:     0.1670 Hartree-Fock + 1.0000 wB97X-V + LR-HF
 Correlation:  1.0000 wB97X-V
 Using Euler-Maclaurin-Lebedev (99,590) quadrature formula
 Nonlocal Correlation:  VV10 with C = 0.0100 and b = 6.00 and scale = 1.00000
 Grid used for NLC:  SG-1 standard quadrature
performing fock build before subrot guess so that all methods have access
Printing subrot_rss_gen Method Specification:
Occupied Subspace Method is 0
Virtual Subspace Method is 0
Energy of the unrelaxed supersystem initial determinant -749.973811018711
performing fock build before subrot guess so that all methods have access
Printing subrot_rss_gen Method Specification:
Occupied Subspace Method is 0
Virtual Subspace Method is 0
Energy of the unrelaxed supersystem initial determinant w/ solvent -750.004418311487
write pseudocanon occs and virts to disk
write pseudocanon orbital energies to disk
Tolerance of ortho_decomp_scf: 1.00e-06
GDM subspace size: 20
Beginning the Orthogonal Decomposition of the Initial Supersystem Wavefunction
    1    -749.9522186548      1.57e-02     ortho_decomp Preconditoned Steepest Descent
    2    -749.9540651256      4.23e-04     ortho_decomp BFGS Step
    3    -749.9540717305      3.27e-05     ortho_decomp BFGS Step
    4    -749.9540717434      1.44e-06     ortho_decomp BFGS Step
    5    -749.9540717434      5.12e-08     ortho_decomp 00000 Convergence criterion met
 Hartree-Fock
 Hartree-Fock
 Hartree-Fock
Doing General SCFMI
 Exchange:     0.1670 Hartree-Fock + 1.0000 wB97X-V + LR-HF
 Correlation:  1.0000 wB97X-V
 Using Euler-Maclaurin-Lebedev (99,590) quadrature formula
 Nonlocal Correlation:  VV10 with C = 0.0100 and b = 6.00 and scale = 1.00000
 Grid used for NLC:  SG-1 standard quadrature
performing fock build at end of subrot_r(subrot) constructor so that all methods have access
<S^2> of initial wavefunction before polarization iterations 0.0000000000
Beginning iterations for the determination of the polarized wavefunction
Energy prior to optimization (guess energy) = -750.004418311487
Begin Timing: Total SCF Calculation
begin iterations for algorithm: DIIS         
the SCF tolerance is set to 1.00e-08
    1    -750.0044183115      3.08e-05     00000 
    2    -750.0045599349      1.66e-05     00000 
    3    -750.0045856270      6.74e-06     00000 
    4    -750.0045924856      2.19e-06     00000 
    5    -750.0045933080      1.09e-06     00000 
    6    -750.0045935017      4.10e-07     00000 
    7    -750.0045935195      1.84e-07     00000 
    8    -750.0045935224      7.31e-08     00000 
    9    -750.0045935229      2.70e-08     00000 
   10    -750.0045935230      1.11e-08     00000 
   11    -750.0045935231      3.62e-09     00000 Convergence criterion met
write pseudocanon occs and virts to disk
write pseudocanon orbital energies to disk
Timing for Total SCF: 8703.00s (wall), 56923.52s (cpu)
<S^2> of polarized wavefunction after polarization iterations 0.0000000000
relaxing scfmi constraint to allow all rotations in the entire AO span
Doing General SCFMI
 Exchange:     0.1670 Hartree-Fock + 1.0000 wB97X-V + LR-HF
 Correlation:  1.0000 wB97X-V
 Using Euler-Maclaurin-Lebedev (99,590) quadrature formula
 Nonlocal Correlation:  VV10 with C = 0.0100 and b = 6.00 and scale = 1.00000
 Grid used for NLC:  SG-1 standard quadrature
performing fock build at end of subrot_r(subrot) constructor so that all methods have access
<S^2> of polarized wavefunction before ct-allowed iterations 0.0000000000
Beginning iterations for the determination of the CT-Allowed wavefunction
Energy prior to optimization (guess energy) = -750.004593523050
Begin Timing: Total SCF Calculation
begin iterations for algorithm: DIIS         
the SCF tolerance is set to 1.00e-08
    1    -750.0045935231      4.41e-05     00000 
    2    -750.0052794313      4.65e-06     00000 
    3    -750.0053066678      9.01e-07     00000 
    4    -750.0053080716      2.39e-07     00000 
    5    -750.0053081071      1.39e-07     00000 
    6    -750.0053081163      2.33e-08     00000 
    7    -750.0053081167      1.25e-08     00000 
    8    -750.0053081168      3.41e-09     00000 Convergence criterion met
write pseudocanon occs and virts to disk
write pseudocanon orbital energies to disk
Timing for Total SCF: 6207.00s (wall), 39375.74s (cpu)
<S^2> of ct_allowed wavefunction after ct-allowed iterations 0.0000000000

================================
        Results of EDA2         
================================
Basic EDA Quantities
--------------------
Fragment Energies (Ha):
1 -403.1709992775
2 -346.8193981426
--------------------
  E_prp (kJ/mol) = 0.0000
  E_sol (kJ/mol) = 5.6374
  E_frz (kJ/mol) = -12.8075
  E_pol (kJ/mol) = -0.4600
  E_vct (kJ/mol) = -1.8762
  E_int (kJ/mol) = -9.5063
--------------------


Initial Wavefunction Decomposition
--------------------
  --------------------
  Orthogonal Fragment Subspace Decomposition:
  --------------------
     E_elec   (ELEC)   (kJ/mol) = -25.9976
     E_pauli  (PAULI)  (kJ/mol) = 30.5918
     E_disp   (DISP)   (kJ/mol) = -17.4017
     --------------------
     Terms summing to E_pauli:
     --------------------
        E_kep_pauli       (kJ/mol) = 39.0186
        E_disp_free_pauli (kJ/mol) = -8.4268
  --------------------
  Classical Frozen Decomposition:
  --------------------
     E_cls_elec  (CLS ELEC)  (kJ/mol) = -14.2102
     E_cls_pauli (CLS PAULI) (kJ/mol) = 1.4027
    [E_mod_pauli (MOD PAULI) (kJ/mol) = 18.8044 (CLS PAULI - DISP from orthogonal decomposition) ]
  --------------------
--------------------

Simplified EDA Summary (kJ/mol)
--------------------
 PREPARATION     0.0000
 SOLVATION       5.6374
 FROZEN          4.5942      (does not include dispersion)
[PAULI           30.5918]     (if this is negligible, then frozen describes electrostatics)
 DISPERSION      -17.4017
 POLARIZATION    -0.4600
 CHARGE TRANSFER -1.8762
 TOTAL           -9.5063     (PRP + SOL + FRZ + DISP + POL + CT)
--------------------

 --------------------------------------------------------------

                    Orbital Energies (a.u.)
 --------------------------------------------------------------

 Alpha MOs
 -- Occupied --
-19.2391 -14.4433 -10.3296 -10.2968 -10.2893 -10.2706 -10.2691 -10.2672
-10.2672 -10.2666 -10.2655 -10.2634 -10.2633 -10.2632 -10.2605 -10.2582
-10.2554 -10.2523  -1.1935  -1.1114  -0.9895  -0.9764  -0.9258  -0.8956
 -0.8775  -0.8648  -0.8571  -0.8116  -0.8040  -0.7427  -0.7415  -0.7094
 -0.7089  -0.6729  -0.6605  -0.6453  -0.5979  -0.5940  -0.5787  -0.5741
 -0.5514  -0.5464  -0.5438  -0.5374  -0.5331  -0.5260  -0.5174  -0.5107
 -0.5067  -0.5047  -0.4877  -0.4754  -0.4696  -0.4521  -0.4477  -0.4473
 -0.4399  -0.4332  -0.4270  -0.3771  -0.3465  -0.3136  -0.3094  -0.2884
 -- Virtual --
  0.0550   0.0594   0.0624   0.0680   0.0710   0.0796   0.0862   0.0882
  0.0911   0.0962   0.0985   0.1042   0.1104   0.1132   0.1164   0.1254
  0.1315   0.1338   0.1360   0.1393   0.1496   0.1532   0.1543   0.1595
  0.1618   0.1668   0.1726   0.1797   0.1839   0.1858   0.1947   0.1979
  0.1995   0.2045   0.2110   0.2143   0.2192   0.2218   0.2282   0.2319
  0.2334   0.2387   0.2443   0.2493   0.2502   0.2536   0.2569   0.2593
  0.2619   0.2649   0.2677   0.2723   0.2739   0.2770   0.2814   0.2860
  0.2867   0.2885   0.2927   0.2957   0.3006   0.3075   0.3099   0.3119
  0.3128   0.3182   0.3192   0.3217   0.3252   0.3254   0.3285   0.3310
  0.3356   0.3372   0.3379   0.3431   0.3471   0.3520   0.3534   0.3558
  0.3576   0.3587   0.3621   0.3635   0.3659   0.3704   0.3721   0.3759
  0.3763   0.3813   0.3844   0.3863   0.3889   0.3912   0.3938   0.3947
  0.3987   0.4010   0.4056   0.4091   0.4104   0.4133   0.4155   0.4194
  0.4235   0.4268   0.4312   0.4334   0.4342   0.4381   0.4398   0.4468
  0.4476   0.4489   0.4507   0.4553   0.4572   0.4597   0.4640   0.4661
  0.4703   0.4723   0.4755   0.4775   0.4804   0.4833   0.4863   0.4885
  0.4915   0.4955   0.4972   0.4992   0.5002   0.5063   0.5093   0.5112
  0.5125   0.5148   0.5223   0.5243   0.5265   0.5301   0.5333   0.5391
  0.5429   0.5434   0.5480   0.5501   0.5553   0.5625   0.5653   0.5677
  0.5708   0.5714   0.5767   0.5829   0.5847   0.5881   0.5916   0.5941
  0.5998   0.6028   0.6081   0.6108   0.6157   0.6188   0.6217   0.6277
  0.6303   0.6363   0.6405   0.6430   0.6469   0.6506   0.6567   0.6573
  0.6632   0.6704   0.6735   0.6776   0.6814   0.6831   0.6897   0.6912
  0.6967   0.6980   0.6997   0.7022   0.7063   0.7082   0.7166   0.7197
  0.7217   0.7249   0.7326   0.7344   0.7367   0.7418   0.7441   0.7475
  0.7523   0.7557   0.7589   0.7604   0.7638   0.7693   0.7697   0.7734
  0.7752   0.7789   0.7825   0.7868   0.7883   0.7926   0.7973   0.7984
  0.8023   0.8057   0.8082   0.8102   0.8126   0.8137   0.8172   0.8195
  0.8221   0.8259   0.8309   0.8321   0.8373   0.8405   0.8442   0.8468
  0.8492   0.8532   0.8536   0.8542   0.8618   0.8664   0.8676   0.8710
  0.8775   0.8811   0.8881   0.8889   0.8952   0.8980   0.9017   0.9050
  0.9107   0.9123   0.9136   0.9177   0.9230   0.9261   0.9326   0.9385
  0.9414   0.9442   0.9517   0.9569   0.9616   0.9709   0.9741   0.9805
  0.9845   0.9898   0.9927   1.0017   1.0068   1.0121   1.0153   1.0183
  1.0326   1.0339   1.0449   1.0516   1.0547   1.0643   1.0690   1.0731
  1.0788   1.0854   1.0899   1.0925   1.0983   1.1033   1.1054   1.1126
  1.1172   1.1228   1.1266   1.1402   1.1513   1.1580   1.1753   1.1779
  1.1852   1.1862   1.1962   1.2049   1.2126   1.2185   1.2186   1.2396
  1.2434   1.2540   1.2646   1.2751   1.2894   1.2903   1.3025   1.3172
  1.3219   1.3267   1.3323   1.3471   1.3505   1.3531   1.3644   1.3856
  1.3880   1.3927   1.4052   1.4238   1.4268   1.4307   1.4343   1.4453
  1.4504   1.4610   1.4706   1.4765   1.4840   1.4968   1.5053   1.5113
  1.5223   1.5310   1.5471   1.5627   1.5772   1.5793   1.5858   1.5951
  1.6065   1.6107   1.6220   1.6328   1.6458   1.6547   1.6626   1.6714
  1.6755   1.6867   1.6940   1.7064   1.7181   1.7277   1.7338   1.7489
  1.7619   1.7926   1.7998   1.8105   1.8215   1.8317   1.8422   1.8491
  1.8547   1.8595   1.8692   1.8777   1.8818   1.8897   1.8957   1.9062
  1.9095   1.9126   1.9267   1.9442   1.9499   1.9528   1.9566   1.9600
  1.9701   1.9775   1.9808   1.9882   1.9922   1.9963   2.0025   2.0069
  2.0186   2.0236   2.0295   2.0328   2.0482   2.0581   2.0626   2.0666
  2.0711   2.0777   2.0862   2.0910   2.1042   2.1166   2.1175   2.1195
  2.1261   2.1428   2.1572   2.1671   2.1759   2.1977   2.2042   2.2107
  2.2216   2.2299   2.2360   2.2434   2.2526   2.2554   2.2771   2.2830
  2.3011   2.3035   2.3156   2.3241   2.3297   2.3375   2.3445   2.3654
  2.3694   2.3778   2.3825   2.3934   2.3989   2.4032   2.4240   2.4306
  2.4487   2.4534   2.4642   2.4676   2.4841   2.4946   2.5092   2.5173
  2.5237   2.5394   2.5519   2.5617   2.5684   2.5759   2.5820   2.5987
  2.6084   2.6227   2.6316   2.6384   2.6457   2.6632   2.6671   2.6732
  2.6772   2.6826   2.6910   2.7062   2.7205   2.7287   2.7423   2.7630
  2.7689   2.7708   2.7820   2.7825   2.7938   2.7943   2.8017   2.8180
  2.8212   2.8254   2.8337   2.8374   2.8520   2.8581   2.8656   2.8778
  2.8857   2.8955   2.9001   2.9095   2.9223   2.9280   2.9383   2.9428
  2.9523   2.9646   2.9749   2.9774   2.9815   2.9977   3.0016   3.0104
  3.0200   3.0207   3.0263   3.0346   3.0430   3.0483   3.0525   3.0713
  3.0742   3.0905   3.0966   3.1029   3.1077   3.1181   3.1248   3.1326
  3.1506   3.1572   3.1684   3.1749   3.1886   3.1982   3.2079   3.2161
  3.2222   3.2369   3.2413   3.2441   3.2537   3.2588   3.2677   3.2758
  3.2784   3.2894   3.2966   3.3072   3.3140   3.3182   3.3223   3.3400
  3.3471   3.3620   3.3658   3.3717   3.3745   3.3829   3.3928   3.3985
  3.4072   3.4176   3.4201   3.4271   3.4339   3.4459   3.4575   3.4643
  3.4661   3.4715   3.4770   3.4851   3.4891   3.4932   3.5023   3.5073
  3.5160   3.5195   3.5230   3.5317   3.5367   3.5410   3.5461   3.5565
  3.5623   3.5697   3.5718   3.5751   3.5816   3.5897   3.5967   3.5974
  3.6067   3.6130   3.6207   3.6240   3.6338   3.6398   3.6461   3.6550
  3.6583   3.6708   3.6782   3.6850   3.6880   3.6989   3.7053   3.7123
  3.7208   3.7301   3.7377   3.7459   3.7494   3.7648   3.7704   3.7804
  3.7982   3.8068   3.8087   3.8254   3.8492   3.8618   3.8644   3.8784
  3.9037   3.9189   3.9458   3.9471   3.9531   3.9776   3.9948   3.9996
  4.0150   4.0524   4.0548   4.0630   4.0825   4.1004   4.1200   4.1559
  4.1642   4.1795   4.1931   4.2155   4.2270   4.2441   4.2656   4.2680
  4.2838   4.2917   4.3018   4.3033   4.3133   4.3232   4.3304   4.3389
  4.3417   4.3534   4.3697   4.3708   4.3740   4.3836   4.3918   4.4212
  4.4227   4.4342   4.4421   4.4563   4.4758   4.4790   4.5000   4.5084
  4.5362   4.5512   4.5746   4.6015   4.6181   4.6232   4.6453   4.6621
  4.6695   4.7442   4.7625   4.7688   4.7982   4.8042   4.8175   4.8310
  4.8532   4.8846   4.9403   4.9461   4.9584   4.9802   4.9897   5.0049
  5.0189   5.0423   5.0662   5.0804   5.0885   5.1027   5.1248   5.1508
  5.1545   5.1593   5.1794   5.2260   5.2325   5.2766   5.3123   5.3405
  5.4024   5.4150   5.4226   5.4562   5.4668   5.5089   5.5493   5.5599
  5.6028   5.6251   5.6549   5.6625   5.7242   5.7343   5.7553   5.8192
  5.8463   5.9608   5.9760   5.9838   6.2410   6.2896   6.3460   6.5083
  6.6135   6.6732   6.9072   7.0367   7.3187   7.4768  22.6461  22.6964
 22.7388  22.7921  22.9557  22.9809  22.9929  23.0078  23.0101  23.0652
 23.2199  23.2306  23.2759  23.4585  23.5359  23.8109  32.8811  44.4769
 --------------------------------------------------------------

          Ground-State Mulliken Net Atomic Charges

     Atom                 Charge (a.u.)
  ----------------------------------------
      1 C                    -1.094301
      2 C                    -0.170129
      3 C                     0.356497
      4 C                     0.613031
      5 C                    -0.677383
      6 C                    -0.478919
      7 C                    -0.557022
      8 C                    -0.689140
      9 C                    -0.512878
     10 N                     0.120221
     11 H                     0.413609
     12 H                     0.451207
     13 H                     0.426304
     14 H                     0.416308
     15 H                     0.226817
     16 H                     0.329175
     17 H                     0.299450
     18 H                     0.293037
     19 H                     0.241212
     20 C                    -1.143369
     21 C                    -0.347032
     22 C                    -0.738489
     23 C                     0.676450
     24 C                     0.468049
     25 C                    -0.785314
     26 C                    -0.346069
     27 O                    -0.575491
     28 H                     0.370840
     29 H                     0.410534
     30 H                     0.333638
     31 H                     0.400776
     32 H                     0.290747
     33 H                     0.313247
     34 H                     0.416286
     35 H                     0.248104
  ----------------------------------------
  Sum of atomic charges =     0.000000

 -----------------------------------------------------------------
                    Cartesian Multipole Moments
 -----------------------------------------------------------------
    Charge (ESU x 10^10)
                 0.0000
    Dipole Moment (Debye)
         X       3.8767      Y      -0.4285      Z      -0.7091
       Tot       3.9643
    Quadrupole Moments (Debye-Ang)
        XX     -98.6301     XY      -8.1612     YY    -101.2523
        XZ      -2.3515     YZ      -6.2184     ZZ    -114.7890
    Octopole Moments (Debye-Ang^2)
       XXX      58.9969    XXY      32.6495    XYY       5.6540
       YYY     -22.8722    XXZ       4.3734    XYZ       4.0916
       YYZ      -1.2856    XZZ      -1.6791    YZZ      -5.3678
       ZZZ      -5.6662
    Hexadecapole Moments (Debye-Ang^3)
      XXXX   -2493.4905   XXXY    -905.8178   XXYY   -1282.0262
      XYYY    -808.4825   YYYY   -4959.8931   XXXZ     -84.6898
      XXYZ    -202.9307   XYYZ     -65.4556   YYYZ    -532.1729
      XXZZ    -543.0487   XYZZ    -321.4954   YYZZ   -1071.4313
      XZZZ     -71.6365   YZZZ    -544.1270   ZZZZ    -648.8876
 -----------------------------------------------------------------
Archival summary:
1\1\compute-0-8.local\SP\ProcedureUnspecified\BasisUnspecified\111617\meili\ThuSep3020:01:302021ThuSep3020:01:302021\0\\#,ProcedureUnspecified,BasisUnspecified,\\0,1\N\H,1,1.01868\C,1,1.36798,2,125.263\C,1,1.37386,2,125.144,3,-178.911,0\H,4,1.07794,1,125.221,2,-1.78847,0\C,4,1.35964,1,110.312,2,179.258,0\C,3,1.38724,1,130.801,2,0.277633,0\H,7,1.07855,3,120.739,1,-1.47546,0\C,7,1.37916,3,117.878,1,-179.564,0\H,9,1.08258,7,119.468,3,179.837,0\C,9,1.40285,7,121.038,3,-0.057396,0\H,11,1.08281,9,119.342,7,-179.841,0\C,11,1.3909,9,121.104,7,0.407586,0\H,13,1.081,11,120.826,9,179.961,0\C,13,1.40096,11,118.922,9,-0.370807,0\C,6,1.51095,4,127.165,1,179.34,0\H,16,1.08854,6,108.427,4,34.8904,0\H,16,1.08973,6,108.986,4,151.859,0\H,16,1.1,6,113.284,4,-86.8805,0\H,10,2.91405,9,111.953,7,-88.3568,0\O,20,0.957886,10,108.846,9,127.942,0\C,21,1.35533,20,112.135,10,-74.4588,0\C,22,1.38631,21,118.539,20,-5.18531,0\H,23,1.07899,22,119.959,21,0.921521,0\C,23,1.39454,22,119.876,21,-179.64,0\H,25,1.08116,23,119.689,22,-178.705,0\C,25,1.39544,23,120.937,22,-0.578246,0\C,27,1.39402,25,118.825,23,0.0834397,0\H,28,1.08115,27,119.806,25,-179.61,0\C,22,1.39623,21,121.458,20,174.933,0\H,30,1.07899,22,119.563,21,-0.0609026,0\C,27,1.50837,25,120.492,23,-178.135,0\H,32,1.08608,27,109.528,25,-43.3671,0\H,32,1.09106,27,108.406,25,-159.393,0\H,32,1.1,27,113.19,25,80.5296,0\\\@

 Total job time:  91543.22s(wall), 183770.39s(cpu) 
 Thu Sep 30 20:01:30 2021

        *************************************************************
        *                                                           *
        *  Thank you very much for using Q-Chem.  Have a nice day.  *
        *                                                           *
        *************************************************************


