
Running Job 1 of 1 SSI-042TRP-049ARG-1_SMD_TZVPD.in
qchem SSI-042TRP-049ARG-1_SMD_TZVPD.in_53838.0 /tmp/qchem53838/ 0
/global/common/cori/software/qchem/5.2/exe/qcprog.exe_s SSI-042TRP-049ARG-1_SMD_TZVPD.in_53838.0 /tmp/qchem53838/
                  Welcome to Q-Chem
     A Quantum Leap Into The Future Of Chemistry


 Q-Chem 5.2, Q-Chem, Inc., Pleasanton, CA (2019)

 License issued to: National Energy Research Scientific Computing Center

 Yihan Shao,  Zhengting Gan,  E. Epifanovsky,  A. T. B. Gilbert,  M. Wormit,  
 J. Kussmann,  A. W. Lange,  A. Behn,  Jia Deng,  Xintian Feng,  D. Ghosh,  
 M. Goldey,  P. R. Horn,  L. D. Jacobson,  I. Kaliman,  T. Kus,  A. Landau,  
 Jie Liu,  E. I. Proynov,  R. M. Richard,  R. P. Steele,  E. J. Sundstrom,  
 H. L. Woodcock III,  P. M. Zimmerman,  D. Zuev,  B. Albrecht,  E. Alguire,  
 S. A. Baeppler,  D. Barton,  Z. Benda,  Y. A. Bernard,  E. J. Berquist,  
 K. B. Bravaya,  H. Burton,  D. Casanova,  Chun-Min Chang,  Yunqing Chen,  
 A. Chien,  K. D. Closser,  M. P. Coons,  S. Coriani,  S. Dasgupta,  
 A. L. Dempwolff,  M. Diedenhofen,  Hainam Do,  R. G. Edgar,  Po-Tung Fang,  
 S. Faraji,  S. Fatehi,  Qingguo Feng,  K. D. Fenk,  J. Fosso-Tande,  
 J. Gayvert,  Qinghui Ge,  A. Ghysels,  G. Gidofalvi,  J. Gomes,  
 J. Gonthier,  A. Gunina,  D. Hait,  M. W. D. Hanson-Heine,  
 P. H. P. Harbach,  A. W. Hauser,  M. F. Herbst,  J. E. Herr,  
 E. G. Hohenstein,  Z. C. Holden,  Kerwin Hui,  B. C. Huynh,  T.-C. Jagau,  
 Hyunjun Ji,  B. Kaduk,  K. Khistyaev,  Jaehoon Kim,  P. Klunzinger,  K. Koh,  
 D. Kosenkov,  L. Koulias,  T. Kowalczyk,  C. M. Krauter,  A. Kunitsa,  
 Ka Un Lao,  A. Laurent,  K. V. Lawler,  Joonho Lee,  D. Lefrancois,  
 S. Lehtola,  D. S. Levine,  Yi-Pei Li,  You-Sheng Lin,  Fenglai Liu,  
 E. Livshits,  A. Luenser,  P. Manohar,  E. Mansoor,  S. F. Manzer,  
 Shan-Ping Mao,  Yuezhi Mao,  N. Mardirossian,  A. V. Marenich,  
 T. Markovich,  L. A. Martinez-Martinez,  S. A. Maurer,  N. J. Mayhall,  
 S. C. McKenzie,  J.-M. Mewes,  P. Morgante,  A. F. Morrison,  
 J. W. Mullinax,  K. Nanda,  T. S. Nguyen-Beck,  R. Olivares-Amaya,  
 J. A. Parkhill,  Zheng Pei,  T. M. Perrine,  F. Plasser,  P. Pokhilko,  
 S. Prager,  A. Prociuk,  E. Ramos,  D. R. Rehn,  F. Rob,  M. Scheurer,  
 M. Schneider,  N. Sergueev,  S. M. Sharada,  S. Sharma,  D. W. Small,  
 T. Stauch,  T. Stein,  Yu-Chuan Su,  A. J. W. Thom,  A. Tkatchenko,  
 T. Tsuchimochi,  N. M. Tubman,  L. Vogt,  M. L. Vidal,  O. Vydrov,  
 M. A. Watson,  J. Wenzel,  M. de Wergifosse,  T. A. Wesolowski,  A. White,  
 J. Witte,  A. Yamada,  Jun Yang,  K. Yao,  S. Yeganeh,  S. R. Yost,  
 Zhi-Qiang You,  A. Zech,  Igor Ying Zhang,  Xing Zhang,  Yan Zhao,  
 Ying Zhu,  B. R. Brooks,  G. K. L. Chan,  C. J. Cramer,  M. S. Gordon,  
 W. J. Hehre,  A. Klamt,  M. W. Schmidt,  C. D. Sherrill,  D. G. Truhlar,  
 A. Aspuru-Guzik,  R. Baer,  A. T. Bell,  N. A. Besley,  Jeng-Da Chai,  
 A. E. DePrince, III,  R. A. DiStasio Jr.,  A. Dreuw,  B. D. Dunietz,  
 T. R. Furlani,  Chao-Ping Hsu,  Yousung Jung,  Jing Kong,  D. S. Lambrecht,  
 WanZhen Liang,  C. Ochsenfeld,  V. A. Rassolov,  L. V. Slipchenko,  
 J. E. Subotnik,  T. Van Voorhis,  J. M. Herbert,  A. I. Krylov,  
 P. M. W. Gill,  M. Head-Gordon

 Contributors to earlier versions of Q-Chem not listed above: 
 R. D. Adamson,  B. Austin,  J. Baker,  G. J. O. Beran,  K. Brandhorst,  
 S. T. Brown,  E. F. C. Byrd,  A. K. Chakraborty,  C.-L. Cheng,  
 Siu Hung Chien,  D. M. Chipman,  D. L. Crittenden,  H. Dachsel,  
 R. J. Doerksen,  A. D. Dutoi,  L. Fusti-Molnar,  W. A. Goddard III,  
 A. Golubeva-Zadorozhnaya,  S. R. Gwaltney,  G. Hawkins,  A. Heyden,  
 S. Hirata,  G. Kedziora,  F. J. Keil,  C. Kelley,  Jihan Kim,  R. A. King,  
 R. Z. Khaliullin,  P. P. Korambath,  W. Kurlancheek,  A. M. Lee,  M. S. Lee,  
 S. V. Levchenko,  Ching Yeh Lin,  D. Liotard,  R. C. Lochan,  I. Lotan,  
 P. E. Maslen,  N. Nair,  D. P. O'Neill,  D. Neuhauser,  E. Neuscamman,  
 C. M. Oana,  R. Olson,  B. Peters,  R. Peverati,  P. A. Pieniazek,  
 Y. M. Rhee,  J. Ritchie,  M. A. Rohrdanz,  E. Rosta,  N. J. Russ,  
 H. F. Schaefer III,  N. E. Schultz,  N. Shenvi,  A. C. Simmonett,  A. Sodt,  
 D. Stuck,  K. S. Thanthiriwatte,  V. Vanovschi,  Tao Wang,  A. Warshel,  
 C. F. Williams,  Q. Wu,  X. Xu,  W. Zhang

 Please cite Q-Chem as follows:
 Y. Shao et al., Mol. Phys. 113, 184-215 (2015)
 DOI: 10.1080/00268976.2014.952696

 Q-Chem 5.2.0 for Intel X86 EM64T Linux

 Parts of Q-Chem use Armadillo 8.300.2 (Tropical Shenanigans).
 http://arma.sourceforge.net/

 Q-Chem begins on Sun Sep 26 07:25:11 2021  

Host: cori01
0

     Scratch files written to /tmp/qchem53838//
 May1019 |scratch|qcdevops|jenkins|workspace|build_RNUM -1
Processing $rem in /global/common/cori/software/qchem/5.2/config/preferences:
	 MEM_TOTAL  96000 
NAlpha2: 110
NElect   110
Mult     1
Symmetry turned off for PCM/SM12/SMD calculation

 Q-Chem warning in module libgen/rem_setup.C, line 2803:

 Neither GIA nor STOLL is specified by user. Use STOLL as the default


Checking the input file for inconsistencies... 	...done.

--------------------------------------------------------------
User input:
--------------------------------------------------------------
$comment
SSI-042TRP-049ARG-1.pdb
$end

$molecule
1 1
--
0 1
C    0.832380946002   -0.038910761337    2.795137302341
C    1.089380946002    0.384089238663    1.374137302341
C    1.390380946002    1.638089238663    0.940137302341
C    1.173380946002   -0.471910761337    0.213137302341
C    1.541380946002    0.346089238663   -0.890862697659
C    0.978380946002   -1.847910761337   -0.008862697659
C    1.715380946002   -0.163910761337   -2.176862697659
C    1.156380946002   -2.362910761337   -1.301862697659
C    1.520380946002   -1.523910761337   -2.370862697659
N    1.662380946002    1.623089238663   -0.406862697659
H    0.092380946002   -0.840910761337    2.802137302341
H    0.424380946002    0.809089238663    3.347137302341
H    1.456380946002    2.513089238663    1.581137302341
H    1.947380946002    2.443089238663   -0.931862697659
H    0.672380946002   -2.492910761337    0.802137302341
H    1.993380946002    0.480089238663   -2.999862697659
H    1.008380946002   -3.419910761337   -1.481862697659
H    1.647380946002   -1.941910761337   -3.360862697659
H    1.754280946002   -0.382650761337    3.287007302341
--
1 1
C   -2.185619053998   -1.001910761337   -1.151862697659
C   -2.352619053998    0.722089238663    0.618137302341
N   -2.460619053998   -0.531910761337    0.209137302341
N   -1.977619053998    1.667089238663   -0.217862697659
N   -2.604619053998    1.030089238663    1.871137302341
H   -2.705619053998   -1.246910761337    0.890137302341
H   -1.733619053998    1.429089238663   -1.162862697659
H   -1.868619053998    2.617089238663    0.099137302341
H   -2.792619053998    0.323089238663    2.565137302341
H   -2.512619053998    1.986089238663    2.179137302341
H   -1.946619053998   -2.065910761337   -1.089862697659
H   -1.307619053998   -0.508910761337   -1.573862697659
H   -3.041979053998   -0.887820761337   -1.832762697659
$end

$rem
JOBTYPE			EDA
EDA2			1
method			wB97X-V
BASIS			def2-TZVPD
XC_GRID			000099000590
NL_GRID			1
UNRESTRICTED		FALSE
MAX_SCF_CYCLES		200
SYMMETRY		FALSE
SYM_IGNORE		TRUE
MEM_STATIC		2000
BASIS_LIN_DEP_THRESH 	6
THRESH 			14
SCF_CONVERGENCE 	8
SCF_PRINT_FRGM 		TRUE
SOLVENT_METHOD          SMD
$end

$SMX
SOLVENT			WATER
$END
--------------------------------------------------------------
 ----------------------------------------------------------------
             Standard Nuclear Orientation (Angstroms)
    I     Atom           X                Y                Z
 ----------------------------------------------------------------
    1      C       0.8323809460    -0.0389107613     2.7951373023
    2      C       1.0893809460     0.3840892387     1.3741373023
    3      C       1.3903809460     1.6380892387     0.9401373023
    4      C       1.1733809460    -0.4719107613     0.2131373023
    5      C       1.5413809460     0.3460892387    -0.8908626977
    6      C       0.9783809460    -1.8479107613    -0.0088626977
    7      C       1.7153809460    -0.1639107613    -2.1768626977
    8      C       1.1563809460    -2.3629107613    -1.3018626977
    9      C       1.5203809460    -1.5239107613    -2.3708626977
   10      N       1.6623809460     1.6230892387    -0.4068626977
   11      H       0.0923809460    -0.8409107613     2.8021373023
   12      H       0.4243809460     0.8090892387     3.3471373023
   13      H       1.4563809460     2.5130892387     1.5811373023
   14      H       1.9473809460     2.4430892387    -0.9318626977
   15      H       0.6723809460    -2.4929107613     0.8021373023
   16      H       1.9933809460     0.4800892387    -2.9998626977
   17      H       1.0083809460    -3.4199107613    -1.4818626977
   18      H       1.6473809460    -1.9419107613    -3.3608626977
   19      H       1.7542809460    -0.3826507613     3.2870073023
   20      C      -2.1856190540    -1.0019107613    -1.1518626977
   21      C      -2.3526190540     0.7220892387     0.6181373023
   22      N      -2.4606190540    -0.5319107613     0.2091373023
   23      N      -1.9776190540     1.6670892387    -0.2178626977
   24      N      -2.6046190540     1.0300892387     1.8711373023
   25      H      -2.7056190540    -1.2469107613     0.8901373023
   26      H      -1.7336190540     1.4290892387    -1.1628626977
   27      H      -1.8686190540     2.6170892387     0.0991373023
   28      H      -2.7926190540     0.3230892387     2.5651373023
   29      H      -2.5126190540     1.9860892387     2.1791373023
   30      H      -1.9466190540    -2.0659107613    -1.0898626977
   31      H      -1.3076190540    -0.5089107613    -1.5738626977
   32      H      -3.0419790540    -0.8878207613    -1.8327626977
 ----------------------------------------------------------------
 Nuclear Repulsion Energy =        1024.19757524 hartrees
 There are       55 alpha and       55 beta electrons
 Requested basis set is def2-TZVPD
 There are 280 shells and 708 basis functions

 Total QAlloc Memory Limit  96000 MB
 Mega-Array Size      1956 MB
 MEM_STATIC part      2000 MB
 
 Citation of the SMD model:
 Marenich, A.V.; Cramer, C.J.; Truhlar, D.G.
 J. Phys. Chem. B 2009, 113, 6378-6396.
 iSolventCode=           1
 Solvent: water                                                           
 
 vradii
            1           2           3           4           5           6
    1   1.8500000   1.8500000   1.8500000   1.8500000   1.8500000   1.8500000
            7           8           9          10          11          12
    1   1.8500000   1.8500000   1.8500000   1.8900000   1.2000000   1.2000000
           13          14          15          16          17          18
    1   1.2000000   1.2000000   1.2000000   1.2000000   1.2000000   1.2000000
           19          20          21          22          23          24
    1   1.2000000   1.8500000   1.8500000   1.8900000   1.8900000   1.8900000
           25          26          27          28          29          30
    1   1.2000000   1.2000000   1.2000000   1.2000000   1.2000000   1.2000000
           31          32
    1   1.2000000   1.2000000
 Changing PCM_VDW_RADII to SMD_RADIUS
 Discretize the solute cavity surface with Lebedev spheres
	Using 110 Lebedev grid points for each H atom
	Using 194 Lebedev grid points for other atoms
	Atomic van der Waals radii will be scaled by 1.20
 Remove points where switching function is < 1.0e-08
 Keep 2281 surface tesserae and discard 2499 interior tesserae
 Molecular Surface Area = 266.865 Angst**2
 A cutoff of  1.0D-14 yielded  35413 shell pairs
 There are    230039 function pairs (    291683 Cartesian)
 Smallest overlap matrix eigenvalue = 3.94E-07
 Linear dependence detected in AO basis
 Tighter screening thresholds may be required for diffuse basis sets
 Use S2THRESH > 14 and THRESH = 14 in case of SCF convergence issues
 Number of orthogonalized atomic orbitals = 704
 Maximum deviation from orthogonality = 2.725E-10

 Scale SEOQF with 1.000000e-01/1.000000e-01/1.000000e-01

 Standard Electronic Orientation quadrupole field applied
 Nucleus-field energy     =    -0.0000000006 hartrees

 -----------------------------------------------------------------------
  General SCF calculation program by
  Eric Jon Sundstrom, Paul Horn, Yuezhi Mao, Dmitri Zuev, Alec White,
  David Stuck, Shaama M.S., Shane Yost, Joonho Lee, David Small,
  Daniel Levine, Susi Lehtola, Hugh Burton, Evgeny Epifanovsky
 -----------------------------------------------------------------------
================================================================
                 ALMO-EDA with the EDA2 driver                  
================================================================
 The second-generation ALMO-EDA (for DFT):                      
 P. R. Horn, Y. Mao and M. Head-Gordon, PCCP, 18, 23067 (2016)  
 Decomposition of the frozen energy:                            
 P. R. Horn, Y. Mao and M. Head-Gordon, JCP, 144, 114107 (2016) 
 FERF model for polarization:                                   
 P. R. Horn and M. Head-Gordon, JCP, 143, 114111 (2015)         
Using eda2 option set 1
Option set summary: Frozen orbital wavefunction, initial wavefunction decomposition, and nDQ polarization.
--------------------------------
Printing EDA Options
--------------------------------
eda_child_super_basis      0
fragmo_guess_mode          0
child_mp                   1
child_mp_orders            232
cls_elec                   1
cls_disp                   0
scfmi_mode                 1
scfmi_occs                 0
scfmi_virts                0
frz_relax                  0
frz_relax_method           0
dc_pen_start               0
dc_pen_conv                0
dc_pen_increment           0
dc_pen_steps               0
dc_pen_thresh_factor       0
dc_pen_pre_newton_thresh   0
frz_ortho_decomp           1
frz_ortho_decomp_conv      6
frgm_method                2
scfmi_freeze_ss            0
separate_rehyb             0
plot_diff_den              0
eda_nocv                   0
eda_vct_relax              1
disp_free_x                0
disp_free_c                0
eda_bsse                   0
eda_pct_a                  0
eda_covp                   0
--------------------------------
Attempting to make child job directory: /tmp/qchem53838//Frg1/
Attempting to make child job directory: /tmp/qchem53838//Frg2/
Creating input file /tmp/qchem53838/Frg1.input
using default PutDataFrgm: nothing
calling putenv with: QCSCRATCH=/tmp/qchem53838/ 
calling putenv with: QCLOCALSCR=/tmp/qchem53838/ 
Spawning Job For Fragment 0
                  Welcome to Q-Chem
     A Quantum Leap Into The Future Of Chemistry


 Q-Chem 5.2, Q-Chem, Inc., Pleasanton, CA (2019)

 License issued to: National Energy Research Scientific Computing Center

 Yihan Shao,  Zhengting Gan,  E. Epifanovsky,  A. T. B. Gilbert,  M. Wormit,  
 J. Kussmann,  A. W. Lange,  A. Behn,  Jia Deng,  Xintian Feng,  D. Ghosh,  
 M. Goldey,  P. R. Horn,  L. D. Jacobson,  I. Kaliman,  T. Kus,  A. Landau,  
 Jie Liu,  E. I. Proynov,  R. M. Richard,  R. P. Steele,  E. J. Sundstrom,  
 H. L. Woodcock III,  P. M. Zimmerman,  D. Zuev,  B. Albrecht,  E. Alguire,  
 S. A. Baeppler,  D. Barton,  Z. Benda,  Y. A. Bernard,  E. J. Berquist,  
 K. B. Bravaya,  H. Burton,  D. Casanova,  Chun-Min Chang,  Yunqing Chen,  
 A. Chien,  K. D. Closser,  M. P. Coons,  S. Coriani,  S. Dasgupta,  
 A. L. Dempwolff,  M. Diedenhofen,  Hainam Do,  R. G. Edgar,  Po-Tung Fang,  
 S. Faraji,  S. Fatehi,  Qingguo Feng,  K. D. Fenk,  J. Fosso-Tande,  
 J. Gayvert,  Qinghui Ge,  A. Ghysels,  G. Gidofalvi,  J. Gomes,  
 J. Gonthier,  A. Gunina,  D. Hait,  M. W. D. Hanson-Heine,  
 P. H. P. Harbach,  A. W. Hauser,  M. F. Herbst,  J. E. Herr,  
 E. G. Hohenstein,  Z. C. Holden,  Kerwin Hui,  B. C. Huynh,  T.-C. Jagau,  
 Hyunjun Ji,  B. Kaduk,  K. Khistyaev,  Jaehoon Kim,  P. Klunzinger,  K. Koh,  
 D. Kosenkov,  L. Koulias,  T. Kowalczyk,  C. M. Krauter,  A. Kunitsa,  
 Ka Un Lao,  A. Laurent,  K. V. Lawler,  Joonho Lee,  D. Lefrancois,  
 S. Lehtola,  D. S. Levine,  Yi-Pei Li,  You-Sheng Lin,  Fenglai Liu,  
 E. Livshits,  A. Luenser,  P. Manohar,  E. Mansoor,  S. F. Manzer,  
 Shan-Ping Mao,  Yuezhi Mao,  N. Mardirossian,  A. V. Marenich,  
 T. Markovich,  L. A. Martinez-Martinez,  S. A. Maurer,  N. J. Mayhall,  
 S. C. McKenzie,  J.-M. Mewes,  P. Morgante,  A. F. Morrison,  
 J. W. Mullinax,  K. Nanda,  T. S. Nguyen-Beck,  R. Olivares-Amaya,  
 J. A. Parkhill,  Zheng Pei,  T. M. Perrine,  F. Plasser,  P. Pokhilko,  
 S. Prager,  A. Prociuk,  E. Ramos,  D. R. Rehn,  F. Rob,  M. Scheurer,  
 M. Schneider,  N. Sergueev,  S. M. Sharada,  S. Sharma,  D. W. Small,  
 T. Stauch,  T. Stein,  Yu-Chuan Su,  A. J. W. Thom,  A. Tkatchenko,  
 T. Tsuchimochi,  N. M. Tubman,  L. Vogt,  M. L. Vidal,  O. Vydrov,  
 M. A. Watson,  J. Wenzel,  M. de Wergifosse,  T. A. Wesolowski,  A. White,  
 J. Witte,  A. Yamada,  Jun Yang,  K. Yao,  S. Yeganeh,  S. R. Yost,  
 Zhi-Qiang You,  A. Zech,  Igor Ying Zhang,  Xing Zhang,  Yan Zhao,  
 Ying Zhu,  B. R. Brooks,  G. K. L. Chan,  C. J. Cramer,  M. S. Gordon,  
 W. J. Hehre,  A. Klamt,  M. W. Schmidt,  C. D. Sherrill,  D. G. Truhlar,  
 A. Aspuru-Guzik,  R. Baer,  A. T. Bell,  N. A. Besley,  Jeng-Da Chai,  
 A. E. DePrince, III,  R. A. DiStasio Jr.,  A. Dreuw,  B. D. Dunietz,  
 T. R. Furlani,  Chao-Ping Hsu,  Yousung Jung,  Jing Kong,  D. S. Lambrecht,  
 WanZhen Liang,  C. Ochsenfeld,  V. A. Rassolov,  L. V. Slipchenko,  
 J. E. Subotnik,  T. Van Voorhis,  J. M. Herbert,  A. I. Krylov,  
 P. M. W. Gill,  M. Head-Gordon

 Contributors to earlier versions of Q-Chem not listed above: 
 R. D. Adamson,  B. Austin,  J. Baker,  G. J. O. Beran,  K. Brandhorst,  
 S. T. Brown,  E. F. C. Byrd,  A. K. Chakraborty,  C.-L. Cheng,  
 Siu Hung Chien,  D. M. Chipman,  D. L. Crittenden,  H. Dachsel,  
 R. J. Doerksen,  A. D. Dutoi,  L. Fusti-Molnar,  W. A. Goddard III,  
 A. Golubeva-Zadorozhnaya,  S. R. Gwaltney,  G. Hawkins,  A. Heyden,  
 S. Hirata,  G. Kedziora,  F. J. Keil,  C. Kelley,  Jihan Kim,  R. A. King,  
 R. Z. Khaliullin,  P. P. Korambath,  W. Kurlancheek,  A. M. Lee,  M. S. Lee,  
 S. V. Levchenko,  Ching Yeh Lin,  D. Liotard,  R. C. Lochan,  I. Lotan,  
 P. E. Maslen,  N. Nair,  D. P. O'Neill,  D. Neuhauser,  E. Neuscamman,  
 C. M. Oana,  R. Olson,  B. Peters,  R. Peverati,  P. A. Pieniazek,  
 Y. M. Rhee,  J. Ritchie,  M. A. Rohrdanz,  E. Rosta,  N. J. Russ,  
 H. F. Schaefer III,  N. E. Schultz,  N. Shenvi,  A. C. Simmonett,  A. Sodt,  
 D. Stuck,  K. S. Thanthiriwatte,  V. Vanovschi,  Tao Wang,  A. Warshel,  
 C. F. Williams,  Q. Wu,  X. Xu,  W. Zhang

 Please cite Q-Chem as follows:
 Y. Shao et al., Mol. Phys. 113, 184-215 (2015)
 DOI: 10.1080/00268976.2014.952696

 Q-Chem 5.2.0 for Intel X86 EM64T Linux

 Parts of Q-Chem use Armadillo 8.300.2 (Tropical Shenanigans).
 http://arma.sourceforge.net/

 Q-Chem begins on Sun Sep 26 07:25:19 2021  

Host: cori01
0

     Scratch files written to /tmp/qchem53838//Frg1//
 May1019 |scratch|qcdevops|jenkins|workspace|build_RNUM -1
Processing $rem in /global/common/cori/software/qchem/5.2/config/preferences:
	 MEM_TOTAL  96000 
NAlpha2: 70
NElect   70
Mult     1
Symmetry turned off for PCM/SM12/SMD calculation

Checking the input file for inconsistencies... 	...done.

--------------------------------------------------------------
User input:
--------------------------------------------------------------
$molecule
0 1
 6	0.8323809460	-0.0389107613	2.7951373023
 6	1.0893809460	0.3840892387	1.3741373023
 6	1.3903809460	1.6380892387	0.9401373023
 6	1.1733809460	-0.4719107613	0.2131373023
 6	1.5413809460	0.3460892387	-0.8908626977
 6	0.9783809460	-1.8479107613	-0.0088626977
 6	1.7153809460	-0.1639107613	-2.1768626977
 6	1.1563809460	-2.3629107613	-1.3018626977
 6	1.5203809460	-1.5239107613	-2.3708626977
 7	1.6623809460	1.6230892387	-0.4068626977
 1	0.0923809460	-0.8409107613	2.8021373023
 1	0.4243809460	0.8090892387	3.3471373023
 1	1.4563809460	2.5130892387	1.5811373023
 1	1.9473809460	2.4430892387	-0.9318626977
 1	0.6723809460	-2.4929107613	0.8021373023
 1	1.9933809460	0.4800892387	-2.9998626977
 1	1.0083809460	-3.4199107613	-1.4818626977
 1	1.6473809460	-1.9419107613	-3.3608626977
 1	1.7542809460	-0.3826507613	3.2870073023
$end
$rem
EDA2		1
METHOD		WB97X-V
BASIS		DEF2-TZVPD
XC_GRID		000099000590
NL_GRID		1
UNRESTRICTED		FALSE
MAX_SCF_CYCLES		200
SYMMETRY		FALSE
SYM_IGNORE		TRUE
BASIS_LIN_DEP_THRESH		6
THRESH		14
SCF_CONVERGENCE		8
SCF_PRINT_FRGM		TRUE
SOLVENT_METHOD		SMD
!required keywords
JOBTYPE		SP
SYM_IGNORE		TRUE
SUBSYSTEM		TRUE
GEN_SCFMAN		TRUE
CHILD_INSTRUCTION		2
SYM_IGNORE		TRUE
SCFMI		0
RI_K 0		
PARI_K 0		
MIN_PARI_K 0		
IARI_K 0		
OCC_RI_K 0		
PURECART		1111
MEM_STATIC		2000
MEM_TOTAL		96000
GUI		0
CHILD_MP		1
CHILD_MP_ORDERS		232
FRZ_RELAX		0
FRZ_RELAX_METHOD		0
EDA_CLS_ELEC		1
EDA_CLS_DISP		0
FRZ_ORTHO_DECOMP		1
EDA2		FALSE
FRGM_METHOD		FALSE
CIS_N_ROOTS  0
LOCAL_CIS    0
CIS_RLX_DNS  1
$end
$smx
SOLVENT			WATER
$end
--------------------------------------------------------------
 ----------------------------------------------------------------
             Standard Nuclear Orientation (Angstroms)
    I     Atom           X                Y                Z
 ----------------------------------------------------------------
    1      C       0.8323809460    -0.0389107613     2.7951373023
    2      C       1.0893809460     0.3840892387     1.3741373023
    3      C       1.3903809460     1.6380892387     0.9401373023
    4      C       1.1733809460    -0.4719107613     0.2131373023
    5      C       1.5413809460     0.3460892387    -0.8908626977
    6      C       0.9783809460    -1.8479107613    -0.0088626977
    7      C       1.7153809460    -0.1639107613    -2.1768626977
    8      C       1.1563809460    -2.3629107613    -1.3018626977
    9      C       1.5203809460    -1.5239107613    -2.3708626977
   10      N       1.6623809460     1.6230892387    -0.4068626977
   11      H       0.0923809460    -0.8409107613     2.8021373023
   12      H       0.4243809460     0.8090892387     3.3471373023
   13      H       1.4563809460     2.5130892387     1.5811373023
   14      H       1.9473809460     2.4430892387    -0.9318626977
   15      H       0.6723809460    -2.4929107613     0.8021373023
   16      H       1.9933809460     0.4800892387    -2.9998626977
   17      H       1.0083809460    -3.4199107613    -1.4818626977
   18      H       1.6473809460    -1.9419107613    -3.3608626977
   19      H       1.7542809460    -0.3826507613     3.2870073023
 ----------------------------------------------------------------
 Nuclear Repulsion Energy =         483.45054753 hartrees
 There are       35 alpha and       35 beta electrons
 Requested basis set is def2-TZVPD
 There are 175 shells and 451 basis functions

 Total QAlloc Memory Limit  96000 MB
 Mega-Array Size      1956 MB
 MEM_STATIC part      2000 MB
 
 Citation of the SMD model:
 Marenich, A.V.; Cramer, C.J.; Truhlar, D.G.
 J. Phys. Chem. B 2009, 113, 6378-6396.
 iSolventCode=           1
 Solvent: water                                                           
 
 vradii
            1           2           3           4           5           6
    1   1.8500000   1.8500000   1.8500000   1.8500000   1.8500000   1.8500000
            7           8           9          10          11          12
    1   1.8500000   1.8500000   1.8500000   1.8900000   1.2000000   1.2000000
           13          14          15          16          17          18
    1   1.2000000   1.2000000   1.2000000   1.2000000   1.2000000   1.2000000
           19
    1   1.2000000
 Changing PCM_VDW_RADII to SMD_RADIUS
 Discretize the solute cavity surface with Lebedev spheres
	Using 110 Lebedev grid points for each H atom
	Using 194 Lebedev grid points for other atoms
	Atomic van der Waals radii will be scaled by 1.20
 Remove points where switching function is < 1.0e-08
 Keep 1361 surface tesserae and discard 1569 interior tesserae
 Molecular Surface Area = 165.334 Angst**2
 A cutoff of  1.0D-14 yielded  14461 shell pairs
 There are     98203 function pairs (    126367 Cartesian)
 Smallest overlap matrix eigenvalue = 5.30E-07
 Linear dependence detected in AO basis
 Tighter screening thresholds may be required for diffuse basis sets
 Use S2THRESH > 14 and THRESH = 14 in case of SCF convergence issues
 Number of orthogonalized atomic orbitals = 449
 Maximum deviation from orthogonality = 3.282E-10

 Scale SEOQF with 1.000000e-01/1.000000e-01/1.000000e-01

 Standard Electronic Orientation quadrupole field applied
 Nucleus-field energy     =    -0.0000000066 hartrees
 Guess from superposition of atomic densities
 Warning:  Energy on first SCF cycle will be non-variational
 SAD guess density has 69.692991 electrons

 -----------------------------------------------------------------------
  General SCF calculation program by
  Eric Jon Sundstrom, Paul Horn, Yuezhi Mao, Dmitri Zuev, Alec White,
  David Stuck, Shaama M.S., Shane Yost, Joonho Lee, David Small,
  Daniel Levine, Susi Lehtola, Hugh Burton, Evgeny Epifanovsky
 -----------------------------------------------------------------------
 Exchange:     0.1670 Hartree-Fock + 1.0000 wB97X-V + LR-HF
 Correlation:  1.0000 wB97X-V
 Using Euler-Maclaurin-Lebedev (99,590) quadrature formula
 Nonlocal Correlation:  VV10 with C = 0.0100 and b = 6.00 and scale = 1.00000
 Grid used for NLC:  SG-1 standard quadrature
Energy prior to optimization (guess energy) = -402.927792916200
Begin Timing: Total SCF Calculation
begin iterations for algorithm: DIIS         
the SCF tolerance is set to 1.00e-08
    1    -402.9277929162      3.29e-03     00000 
    2    -402.9659807229      3.09e-03     00000 
    3    -403.1728064417      3.62e-04     00000 
    4    -403.1765321175      1.49e-04     00000 
    5    -403.1772243803      2.81e-05     00000 
    6    -403.1772644461      1.73e-05     00000 
    7    -403.1772735949      4.02e-06     00000 
    8    -403.1772750582      1.49e-06     00000 
    9    -403.1772752822      7.96e-07     00000 
   10    -403.1772753623      3.15e-07     00000 
   11    -403.1772753765      9.25e-08     00000 
   12    -403.1772753778      4.47e-08     00000 
   13    -403.1772753779      1.41e-08     00000 
   14    -403.1772753780      4.27e-09     00000 Convergence criterion met
Timing for Total SCF: 4144.00s (wall), 8242.59s (cpu)
(3)  G-ENP(liq) elect-nuc-pol free energy of system     -403.177275378 a.u.
(4)  G-CDS(liq) cavity-dispersion-solvent structure 
     free energy                                                3.8669 kcal/mol
(6)  G-S(liq) free energy of system                     -403.171113065 a.u.
E_pcm = -0.0164880466
E_cds = 0.0061623125
Multipole orders to be included
        2
        3
computing dipole RHS
computing quadrupole RHS
total number of RHS in solve_reponses: 8
RHS batch sizes
        8
Beginning Block Conjugate Gradient Iterations. Batch Number: 0
computing hessian-vector products by finite difference
              1      6.87e-01     00000 Conjugate Gradient Iteration
computing hessian-vector products by finite difference
              2      2.23e-01     00000 Conjugate Gradient Iteration
computing hessian-vector products by finite difference
              3      6.89e-02     00000 Conjugate Gradient Iteration
computing hessian-vector products by finite difference
              4      2.89e-02     00000 Conjugate Gradient Iteration
computing hessian-vector products by finite difference
              5      9.44e-03     00000 Conjugate Gradient Iteration
computing hessian-vector products by finite difference
              6      2.61e-03     00000 Conjugate Gradient Iteration
computing hessian-vector products by finite difference
              7      5.95e-04     00000 Conjugate Gradient Iteration
computing hessian-vector products by finite difference
              8      1.10e-04     00000 Conjugate Gradient Iteration
computing hessian-vector products by finite difference
              9      1.91e-05     00000 Conjugate Gradient Iteration
computing hessian-vector products by finite difference
             10      3.37e-06     00000 Conjugate Gradient Iteration
computing hessian-vector products by finite difference
             11      4.92e-07     00000 Conjugate Gradient Iteration
computing hessian-vector products by finite difference
             12      9.18e-08     00000 Conjugate Gradient Iteration
computing hessian-vector products by finite difference
             13      1.51e-08     00000 Conjugate Gradient Iteration
computing hessian-vector products by finite difference
             14      4.75e-09     00000 CG Converged
batch 0 complete
Done Calculating Responses
TESTING ORTHOGONALIZATION OF MULTIPOLE BASIS
Multipole virts passed orthogonality test
Virts Per Order
          105
          175
 
 --------------------------------------------------------------
 
                    Orbital Energies (a.u.)
 --------------------------------------------------------------
 
 Alpha MOs
 -- Occupied --
-14.4433 -10.3003 -10.2903 -10.2700 -10.2690 -10.2662 -10.2661 -10.2632
-10.2586 -10.2555  -1.1106  -0.9741  -0.9256  -0.8639  -0.8574  -0.8106
 -0.7418  -0.7090  -0.6712  -0.6448  -0.5952  -0.5779  -0.5509  -0.5443
 -0.5329  -0.5108  -0.5067  -0.4874  -0.4765  -0.4499  -0.4482  -0.4280
 -0.3755  -0.3139  -0.2891
 -- Virtual --
  0.0554   0.0641   0.0799   0.0824   0.0918   0.1022   0.1038   0.1106
  0.1314   0.1363   0.1392   0.1498   0.1609   0.1693   0.1780   0.1821
  0.1911   0.1981   0.2047   0.2121   0.2168   0.2240   0.2296   0.2478
  0.2517   0.2580   0.2608   0.2642   0.2696   0.2779   0.2794   0.2802
  0.2843   0.2883   0.2936   0.2948   0.3048   0.3115   0.3156   0.3247
  0.3282   0.3343   0.3396   0.3419   0.3437   0.3472   0.3518   0.3552
  0.3581   0.3666   0.3742   0.3790   0.3803   0.3896   0.3925   0.3981
  0.4000   0.4070   0.4154   0.4167   0.4214   0.4229   0.4301   0.4399
  0.4407   0.4499   0.4545   0.4558   0.4596   0.4630   0.4675   0.4778
  0.4815   0.4937   0.4957   0.4979   0.5023   0.5165   0.5222   0.5256
  0.5331   0.5342   0.5404   0.5450   0.5509   0.5541   0.5614   0.5659
  0.5716   0.5768   0.5882   0.5933   0.6078   0.6128   0.6173   0.6239
  0.6356   0.6440   0.6483   0.6504   0.6532   0.6703   0.6758   0.6818
  0.6899   0.6929   0.6992   0.7028   0.7133   0.7156   0.7261   0.7302
  0.7362   0.7412   0.7479   0.7544   0.7580   0.7637   0.7690   0.7768
  0.7797   0.7824   0.7885   0.7919   0.7955   0.8006   0.8088   0.8145
  0.8183   0.8271   0.8343   0.8414   0.8430   0.8530   0.8545   0.8564
  0.8644   0.8723   0.8804   0.8948   0.9027   0.9053   0.9093   0.9233
  0.9433   0.9495   0.9602   0.9799   0.9903   0.9977   1.0086   1.0208
  1.0315   1.0406   1.0439   1.0585   1.0630   1.0760   1.0837   1.0966
  1.1096   1.1145   1.1340   1.1382   1.1479   1.1723   1.1855   1.1957
  1.2219   1.2376   1.2583   1.2611   1.2863   1.3026   1.3125   1.3434
  1.3466   1.3823   1.3909   1.3988   1.4128   1.4274   1.4464   1.4634
  1.4786   1.5182   1.5469   1.5603   1.5676   1.5824   1.5971   1.6098
  1.6276   1.6562   1.6697   1.6949   1.6998   1.7239   1.7340   1.7725
  1.7795   1.7913   1.8310   1.8500   1.8550   1.8644   1.8684   1.8817
  1.8946   1.9054   1.9187   1.9431   1.9500   1.9584   1.9676   1.9781
  1.9908   1.9980   2.0007   2.0145   2.0245   2.0368   2.0615   2.0683
  2.0816   2.0943   2.1210   2.1345   2.1723   2.1839   2.1961   2.2071
  2.2239   2.2531   2.2907   2.2993   2.3141   2.3340   2.3591   2.3621
  2.3950   2.4030   2.4271   2.4480   2.4609   2.4910   2.5065   2.5252
  2.5430   2.5673   2.5826   2.5947   2.6229   2.6261   2.6541   2.6558
  2.6849   2.6933   2.7245   2.7579   2.7654   2.7719   2.7821   2.8010
  2.8050   2.8170   2.8341   2.8459   2.8627   2.8802   2.8959   2.8962
  2.9130   2.9284   2.9404   2.9636   2.9713   2.9932   3.0098   3.0301
  3.0356   3.0392   3.0752   3.0799   3.0899   3.1054   3.1298   3.1438
  3.1591   3.1695   3.1960   3.2122   3.2234   3.2398   3.2465   3.2700
  3.2767   3.2886   3.3024   3.3090   3.3266   3.3469   3.3665   3.3815
  3.3957   3.3977   3.4140   3.4258   3.4405   3.4484   3.4540   3.4790
  3.4826   3.4910   3.5089   3.5210   3.5217   3.5252   3.5402   3.5522
  3.5739   3.5827   3.5933   3.6090   3.6273   3.6416   3.6599   3.6689
  3.6771   3.6992   3.7093   3.7157   3.7241   3.7444   3.7676   3.7796
  3.7898   3.8149   3.8688   3.8775   3.9034   3.9330   3.9389   3.9800
  4.0258   4.0437   4.0549   4.1164   4.1431   4.1689   4.1970   4.2074
  4.2336   4.2486   4.2650   4.2751   4.2941   4.3064   4.3401   4.3530
  4.3563   4.3991   4.4113   4.4216   4.4574   4.4768   4.5124   4.5471
  4.5891   4.6287   4.6367   4.6705   4.7436   4.7749   4.8146   4.8363
  4.9178   4.9371   4.9584   4.9755   4.9867   5.0097   5.0634   5.0661
  5.1100   5.1245   5.1518   5.2017   5.2114   5.2630   5.3779   5.4087
  5.4448   5.4888   5.5397   5.5930   5.6414   5.7076   5.8095   5.8266
  5.9523   5.9799   6.2786   6.3355  22.6455  22.7488  22.9130  22.9394
 22.9596  23.1700  23.2466  23.4387  23.7825  32.8421
 --------------------------------------------------------------
 
          Ground-State Mulliken Net Atomic Charges

     Atom                 Charge (a.u.)
  ----------------------------------------
      1 C                    -0.947663
      2 C                     0.627164
      3 C                    -0.917675
      4 C                     0.689084
      5 C                    -0.218177
      6 C                    -0.406082
      7 C                    -0.771436
      8 C                    -0.694255
      9 C                    -0.480666
     10 N                     0.119627
     11 H                     0.294409
     12 H                     0.310052
     13 H                     0.317675
     14 H                     0.218661
     15 H                     0.393930
     16 H                     0.414700
     17 H                     0.418142
     18 H                     0.403812
     19 H                     0.228698
  ----------------------------------------
  Sum of atomic charges =     0.000000

 -----------------------------------------------------------------
                    Cartesian Multipole Moments
 -----------------------------------------------------------------
    Charge (ESU x 10^10)
                 0.0000
    Dipole Moment (Debye)
         X       0.6962      Y       2.9890      Z       0.0556
       Tot       3.0695
    Quadrupole Moments (Debye-Ang)
        XX     -61.9667     XY       7.5704     YY     -48.5675
        XZ      -2.6247     YZ      -1.8226     ZZ     -52.5058
    Octopole Moments (Debye-Ang^2)
       XXX    -244.2903    XXY      33.8333    XYY     -60.2200
       YYY      62.0837    XXZ       4.2040    XYZ      -4.1285
       YYZ       3.2308    XZZ     -62.9092    YZZ      19.3449
       ZZZ      12.6579
    Hexadecapole Moments (Debye-Ang^3)
      XXXX    -757.4617   XXXY      70.6892   XXYY    -228.9446
      XYYY      81.8020   YYYY    -641.8890   XXXZ     100.2567
      XXYZ     -68.1967   XYYZ      17.9867   YYYZ    -136.7512
      XXZZ    -277.7699   XYZZ      16.8459   YYZZ    -263.4401
      XZZZ      64.9333   YZZZ    -128.3374   ZZZZ    -990.5634
 -----------------------------------------------------------------
Archival summary:
1\1\nid00562\SP\ProcedureUnspecified\BasisUnspecified\199\meili\MonSep2704:26:592021MonSep2704:26:592021\0\\#,ProcedureUnspecified,BasisUnspecified,\\0,1\C\C,1,1.40737\H,2,1.08045,1,120.298\C,2,1.40312,1,119.12,3,178.531,0\H,4,1.08238,2,119.626,1,-179.99,0\C,4,1.40683,2,120.941,1,-0.216802,0\H,6,1.08211,4,119.682,2,-179.692,0\C,6,1.38754,4,120.975,2,0.0834038,0\H,8,1.08136,6,120.893,4,-179.887,0\C,8,1.39434,6,118.029,4,0.0725889,0\N,10,1.37099,8,130.94,6,-179.967,0\H,11,1.01452,10,126.51,8,-2.53002,0\C,11,1.37427,10,109.799,8,179.978,0\H,13,1.08667,11,125.095,10,177.125,0\C,13,1.36069,11,110.264,10,0.137659,0\C,15,1.50473,13,126.731,11,175.204,0\H,16,1.091,15,108.855,13,28.663,0\H,16,1.09126,15,109.176,13,146.73,0\H,16,1.1,15,111.529,13,-91.9788,0\\\@

 Total job time:  75702.97s(wall), 150337.00s(cpu) 
 Mon Sep 27 04:27:02 2021

        *************************************************************
        *                                                           *
        *  Thank you very much for using Q-Chem.  Have a nice day.  *
        *                                                           *
        *************************************************************


Done Job For Fragment 0
calling putenv with: QCSCRATCH=/global/cscratch1/sd/meili 
calling putenv with: QCLOCALSCR=/tmp 
calling putenv with: QCTHREADS=32 
Creating input file /tmp/qchem53838/Frg2.input
using default PutDataFrgm: nothing
calling putenv with: QCSCRATCH=/tmp/qchem53838/ 
calling putenv with: QCLOCALSCR=/tmp/qchem53838/ 
Spawning Job For Fragment 1
                  Welcome to Q-Chem
     A Quantum Leap Into The Future Of Chemistry


 Q-Chem 5.2, Q-Chem, Inc., Pleasanton, CA (2019)

 License issued to: National Energy Research Scientific Computing Center

 Yihan Shao,  Zhengting Gan,  E. Epifanovsky,  A. T. B. Gilbert,  M. Wormit,  
 J. Kussmann,  A. W. Lange,  A. Behn,  Jia Deng,  Xintian Feng,  D. Ghosh,  
 M. Goldey,  P. R. Horn,  L. D. Jacobson,  I. Kaliman,  T. Kus,  A. Landau,  
 Jie Liu,  E. I. Proynov,  R. M. Richard,  R. P. Steele,  E. J. Sundstrom,  
 H. L. Woodcock III,  P. M. Zimmerman,  D. Zuev,  B. Albrecht,  E. Alguire,  
 S. A. Baeppler,  D. Barton,  Z. Benda,  Y. A. Bernard,  E. J. Berquist,  
 K. B. Bravaya,  H. Burton,  D. Casanova,  Chun-Min Chang,  Yunqing Chen,  
 A. Chien,  K. D. Closser,  M. P. Coons,  S. Coriani,  S. Dasgupta,  
 A. L. Dempwolff,  M. Diedenhofen,  Hainam Do,  R. G. Edgar,  Po-Tung Fang,  
 S. Faraji,  S. Fatehi,  Qingguo Feng,  K. D. Fenk,  J. Fosso-Tande,  
 J. Gayvert,  Qinghui Ge,  A. Ghysels,  G. Gidofalvi,  J. Gomes,  
 J. Gonthier,  A. Gunina,  D. Hait,  M. W. D. Hanson-Heine,  
 P. H. P. Harbach,  A. W. Hauser,  M. F. Herbst,  J. E. Herr,  
 E. G. Hohenstein,  Z. C. Holden,  Kerwin Hui,  B. C. Huynh,  T.-C. Jagau,  
 Hyunjun Ji,  B. Kaduk,  K. Khistyaev,  Jaehoon Kim,  P. Klunzinger,  K. Koh,  
 D. Kosenkov,  L. Koulias,  T. Kowalczyk,  C. M. Krauter,  A. Kunitsa,  
 Ka Un Lao,  A. Laurent,  K. V. Lawler,  Joonho Lee,  D. Lefrancois,  
 S. Lehtola,  D. S. Levine,  Yi-Pei Li,  You-Sheng Lin,  Fenglai Liu,  
 E. Livshits,  A. Luenser,  P. Manohar,  E. Mansoor,  S. F. Manzer,  
 Shan-Ping Mao,  Yuezhi Mao,  N. Mardirossian,  A. V. Marenich,  
 T. Markovich,  L. A. Martinez-Martinez,  S. A. Maurer,  N. J. Mayhall,  
 S. C. McKenzie,  J.-M. Mewes,  P. Morgante,  A. F. Morrison,  
 J. W. Mullinax,  K. Nanda,  T. S. Nguyen-Beck,  R. Olivares-Amaya,  
 J. A. Parkhill,  Zheng Pei,  T. M. Perrine,  F. Plasser,  P. Pokhilko,  
 S. Prager,  A. Prociuk,  E. Ramos,  D. R. Rehn,  F. Rob,  M. Scheurer,  
 M. Schneider,  N. Sergueev,  S. M. Sharada,  S. Sharma,  D. W. Small,  
 T. Stauch,  T. Stein,  Yu-Chuan Su,  A. J. W. Thom,  A. Tkatchenko,  
 T. Tsuchimochi,  N. M. Tubman,  L. Vogt,  M. L. Vidal,  O. Vydrov,  
 M. A. Watson,  J. Wenzel,  M. de Wergifosse,  T. A. Wesolowski,  A. White,  
 J. Witte,  A. Yamada,  Jun Yang,  K. Yao,  S. Yeganeh,  S. R. Yost,  
 Zhi-Qiang You,  A. Zech,  Igor Ying Zhang,  Xing Zhang,  Yan Zhao,  
 Ying Zhu,  B. R. Brooks,  G. K. L. Chan,  C. J. Cramer,  M. S. Gordon,  
 W. J. Hehre,  A. Klamt,  M. W. Schmidt,  C. D. Sherrill,  D. G. Truhlar,  
 A. Aspuru-Guzik,  R. Baer,  A. T. Bell,  N. A. Besley,  Jeng-Da Chai,  
 A. E. DePrince, III,  R. A. DiStasio Jr.,  A. Dreuw,  B. D. Dunietz,  
 T. R. Furlani,  Chao-Ping Hsu,  Yousung Jung,  Jing Kong,  D. S. Lambrecht,  
 WanZhen Liang,  C. Ochsenfeld,  V. A. Rassolov,  L. V. Slipchenko,  
 J. E. Subotnik,  T. Van Voorhis,  J. M. Herbert,  A. I. Krylov,  
 P. M. W. Gill,  M. Head-Gordon

 Contributors to earlier versions of Q-Chem not listed above: 
 R. D. Adamson,  B. Austin,  J. Baker,  G. J. O. Beran,  K. Brandhorst,  
 S. T. Brown,  E. F. C. Byrd,  A. K. Chakraborty,  C.-L. Cheng,  
 Siu Hung Chien,  D. M. Chipman,  D. L. Crittenden,  H. Dachsel,  
 R. J. Doerksen,  A. D. Dutoi,  L. Fusti-Molnar,  W. A. Goddard III,  
 A. Golubeva-Zadorozhnaya,  S. R. Gwaltney,  G. Hawkins,  A. Heyden,  
 S. Hirata,  G. Kedziora,  F. J. Keil,  C. Kelley,  Jihan Kim,  R. A. King,  
 R. Z. Khaliullin,  P. P. Korambath,  W. Kurlancheek,  A. M. Lee,  M. S. Lee,  
 S. V. Levchenko,  Ching Yeh Lin,  D. Liotard,  R. C. Lochan,  I. Lotan,  
 P. E. Maslen,  N. Nair,  D. P. O'Neill,  D. Neuhauser,  E. Neuscamman,  
 C. M. Oana,  R. Olson,  B. Peters,  R. Peverati,  P. A. Pieniazek,  
 Y. M. Rhee,  J. Ritchie,  M. A. Rohrdanz,  E. Rosta,  N. J. Russ,  
 H. F. Schaefer III,  N. E. Schultz,  N. Shenvi,  A. C. Simmonett,  A. Sodt,  
 D. Stuck,  K. S. Thanthiriwatte,  V. Vanovschi,  Tao Wang,  A. Warshel,  
 C. F. Williams,  Q. Wu,  X. Xu,  W. Zhang

 Please cite Q-Chem as follows:
 Y. Shao et al., Mol. Phys. 113, 184-215 (2015)
 DOI: 10.1080/00268976.2014.952696

 Q-Chem 5.2.0 for Intel X86 EM64T Linux

 Parts of Q-Chem use Armadillo 8.300.2 (Tropical Shenanigans).
 http://arma.sourceforge.net/

 Q-Chem begins on Mon Sep 27 04:27:05 2021  

Host: cori01
0

     Scratch files written to /tmp/qchem53838//Frg2//
 May1019 |scratch|qcdevops|jenkins|workspace|build_RNUM -1
Processing $rem in /global/common/cori/software/qchem/5.2/config/preferences:
	 MEM_TOTAL  96000 
NAlpha2: 40
NElect   40
Mult     1
Symmetry turned off for PCM/SM12/SMD calculation

Checking the input file for inconsistencies... 	...done.

--------------------------------------------------------------
User input:
--------------------------------------------------------------
$molecule
1 1
 6	-2.1856190540	-1.0019107613	-1.1518626977
 6	-2.3526190540	0.7220892387	0.6181373023
 7	-2.4606190540	-0.5319107613	0.2091373023
 7	-1.9776190540	1.6670892387	-0.2178626977
 7	-2.6046190540	1.0300892387	1.8711373023
 1	-2.7056190540	-1.2469107613	0.8901373023
 1	-1.7336190540	1.4290892387	-1.1628626977
 1	-1.8686190540	2.6170892387	0.0991373023
 1	-2.7926190540	0.3230892387	2.5651373023
 1	-2.5126190540	1.9860892387	2.1791373023
 1	-1.9466190540	-2.0659107613	-1.0898626977
 1	-1.3076190540	-0.5089107613	-1.5738626977
 1	-3.0419790540	-0.8878207613	-1.8327626977
$end
$rem
EDA2		1
METHOD		WB97X-V
BASIS		DEF2-TZVPD
XC_GRID		000099000590
NL_GRID		1
UNRESTRICTED		FALSE
MAX_SCF_CYCLES		200
SYMMETRY		FALSE
SYM_IGNORE		TRUE
BASIS_LIN_DEP_THRESH		6
THRESH		14
SCF_CONVERGENCE		8
SCF_PRINT_FRGM		TRUE
SOLVENT_METHOD		SMD
!required keywords
JOBTYPE		SP
SYM_IGNORE		TRUE
SUBSYSTEM		TRUE
GEN_SCFMAN		TRUE
CHILD_INSTRUCTION		2
SYM_IGNORE		TRUE
SCFMI		0
RI_K 0		
PARI_K 0		
MIN_PARI_K 0		
IARI_K 0		
OCC_RI_K 0		
PURECART		1111
MEM_STATIC		2000
MEM_TOTAL		96000
GUI		0
CHILD_MP		1
CHILD_MP_ORDERS		232
FRZ_RELAX		0
FRZ_RELAX_METHOD		0
EDA_CLS_ELEC		1
EDA_CLS_DISP		0
FRZ_ORTHO_DECOMP		1
EDA2		FALSE
FRGM_METHOD		FALSE
CIS_N_ROOTS  0
LOCAL_CIS    0
CIS_RLX_DNS  1
$end
$smx
SOLVENT			WATER
$end
--------------------------------------------------------------
 ----------------------------------------------------------------
             Standard Nuclear Orientation (Angstroms)
    I     Atom           X                Y                Z
 ----------------------------------------------------------------
    1      C      -2.1856190540    -1.0019107613    -1.1518626977
    2      C      -2.3526190540     0.7220892387     0.6181373023
    3      N      -2.4606190540    -0.5319107613     0.2091373023
    4      N      -1.9776190540     1.6670892387    -0.2178626977
    5      N      -2.6046190540     1.0300892387     1.8711373023
    6      H      -2.7056190540    -1.2469107613     0.8901373023
    7      H      -1.7336190540     1.4290892387    -1.1628626977
    8      H      -1.8686190540     2.6170892387     0.0991373023
    9      H      -2.7926190540     0.3230892387     2.5651373023
   10      H      -2.5126190540     1.9860892387     2.1791373023
   11      H      -1.9466190540    -2.0659107613    -1.0898626977
   12      H      -1.3076190540    -0.5089107613    -1.5738626977
   13      H      -3.0419790540    -0.8878207613    -1.8327626977
 ----------------------------------------------------------------
 Nuclear Repulsion Energy =         194.37336226 hartrees
 There are       20 alpha and       20 beta electrons
 Requested basis set is def2-TZVPD
 There are 105 shells and 257 basis functions

 Total QAlloc Memory Limit  96000 MB
 Mega-Array Size      1956 MB
 MEM_STATIC part      2000 MB
 
 Citation of the SMD model:
 Marenich, A.V.; Cramer, C.J.; Truhlar, D.G.
 J. Phys. Chem. B 2009, 113, 6378-6396.
 iSolventCode=           1
 Solvent: water                                                           
 
 vradii
            1           2           3           4           5           6
    1   1.8500000   1.8500000   1.8900000   1.8900000   1.8900000   1.2000000
            7           8           9          10          11          12
    1   1.2000000   1.2000000   1.2000000   1.2000000   1.2000000   1.2000000
           13
    1   1.2000000
 Changing PCM_VDW_RADII to SMD_RADIUS
 Discretize the solute cavity surface with Lebedev spheres
	Using 110 Lebedev grid points for each H atom
	Using 194 Lebedev grid points for other atoms
	Atomic van der Waals radii will be scaled by 1.20
 Remove points where switching function is < 1.0e-08
 Keep 920 surface tesserae and discard 930 interior tesserae
 Molecular Surface Area = 113.778 Angst**2

                       Distance Matrix (Angstroms)
             C (  1)   C (  2)   N (  3)   N (  4)   N (  5)   H (  6)
   C (  2)  2.476482
   N (  3)  1.465894  1.323428
   N (  4)  2.835345  1.316262  2.291554
   N (  5)  3.666485  1.314678  2.285350  2.272184
   H (  6)  2.121365  2.018800  1.017355  3.201413  2.481389
   H (  7)  2.472688  2.013696  2.501286  1.004592  3.181666  3.510067
   H (  8)  3.842220  2.023522  3.206051  1.007408  2.490030  4.031966
   H (  9)  3.992513  2.035586  2.528238  3.196193  1.008379  2.297410
   H ( 10)  4.486718  2.014948  3.197488  2.476610  1.008595  3.485837
   H ( 11)  1.092273  3.294699  2.074790  3.833619  4.334247  2.273157
   H ( 12)  1.091795  2.722545  2.123447  2.650021  3.989831  2.927515
   H ( 13)  1.099997  3.012298  2.152674  3.204423  4.193869  2.766996
             H (  7)   H (  8)   H (  9)   H ( 10)   H ( 11)   H ( 12)
   H (  8)  1.738451
   H (  9)  4.030223  3.492473
   H ( 10)  3.476500  2.267002  1.730019
   H ( 11)  3.502245  4.832214  4.447703  5.236929
   H ( 12)  2.026386  3.589641  4.475351  4.664982  1.751236
   H ( 13)  2.743837  4.170540  4.568370  4.963358  1.771894  1.794048

 
 A cutoff of  1.0D-14 yielded   5440 shell pairs
 There are     33162 function pairs (     41495 Cartesian)
 Smallest overlap matrix eigenvalue = 1.65E-05

 Scale SEOQF with 1.000000e-01/1.000000e-01/1.000000e-01

 Standard Electronic Orientation quadrupole field applied
 Nucleus-field energy     =     0.0000000061 hartrees
 Guess from superposition of atomic densities
 Warning:  Energy on first SCF cycle will be non-variational
 SAD guess density has 40.388232 electrons

 -----------------------------------------------------------------------
  General SCF calculation program by
  Eric Jon Sundstrom, Paul Horn, Yuezhi Mao, Dmitri Zuev, Alec White,
  David Stuck, Shaama M.S., Shane Yost, Joonho Lee, David Small,
  Daniel Levine, Susi Lehtola, Hugh Burton, Evgeny Epifanovsky
 -----------------------------------------------------------------------
 Exchange:     0.1670 Hartree-Fock + 1.0000 wB97X-V + LR-HF
 Correlation:  1.0000 wB97X-V
 Using Euler-Maclaurin-Lebedev (99,590) quadrature formula
 Nonlocal Correlation:  VV10 with C = 0.0100 and b = 6.00 and scale = 1.00000
 Grid used for NLC:  SG-1 standard quadrature
Energy prior to optimization (guess energy) = -244.726488949295
Begin Timing: Total SCF Calculation
begin iterations for algorithm: DIIS         
the SCF tolerance is set to 1.00e-08
    1    -244.7264889493      7.93e-03     00000 
    2    -244.9665617087      6.22e-03     00000 
    3    -245.2052966519      3.25e-04     00000 
    4    -245.2062091057      1.71e-04     00000 
    5    -245.2064353131      4.61e-05     00000 
    6    -245.2064535549      1.87e-05     00000 
    7    -245.2064564980      3.26e-06     00000 
    8    -245.2064566841      9.02e-07     00000 
    9    -245.2064566971      3.90e-07     00000 
   10    -245.2064566996      1.03e-07     00000 
   11    -245.2064566999      4.33e-08     00000 
   12    -245.2064566999      1.69e-08     00000 
   13    -245.2064566999      2.10e-09     00000 Convergence criterion met
Timing for Total SCF: 719.00s (wall), 1426.90s (cpu)
(3)  G-ENP(liq) elect-nuc-pol free energy of system     -245.206456700 a.u.
(4)  G-CDS(liq) cavity-dispersion-solvent structure 
     free energy                                                2.7284 kcal/mol
(6)  G-S(liq) free energy of system                     -245.202108748 a.u.
E_pcm = -0.1080308373
E_cds = 0.0043479522
Multipole orders to be included
        2
        3
computing dipole RHS
computing quadrupole RHS
total number of RHS in solve_reponses: 8
RHS batch sizes
        8
Beginning Block Conjugate Gradient Iterations. Batch Number: 0
computing hessian-vector products by finite difference
              1      4.85e-01     00000 Conjugate Gradient Iteration
computing hessian-vector products by finite difference
              2      1.87e-01     00000 Conjugate Gradient Iteration
computing hessian-vector products by finite difference
              3      5.27e-02     00000 Conjugate Gradient Iteration
computing hessian-vector products by finite difference
              4      1.43e-02     00000 Conjugate Gradient Iteration
computing hessian-vector products by finite difference
              5      2.07e-03     00000 Conjugate Gradient Iteration
computing hessian-vector products by finite difference
              6      3.53e-04     00000 Conjugate Gradient Iteration
computing hessian-vector products by finite difference
              7      4.69e-05     00000 Conjugate Gradient Iteration
computing hessian-vector products by finite difference
              8      5.85e-06     00000 Conjugate Gradient Iteration
computing hessian-vector products by finite difference
              9      8.54e-07     00000 Conjugate Gradient Iteration
computing hessian-vector products by finite difference
             10      9.62e-08     00000 Conjugate Gradient Iteration
computing hessian-vector products by finite difference
             11      1.21e-08     00000 Conjugate Gradient Iteration
computing hessian-vector products by finite difference
             12      2.45e-09     00000 CG Converged
batch 0 complete
Done Calculating Responses
TESTING ORTHOGONALIZATION OF MULTIPOLE BASIS
Multipole virts passed orthogonality test
Virts Per Order
           60
          100
 
 --------------------------------------------------------------
 
                    Orbital Energies (a.u.)
 --------------------------------------------------------------
 
 Alpha MOs
 -- Occupied --
-14.4552 -14.4473 -14.4448 -10.4217 -10.3050  -1.1745  -1.0553  -1.0432
 -0.8531  -0.7656  -0.7251  -0.6878  -0.6168  -0.6117  -0.5958  -0.5694
 -0.5264  -0.5042  -0.3996  -0.3770
 -- Virtual --
  0.0589   0.0847   0.0982   0.1046   0.1236   0.1254   0.1378   0.1514
  0.1725   0.1783   0.1937   0.1973   0.2052   0.2162   0.2202   0.2412
  0.2424   0.2452   0.2466   0.2709   0.2811   0.2862   0.2950   0.3058
  0.3135   0.3190   0.3241   0.3249   0.3387   0.3428   0.3512   0.3606
  0.3713   0.3765   0.3802   0.3972   0.4083   0.4109   0.4180   0.4303
  0.4402   0.4498   0.4599   0.4628   0.4695   0.4807   0.4870   0.4999
  0.5008   0.5122   0.5191   0.5247   0.5324   0.5371   0.5488   0.5550
  0.5635   0.5761   0.5807   0.5887   0.6094   0.6201   0.6428   0.6519
  0.6646   0.6768   0.6816   0.7056   0.7239   0.7310   0.7524   0.7678
  0.7995   0.8016   0.8179   0.8302   0.8420   0.8511   0.8624   0.8716
  0.8833   0.8909   0.9021   0.9248   0.9371   0.9822   0.9853   0.9973
  1.0416   1.0671   1.0789   1.0971   1.1058   1.1171   1.1314   1.1437
  1.1586   1.1785   1.2179   1.2596   1.2759   1.3437   1.3606   1.4165
  1.4325   1.4511   1.4797   1.4907   1.5622   1.5734   1.6574   1.6726
  1.6813   1.7106   1.7586   1.8010   1.8337   1.8623   1.8766   1.8859
  1.9163   1.9251   1.9341   1.9633   2.0075   2.0139   2.0451   2.0770
  2.1205   2.1270   2.1731   2.1878   2.2172   2.2347   2.2786   2.3139
  2.3252   2.3536   2.3884   2.4153   2.4375   2.4795   2.4992   2.5276
  2.5576   2.5887   2.6242   2.6415   2.6535   2.6916   2.7149   2.7237
  2.7943   2.8155   2.8546   2.8932   2.9004   2.9143   2.9400   2.9661
  3.0606   3.1301   3.1451   3.1630   3.1889   3.2117   3.2203   3.2533
  3.2749   3.3016   3.3122   3.3151   3.3662   3.3906   3.4325   3.4437
  3.4516   3.5015   3.5321   3.6040   3.6082   3.6544   3.6835   3.7472
  3.8238   3.8815   3.9498   3.9795   4.0847   4.1575   4.1645   4.2340
  4.2834   4.3313   4.3449   4.3709   4.3916   4.5001   4.5760   4.6294
  4.6602   4.8418   4.8605   4.8723   4.9391   4.9982   5.0250   5.0569
  5.1192   5.1251   5.1331   5.1634   5.1957   5.2269   5.2801   5.3820
  5.4053   5.4288   5.4464   5.4649   5.5023   5.5095   5.5867   5.6529
  5.7016   5.7898   5.8224   5.8969   6.1735   6.2042   6.3947   6.4982
 22.6616  23.6847  32.3421  32.4597  32.8262
 --------------------------------------------------------------
 
          Ground-State Mulliken Net Atomic Charges

     Atom                 Charge (a.u.)
  ----------------------------------------
      1 C                    -0.821445
      2 C                     0.444122
      3 N                    -0.103399
      4 N                    -0.277494
      5 N                    -0.306053
      6 H                     0.296477
      7 H                     0.200963
      8 H                     0.240345
      9 H                     0.245133
     10 H                     0.245619
     11 H                     0.281093
     12 H                     0.296754
     13 H                     0.257884
  ----------------------------------------
  Sum of atomic charges =     1.000000

 -----------------------------------------------------------------
                    Cartesian Multipole Moments
 -----------------------------------------------------------------
    Charge (ESU x 10^10)
                 4.8032
    Dipole Moment (Debye)
         X     -10.7679      Y       2.9243      Z       2.7523
       Tot      11.4924
    Quadrupole Moments (Debye-Ang)
        XX      -7.1268     XY      -4.2396     YY     -13.3702
        XZ      -9.7361     YZ       3.3647     ZZ     -14.8883
    Octopole Moments (Debye-Ang^2)
       XXX     162.5716    XXY      -7.5314    XYY      35.1853
       YYY      -2.4989    XXZ      21.4602    XYZ      -8.7311
       YYZ       4.4457    XZZ      30.3562    YZZ      -0.7672
       ZZZ       5.5586
    Hexadecapole Moments (Debye-Ang^3)
      XXXX    -929.9661   XXXY      80.2037   XXYY    -145.5339
      XYYY      13.9132   YYYY    -161.3712   XXXZ      -7.6439
      XXYZ      -0.4617   XYYZ      -9.1029   YYYZ     -33.0565
      XXZZ    -111.3015   XYZZ       1.9282   YYZZ     -57.0992
      XZZZ     -10.9368   YZZZ     -40.0229   ZZZZ    -178.5604
 -----------------------------------------------------------------
Archival summary:
1\1\nid00562\SP\ProcedureUnspecified\BasisUnspecified\328(1+,1)\meili\MonSep2707:40:532021MonSep2707:40:532021\0\\#,ProcedureUnspecified,BasisUnspecified,\\1,1\C\N,1,1.31468\H,2,1.00838,1,121.832\H,2,1.0086,1,119.711,3,173.256,0\N,1,1.31626,2,119.455,3,-172.984,0\H,5,1.00459,1,119.773,2,176.542,0\H,5,1.00741,1,120.531,2,1.00761,0\N,1,1.32343,2,120.059,3,6.19513,0\H,8,1.01735,1,118.602,2,-2.30974,0\C,8,1.46589,1,125.129,2,-178.916,0\H,10,1.0918,8,111.404,1,39.914,0\H,10,1.09227,8,107.498,1,156.368,0\H,10,1.1,8,113.291,1,-84.5787,0\\\@

 Total job time:  11631.13s(wall), 23061.01s(cpu) 
 Mon Sep 27 07:40:56 2021

        *************************************************************
        *                                                           *
        *  Thank you very much for using Q-Chem.  Have a nice day.  *
        *                                                           *
        *************************************************************


Done Job For Fragment 1
calling putenv with: QCSCRATCH=/global/cscratch1/sd/meili 
calling putenv with: QCLOCALSCR=/tmp 
calling putenv with: QCTHREADS=32 
Doing General SCFMI
 Exchange:     0.1670 Hartree-Fock + 1.0000 wB97X-V + LR-HF
 Correlation:  1.0000 wB97X-V
 Using Euler-Maclaurin-Lebedev (99,590) quadrature formula
 Nonlocal Correlation:  VV10 with C = 0.0100 and b = 6.00 and scale = 1.00000
 Grid used for NLC:  SG-1 standard quadrature
performing fock build before subrot guess so that all methods have access
Printing subrot_rss_gen Method Specification:
Occupied Subspace Method is 0
Virtual Subspace Method is 0
Energy of the unrelaxed supersystem initial determinant -648.275080166401
performing fock build before subrot guess so that all methods have access
Printing subrot_rss_gen Method Specification:
Occupied Subspace Method is 0
Virtual Subspace Method is 0
Energy of the unrelaxed supersystem initial determinant w/ solvent -648.390161352610
write pseudocanon occs and virts to disk
write pseudocanon orbital energies to disk
Tolerance of ortho_decomp_scf: 1.00e-06
GDM subspace size: 20
Beginning the Orthogonal Decomposition of the Initial Supersystem Wavefunction
    1    -648.2329738864      2.28e-02     ortho_decomp Preconditoned Steepest Descent
    2    -648.2353460500      5.55e-04     ortho_decomp BFGS Step
    3    -648.2353532767      4.28e-05     ortho_decomp BFGS Step
    4    -648.2353532918      1.87e-06     ortho_decomp BFGS Step
    5    -648.2353532919      8.39e-08     ortho_decomp 00000 Convergence criterion met
 Hartree-Fock
 Hartree-Fock
 Hartree-Fock
Doing General SCFMI
 Exchange:     0.1670 Hartree-Fock + 1.0000 wB97X-V + LR-HF
 Correlation:  1.0000 wB97X-V
 Using Euler-Maclaurin-Lebedev (99,590) quadrature formula
 Nonlocal Correlation:  VV10 with C = 0.0100 and b = 6.00 and scale = 1.00000
 Grid used for NLC:  SG-1 standard quadrature
performing fock build at end of subrot_r(subrot) constructor so that all methods have access
<S^2> of initial wavefunction before polarization iterations 0.0000000000
Beginning iterations for the determination of the polarized wavefunction
Energy prior to optimization (guess energy) = -648.390161352610
Begin Timing: Total SCF Calculation
begin iterations for algorithm: DIIS         
the SCF tolerance is set to 1.00e-08
    1    -648.3901613526      4.90e-05     00000 
    2    -648.3904725029      2.20e-05     00000 
    3    -648.3905142181      9.72e-06     00000 
    4    -648.3905257643      3.49e-06     00000 
    5    -648.3905272439      1.80e-06     00000 
    6    -648.3905276972      5.00e-07     00000 
    7    -648.3905277276      2.52e-07     00000 
    8    -648.3905277326      1.01e-07     00000 
    9    -648.3905277334      3.68e-08     00000 
   10    -648.3905277335      1.83e-08     00000 
   11    -648.3905277335      6.10e-09     00000 Convergence criterion met
write pseudocanon occs and virts to disk
write pseudocanon orbital energies to disk
Timing for Total SCF: 11981.00s (wall), 23834.27s (cpu)
<S^2> of polarized wavefunction after polarization iterations 0.0000000000
relaxing scfmi constraint to allow all rotations in the entire AO span
Doing General SCFMI
 Exchange:     0.1670 Hartree-Fock + 1.0000 wB97X-V + LR-HF
 Correlation:  1.0000 wB97X-V
 Using Euler-Maclaurin-Lebedev (99,590) quadrature formula
 Nonlocal Correlation:  VV10 with C = 0.0100 and b = 6.00 and scale = 1.00000
 Grid used for NLC:  SG-1 standard quadrature
performing fock build at end of subrot_r(subrot) constructor so that all methods have access
<S^2> of polarized wavefunction before ct-allowed iterations 0.0000000000
Beginning iterations for the determination of the CT-Allowed wavefunction
Energy prior to optimization (guess energy) = -648.390527733510
Begin Timing: Total SCF Calculation
begin iterations for algorithm: DIIS         
the SCF tolerance is set to 1.00e-08
    1    -648.3905277335      7.24e-05     00000 
    2    -648.3916428770      6.55e-06     00000 
    3    -648.3916738988      1.17e-06     00000 
    4    -648.3916751384      5.24e-07     00000 
    5    -648.3916752247      1.40e-07     00000 
    6    -648.3916752366      5.92e-08     00000 
    7    -648.3916752376      1.46e-08     00000 
    8    -648.3916752378      5.83e-09     00000 Convergence criterion met
write pseudocanon occs and virts to disk
write pseudocanon orbital energies to disk
Timing for Total SCF: 7923.00s (wall), 15780.55s (cpu)
<S^2> of ct_allowed wavefunction after ct-allowed iterations 0.0000000000

================================
        Results of EDA2         
================================
Basic EDA Quantities
--------------------
Fragment Energies (Ha):
1 -403.1711130654
2 -245.2021087478
--------------------
  E_prp (kJ/mol) = -0.0000
  E_sol (kJ/mol) = 21.7762
  E_frz (kJ/mol) = -41.6592
  E_pol (kJ/mol) = -0.9619
  E_vct (kJ/mol) = -3.0128
  E_int (kJ/mol) = -23.8578
--------------------


Initial Wavefunction Decomposition
--------------------
  --------------------
  Orthogonal Fragment Subspace Decomposition:
  --------------------
     E_elec   (ELEC)   (kJ/mol) = -54.9060
     E_pauli  (PAULI)  (kJ/mol) = 47.3947
     E_disp   (DISP)   (kJ/mol) = -34.1479
     --------------------
     Terms summing to E_pauli:
     --------------------
        E_kep_pauli       (kJ/mol) = 62.6449
        E_disp_free_pauli (kJ/mol) = -15.2502
  --------------------
  Classical Frozen Decomposition:
  --------------------
     E_cls_elec  (CLS ELEC)  (kJ/mol) = -35.3174
     E_cls_pauli (CLS PAULI) (kJ/mol) = -6.3418
    [E_mod_pauli (MOD PAULI) (kJ/mol) = 27.8060 (CLS PAULI - DISP from orthogonal decomposition) ]
  --------------------
--------------------

Simplified EDA Summary (kJ/mol)
--------------------
 PREPARATION     -0.0000
 SOLVATION       21.7762
 FROZEN          -7.5114      (does not include dispersion)
[PAULI           47.3947]     (if this is negligible, then frozen describes electrostatics)
 DISPERSION      -34.1479
 POLARIZATION    -0.9619
 CHARGE TRANSFER -3.0128
 TOTAL           -23.8578     (PRP + SOL + FRZ + DISP + POL + CT)
--------------------
 
 --------------------------------------------------------------
 
                    Orbital Energies (a.u.)
 --------------------------------------------------------------
 
 Alpha MOs
 -- Occupied --
-14.4543 -14.4461 -14.4446 -14.4442 -10.4206 -10.3031 -10.3017 -10.2915
-10.2708 -10.2705 -10.2674 -10.2672 -10.2641 -10.2596 -10.2571  -1.1734
 -1.1118  -1.0542  -1.0423  -0.9752  -0.9268  -0.8652  -0.8586  -0.8516
 -0.8120  -0.7647  -0.7430  -0.7242  -0.7102  -0.6869  -0.6724  -0.6461
 -0.6159  -0.6110  -0.5979  -0.5963  -0.5790  -0.5685  -0.5494  -0.5455
 -0.5341  -0.5281  -0.5120  -0.5078  -0.5024  -0.4887  -0.4778  -0.4497
 -0.4484  -0.4292  -0.3980  -0.3793  -0.3732  -0.3148  -0.2901
 -- Virtual --
  0.0506   0.0586   0.0726   0.0758   0.0782   0.0890   0.0955   0.0986
  0.0992   0.1028   0.1094   0.1110   0.1227   0.1254   0.1274   0.1328
  0.1429   0.1498   0.1547   0.1583   0.1655   0.1721   0.1795   0.1829
  0.1848   0.1896   0.1980   0.2025   0.2044   0.2139   0.2162   0.2252
  0.2277   0.2310   0.2346   0.2391   0.2488   0.2508   0.2519   0.2597
  0.2624   0.2635   0.2664   0.2711   0.2766   0.2779   0.2793   0.2820
  0.2898   0.2932   0.2964   0.3008   0.3058   0.3077   0.3115   0.3122
  0.3161   0.3183   0.3201   0.3243   0.3286   0.3320   0.3334   0.3395
  0.3408   0.3442   0.3460   0.3477   0.3574   0.3592   0.3618   0.3672
  0.3679   0.3703   0.3726   0.3763   0.3786   0.3837   0.3873   0.3906
  0.3966   0.3979   0.4017   0.4069   0.4080   0.4130   0.4181   0.4223
  0.4229   0.4246   0.4275   0.4316   0.4332   0.4397   0.4415   0.4459
  0.4469   0.4528   0.4536   0.4613   0.4624   0.4639   0.4719   0.4747
  0.4755   0.4793   0.4832   0.4890   0.4915   0.4953   0.4986   0.5016
  0.5051   0.5080   0.5159   0.5177   0.5220   0.5228   0.5274   0.5312
  0.5343   0.5424   0.5441   0.5481   0.5494   0.5556   0.5581   0.5637
  0.5668   0.5703   0.5759   0.5766   0.5817   0.5849   0.5925   0.5932
  0.5995   0.6021   0.6070   0.6112   0.6159   0.6194   0.6217   0.6274
  0.6293   0.6365   0.6404   0.6459   0.6507   0.6537   0.6589   0.6612
  0.6674   0.6707   0.6763   0.6801   0.6841   0.6927   0.6954   0.6995
  0.7055   0.7074   0.7113   0.7156   0.7170   0.7266   0.7290   0.7304
  0.7341   0.7400   0.7447   0.7497   0.7527   0.7580   0.7601   0.7615
  0.7687   0.7719   0.7771   0.7815   0.7845   0.7923   0.7943   0.7957
  0.8011   0.8072   0.8106   0.8132   0.8167   0.8230   0.8261   0.8299
  0.8321   0.8353   0.8426   0.8475   0.8517   0.8532   0.8559   0.8577
  0.8603   0.8669   0.8687   0.8709   0.8847   0.8904   0.8985   0.9003
  0.9035   0.9116   0.9136   0.9152   0.9242   0.9307   0.9376   0.9450
  0.9459   0.9603   0.9626   0.9684   0.9729   0.9774   0.9830   0.9861
  0.9916   1.0003   1.0128   1.0197   1.0221   1.0348   1.0381   1.0431
  1.0544   1.0589   1.0644   1.0735   1.0809   1.0872   1.0892   1.0983
  1.1068   1.1149   1.1208   1.1250   1.1331   1.1382   1.1424   1.1503
  1.1604   1.1705   1.1763   1.1869   1.1944   1.1990   1.2155   1.2234
  1.2246   1.2361   1.2371   1.2490   1.2535   1.2651   1.2768   1.2778
  1.2985   1.3061   1.3151   1.3268   1.3403   1.3553   1.3585   1.3709
  1.3852   1.3984   1.4023   1.4194   1.4274   1.4326   1.4453   1.4511
  1.4588   1.4697   1.4862   1.4976   1.5064   1.5204   1.5273   1.5382
  1.5529   1.5588   1.5709   1.5808   1.5855   1.6082   1.6121   1.6197
  1.6239   1.6366   1.6533   1.6737   1.6822   1.6887   1.6946   1.7019
  1.7132   1.7247   1.7282   1.7453   1.7780   1.7890   1.7942   1.8198
  1.8276   1.8482   1.8529   1.8652   1.8736   1.8861   1.8906   1.9076
  1.9118   1.9286   1.9325   1.9367   1.9450   1.9466   1.9583   1.9664
  1.9772   1.9823   1.9864   1.9953   2.0002   2.0080   2.0125   2.0211
  2.0374   2.0426   2.0511   2.0545   2.0635   2.0704   2.0734   2.0948
  2.1081   2.1187   2.1232   2.1404   2.1473   2.1590   2.1610   2.1800
  2.1863   2.2011   2.2200   2.2213   2.2325   2.2366   2.2452   2.2563
  2.2628   2.2752   2.2928   2.3132   2.3241   2.3305   2.3323   2.3485
  2.3568   2.3608   2.3675   2.3913   2.3979   2.4151   2.4170   2.4206
  2.4342   2.4506   2.4554   2.4691   2.4837   2.4920   2.4954   2.5208
  2.5293   2.5455   2.5520   2.5616   2.5750   2.5995   2.6156   2.6166
  2.6305   2.6501   2.6557   2.6676   2.6720   2.6891   2.7004   2.7148
  2.7211   2.7359   2.7447   2.7483   2.7513   2.7696   2.7803   2.7855
  2.7868   2.7922   2.8145   2.8159   2.8261   2.8484   2.8544   2.8651
  2.8704   2.8914   2.8948   2.8978   2.9069   2.9127   2.9260   2.9320
  2.9399   2.9521   2.9676   2.9828   2.9862   2.9907   2.9993   3.0128
  3.0260   3.0406   3.0482   3.0598   3.0636   3.0676   3.0820   3.0997
  3.1169   3.1206   3.1283   3.1398   3.1474   3.1567   3.1770   3.1848
  3.1995   3.2118   3.2171   3.2242   3.2378   3.2457   3.2491   3.2675
  3.2784   3.2898   3.2967   3.3029   3.3079   3.3198   3.3291   3.3304
  3.3373   3.3485   3.3598   3.3710   3.3732   3.3794   3.3849   3.4069
  3.4132   3.4224   3.4288   3.4368   3.4516   3.4651   3.4668   3.4779
  3.4831   3.4903   3.4934   3.4998   3.5049   3.5118   3.5195   3.5235
  3.5346   3.5411   3.5431   3.5611   3.5659   3.5693   3.5788   3.5842
  3.6011   3.6103   3.6220   3.6243   3.6337   3.6439   3.6597   3.6699
  3.6769   3.6834   3.7008   3.7042   3.7183   3.7215   3.7312   3.7466
  3.7487   3.7533   3.7715   3.7919   3.8031   3.8168   3.8246   3.8460
  3.8747   3.8805   3.9087   3.9209   3.9336   3.9415   3.9535   3.9979
  4.0200   4.0274   4.0479   4.0624   4.0798   4.1187   4.1233   4.1534
  4.1830   4.1938   4.2053   4.2181   4.2234   4.2490   4.2693   4.2728
  4.2779   4.2924   4.3129   4.3239   4.3296   4.3462   4.3535   4.3680
  4.3763   4.3853   4.3946   4.4156   4.4240   4.4408   4.4510   4.4721
  4.4940   4.5285   4.5334   4.5674   4.6068   4.6259   4.6449   4.6492
  4.6610   4.6934   4.7105   4.7497   4.7817   4.8310   4.8443   4.8868
  4.9009   4.9196   4.9327   4.9537   4.9703   4.9728   4.9935   5.0068
  5.0307   5.0375   5.0522   5.0758   5.0838   5.1132   5.1232   5.1344
  5.1462   5.1562   5.1644   5.1968   5.2053   5.2134   5.2302   5.2395
  5.2790   5.3201   5.3257   5.3858   5.4031   5.4273   5.4440   5.4599
  5.4652   5.4798   5.4973   5.5057   5.5363   5.5383   5.5570   5.6016
  5.6207   5.6380   5.6863   5.7097   5.7342   5.8088   5.8270   5.8360
  5.8506   5.9285   5.9716   5.9769   6.2012   6.2186   6.2939   6.3336
  6.4114   6.5184  22.6971  22.7698  22.8296  22.9502  22.9868  23.0257
 23.1886  23.2940  23.4695  23.7254  23.7792  32.5295  32.5774  32.8965
 32.9242
 --------------------------------------------------------------
 
          Ground-State Mulliken Net Atomic Charges

     Atom                 Charge (a.u.)
  ----------------------------------------
      1 C                    -1.234953
      2 C                     0.682533
      3 C                    -0.555133
      4 C                     0.202547
      5 C                    -0.271122
      6 C                    -0.288787
      7 C                    -0.625051
      8 C                    -0.639494
      9 C                    -0.426846
     10 N                     0.153596
     11 H                     0.276662
     12 H                     0.312160
     13 H                     0.289119
     14 H                     0.223698
     15 H                     0.382740
     16 H                     0.412707
     17 H                     0.428110
     18 H                     0.405249
     19 H                     0.286263
     20 C                    -0.787403
     21 C                     0.379939
     22 N                    -0.055801
     23 N                    -0.277043
     24 N                    -0.316927
     25 H                     0.309931
     26 H                     0.222632
     27 H                     0.261685
     28 H                     0.255480
     29 H                     0.263267
     30 H                     0.329811
     31 H                     0.165778
     32 H                     0.234655
  ----------------------------------------
  Sum of atomic charges =     1.000000

 -----------------------------------------------------------------
                    Cartesian Multipole Moments
 -----------------------------------------------------------------
    Charge (ESU x 10^10)
                 4.8032
    Dipole Moment (Debye)
         X      -9.9913      Y       5.8872      Z       2.8038
       Tot      11.9309
    Quadrupole Moments (Debye-Ang)
        XX     -69.5920     XY       3.4174     YY     -62.0731
        XZ     -12.4285     YZ       1.5926     ZZ     -67.6316
    Octopole Moments (Debye-Ang^2)
       XXX     -80.4243    XXY      26.3622    XYY     -24.9390
       YYY      59.4633    XXZ      25.7474    XYZ     -12.8324
       YYZ       7.5839    XZZ     -32.0017    YZZ      18.4926
       ZZZ      18.1968
    Hexadecapole Moments (Debye-Ang^3)
      XXXX   -1695.3981   XXXY     151.5953   XXYY    -376.4071
      XYYY      96.6853   YYYY    -805.0255   XXXZ      92.0544
      XXYZ     -69.1279   XYYZ       8.8878   YYYZ    -169.7446
      XXZZ    -390.5905   XYZZ      18.8109   YYZZ    -321.1437
      XZZZ      53.9413   YZZZ    -168.5911   ZZZZ   -1171.2639
 -----------------------------------------------------------------
Archival summary:
1\1\nid00562\SP\ProcedureUnspecified\BasisUnspecified\41117(1+,1)\meili\MonSep2718:12:062021MonSep2718:12:062021\0\\#,ProcedureUnspecified,BasisUnspecified,\\1,1\C\C,1,1.40737\H,2,1.08045,1,120.298\C,2,1.40312,1,119.12,3,178.531,0\H,4,1.08238,2,119.626,1,-179.99,0\C,4,1.40683,2,120.941,1,-0.216802,0\H,6,1.08211,4,119.682,2,-179.692,0\C,6,1.38754,4,120.975,2,0.0834038,0\H,8,1.08136,6,120.893,4,-179.887,0\C,8,1.39434,6,118.029,4,0.0725889,0\N,10,1.37099,8,130.94,6,-179.967,0\H,11,1.01452,10,126.51,8,-2.53002,0\C,11,1.37427,10,109.799,8,179.978,0\H,13,1.08667,11,125.095,10,177.125,0\C,13,1.36069,11,110.264,10,0.137659,0\C,15,1.50473,13,126.731,11,175.204,0\H,16,1.091,15,108.855,13,28.663,0\H,16,1.09126,15,109.176,13,146.73,0\H,16,1.1,15,111.529,13,-91.9788,0\H,10,3.05194,8,78.9082,6,-66.4088,0\C,20,1.0918,10,142.252,8,137.623,0\H,21,1.09227,20,106.609,10,-73.147,0\H,21,1.1,20,109.875,10,170.241,0\N,21,1.46589,20,111.404,10,43.849,0\H,24,1.01735,21,116.189,20,-136.766,0\C,24,1.32343,21,125.129,20,39.914,0\N,26,1.31468,24,120.059,21,-178.916,0\H,27,1.00838,26,121.832,24,6.19513,0\H,27,1.0086,26,119.711,24,179.451,0\N,26,1.31626,24,120.48,21,0.254626,0\H,30,1.00459,26,119.773,24,-2.63384,0\H,30,1.00741,26,120.531,24,-178.168,0\\\@

 Total job time:  125215.57s(wall), 75392.19s(cpu) 
 Mon Sep 27 18:12:07 2021

        *************************************************************
        *                                                           *
        *  Thank you very much for using Q-Chem.  Have a nice day.  *
        *                                                           *
        *************************************************************


