
Running Job 1 of 1 SSI-062HIE-070GLU-1_SMD_TZVPD.in
qchem SSI-062HIE-070GLU-1_SMD_TZVPD.in_40284.0 /tmp/qchem40284/ 0
/global/common/cori/software/qchem/5.2/exe/qcprog.exe_s SSI-062HIE-070GLU-1_SMD_TZVPD.in_40284.0 /tmp/qchem40284/
                  Welcome to Q-Chem
     A Quantum Leap Into The Future Of Chemistry


 Q-Chem 5.2, Q-Chem, Inc., Pleasanton, CA (2019)

 License issued to: National Energy Research Scientific Computing Center

 Yihan Shao,  Zhengting Gan,  E. Epifanovsky,  A. T. B. Gilbert,  M. Wormit,  
 J. Kussmann,  A. W. Lange,  A. Behn,  Jia Deng,  Xintian Feng,  D. Ghosh,  
 M. Goldey,  P. R. Horn,  L. D. Jacobson,  I. Kaliman,  T. Kus,  A. Landau,  
 Jie Liu,  E. I. Proynov,  R. M. Richard,  R. P. Steele,  E. J. Sundstrom,  
 H. L. Woodcock III,  P. M. Zimmerman,  D. Zuev,  B. Albrecht,  E. Alguire,  
 S. A. Baeppler,  D. Barton,  Z. Benda,  Y. A. Bernard,  E. J. Berquist,  
 K. B. Bravaya,  H. Burton,  D. Casanova,  Chun-Min Chang,  Yunqing Chen,  
 A. Chien,  K. D. Closser,  M. P. Coons,  S. Coriani,  S. Dasgupta,  
 A. L. Dempwolff,  M. Diedenhofen,  Hainam Do,  R. G. Edgar,  Po-Tung Fang,  
 S. Faraji,  S. Fatehi,  Qingguo Feng,  K. D. Fenk,  J. Fosso-Tande,  
 J. Gayvert,  Qinghui Ge,  A. Ghysels,  G. Gidofalvi,  J. Gomes,  
 J. Gonthier,  A. Gunina,  D. Hait,  M. W. D. Hanson-Heine,  
 P. H. P. Harbach,  A. W. Hauser,  M. F. Herbst,  J. E. Herr,  
 E. G. Hohenstein,  Z. C. Holden,  Kerwin Hui,  B. C. Huynh,  T.-C. Jagau,  
 Hyunjun Ji,  B. Kaduk,  K. Khistyaev,  Jaehoon Kim,  P. Klunzinger,  K. Koh,  
 D. Kosenkov,  L. Koulias,  T. Kowalczyk,  C. M. Krauter,  A. Kunitsa,  
 Ka Un Lao,  A. Laurent,  K. V. Lawler,  Joonho Lee,  D. Lefrancois,  
 S. Lehtola,  D. S. Levine,  Yi-Pei Li,  You-Sheng Lin,  Fenglai Liu,  
 E. Livshits,  A. Luenser,  P. Manohar,  E. Mansoor,  S. F. Manzer,  
 Shan-Ping Mao,  Yuezhi Mao,  N. Mardirossian,  A. V. Marenich,  
 T. Markovich,  L. A. Martinez-Martinez,  S. A. Maurer,  N. J. Mayhall,  
 S. C. McKenzie,  J.-M. Mewes,  P. Morgante,  A. F. Morrison,  
 J. W. Mullinax,  K. Nanda,  T. S. Nguyen-Beck,  R. Olivares-Amaya,  
 J. A. Parkhill,  Zheng Pei,  T. M. Perrine,  F. Plasser,  P. Pokhilko,  
 S. Prager,  A. Prociuk,  E. Ramos,  D. R. Rehn,  F. Rob,  M. Scheurer,  
 M. Schneider,  N. Sergueev,  S. M. Sharada,  S. Sharma,  D. W. Small,  
 T. Stauch,  T. Stein,  Yu-Chuan Su,  A. J. W. Thom,  A. Tkatchenko,  
 T. Tsuchimochi,  N. M. Tubman,  L. Vogt,  M. L. Vidal,  O. Vydrov,  
 M. A. Watson,  J. Wenzel,  M. de Wergifosse,  T. A. Wesolowski,  A. White,  
 J. Witte,  A. Yamada,  Jun Yang,  K. Yao,  S. Yeganeh,  S. R. Yost,  
 Zhi-Qiang You,  A. Zech,  Igor Ying Zhang,  Xing Zhang,  Yan Zhao,  
 Ying Zhu,  B. R. Brooks,  G. K. L. Chan,  C. J. Cramer,  M. S. Gordon,  
 W. J. Hehre,  A. Klamt,  M. W. Schmidt,  C. D. Sherrill,  D. G. Truhlar,  
 A. Aspuru-Guzik,  R. Baer,  A. T. Bell,  N. A. Besley,  Jeng-Da Chai,  
 A. E. DePrince, III,  R. A. DiStasio Jr.,  A. Dreuw,  B. D. Dunietz,  
 T. R. Furlani,  Chao-Ping Hsu,  Yousung Jung,  Jing Kong,  D. S. Lambrecht,  
 WanZhen Liang,  C. Ochsenfeld,  V. A. Rassolov,  L. V. Slipchenko,  
 J. E. Subotnik,  T. Van Voorhis,  J. M. Herbert,  A. I. Krylov,  
 P. M. W. Gill,  M. Head-Gordon

 Contributors to earlier versions of Q-Chem not listed above: 
 R. D. Adamson,  B. Austin,  J. Baker,  G. J. O. Beran,  K. Brandhorst,  
 S. T. Brown,  E. F. C. Byrd,  A. K. Chakraborty,  C.-L. Cheng,  
 Siu Hung Chien,  D. M. Chipman,  D. L. Crittenden,  H. Dachsel,  
 R. J. Doerksen,  A. D. Dutoi,  L. Fusti-Molnar,  W. A. Goddard III,  
 A. Golubeva-Zadorozhnaya,  S. R. Gwaltney,  G. Hawkins,  A. Heyden,  
 S. Hirata,  G. Kedziora,  F. J. Keil,  C. Kelley,  Jihan Kim,  R. A. King,  
 R. Z. Khaliullin,  P. P. Korambath,  W. Kurlancheek,  A. M. Lee,  M. S. Lee,  
 S. V. Levchenko,  Ching Yeh Lin,  D. Liotard,  R. C. Lochan,  I. Lotan,  
 P. E. Maslen,  N. Nair,  D. P. O'Neill,  D. Neuhauser,  E. Neuscamman,  
 C. M. Oana,  R. Olson,  B. Peters,  R. Peverati,  P. A. Pieniazek,  
 Y. M. Rhee,  J. Ritchie,  M. A. Rohrdanz,  E. Rosta,  N. J. Russ,  
 H. F. Schaefer III,  N. E. Schultz,  N. Shenvi,  A. C. Simmonett,  A. Sodt,  
 D. Stuck,  K. S. Thanthiriwatte,  V. Vanovschi,  Tao Wang,  A. Warshel,  
 C. F. Williams,  Q. Wu,  X. Xu,  W. Zhang

 Please cite Q-Chem as follows:
 Y. Shao et al., Mol. Phys. 113, 184-215 (2015)
 DOI: 10.1080/00268976.2014.952696

 Q-Chem 5.2.0 for Intel X86 EM64T Linux

 Parts of Q-Chem use Armadillo 8.300.2 (Tropical Shenanigans).
 http://arma.sourceforge.net/

 Q-Chem begins on Sun Sep 26 09:39:17 2021  

Host: cori01
0

     Scratch files written to /tmp/qchem40284//
 May1019 |scratch|qcdevops|jenkins|workspace|build_RNUM -1
Processing $rem in /global/common/cori/software/qchem/5.2/config/preferences:
	 MEM_TOTAL  96000 
NAlpha2: 76
NElect   76
Mult     1
Symmetry turned off for PCM/SM12/SMD calculation

 Q-Chem warning in module libgen/rem_setup.C, line 2803:

 Neither GIA nor STOLL is specified by user. Use STOLL as the default


Checking the input file for inconsistencies... 	...done.

--------------------------------------------------------------
User input:
--------------------------------------------------------------
$comment
SSI-062HIE-070GLU-1.pdb
$end

$molecule
-1 1
--
0 1
C    0.855670092721   -1.680742981920    3.864951516551
C    0.367670092721   -0.248742981920    0.574951516551
C    0.976670092721   -1.225742981920    2.437951516551
C    2.032670092721   -1.260742981920    1.575951516551
N   -0.052329907279   -0.599742981920    1.782951516551
N    1.620670092721   -0.654742981920    0.411951516551
H   -0.227329907279    0.261257018080   -0.172048483449
H    2.176670092721   -0.505742981920   -0.423048483449
H    3.030670092721   -1.606742981920    1.784951516551
H   -0.103329907279   -2.172742981920    4.013951516551
H    0.876670092721   -0.793742981920    4.499951516551
H    1.663700092721   -2.358032981920    4.178591516551
--
-1 1
C   -2.342329907279    0.233257018080   -2.518048483449
C   -1.319329907279    1.390257018080   -2.475048483449
O   -1.293329907279    2.203257018080   -1.542048483449
O   -0.487329907279    1.454257018080   -3.377048483449
H   -1.947329907279   -0.565742981920   -1.903048483449
H   -2.488329907279   -0.132742981920   -3.538048483449
H   -3.311139107279    0.506417018080   -2.074435483449
$end

$rem
JOBTYPE			EDA
EDA2			1
method			wB97X-V
BASIS			def2-TZVPD
XC_GRID			000099000590
NL_GRID			1
UNRESTRICTED		FALSE
MAX_SCF_CYCLES		200
SYMMETRY		FALSE
SYM_IGNORE		TRUE
MEM_STATIC		2000
BASIS_LIN_DEP_THRESH 	6
THRESH 			14
SCF_CONVERGENCE 	8
SCF_PRINT_FRGM 		TRUE
SOLVENT_METHOD          SMD
$end

$SMX
SOLVENT			WATER
$END
--------------------------------------------------------------
 ----------------------------------------------------------------
             Standard Nuclear Orientation (Angstroms)
    I     Atom           X                Y                Z
 ----------------------------------------------------------------
    1      C       0.8556700927    -1.6807429819     3.8649515166
    2      C       0.3676700927    -0.2487429819     0.5749515166
    3      C       0.9766700927    -1.2257429819     2.4379515166
    4      C       2.0326700927    -1.2607429819     1.5759515166
    5      N      -0.0523299073    -0.5997429819     1.7829515166
    6      N       1.6206700927    -0.6547429819     0.4119515166
    7      H      -0.2273299073     0.2612570181    -0.1720484834
    8      H       2.1766700927    -0.5057429819    -0.4230484834
    9      H       3.0306700927    -1.6067429819     1.7849515166
   10      H      -0.1033299073    -2.1727429819     4.0139515166
   11      H       0.8766700927    -0.7937429819     4.4999515166
   12      H       1.6637000927    -2.3580329819     4.1785915166
   13      C      -2.3423299073     0.2332570181    -2.5180484834
   14      C      -1.3193299073     1.3902570181    -2.4750484834
   15      O      -1.2933299073     2.2032570181    -1.5420484834
   16      O      -0.4873299073     1.4542570181    -3.3770484834
   17      H      -1.9473299073    -0.5657429819    -1.9030484834
   18      H      -2.4883299073    -0.1327429819    -3.5380484834
   19      H      -3.3111391073     0.5064170181    -2.0744354834
 ----------------------------------------------------------------
 Nuclear Repulsion Energy =         473.36414948 hartrees
 There are       38 alpha and       38 beta electrons
 Requested basis set is def2-TZVPD
 There are 177 shells and 457 basis functions

 Total QAlloc Memory Limit  96000 MB
 Mega-Array Size      1956 MB
 MEM_STATIC part      2000 MB
 
 Citation of the SMD model:
 Marenich, A.V.; Cramer, C.J.; Truhlar, D.G.
 J. Phys. Chem. B 2009, 113, 6378-6396.
 iSolventCode=           1
 Solvent: water                                                           
 
 vradii
            1           2           3           4           5           6
    1   1.8500000   1.8500000   1.8500000   1.8500000   1.8900000   1.8900000
            7           8           9          10          11          12
    1   1.2000000   1.2000000   1.2000000   1.2000000   1.2000000   1.2000000
           13          14          15          16          17          18
    1   1.8500000   1.8500000   1.5200000   1.5200000   1.2000000   1.2000000
           19
    1   1.2000000
 Changing PCM_VDW_RADII to SMD_RADIUS
 Discretize the solute cavity surface with Lebedev spheres
	Using 110 Lebedev grid points for each H atom
	Using 194 Lebedev grid points for other atoms
	Atomic van der Waals radii will be scaled by 1.20
 Remove points where switching function is < 1.0e-08
 Keep 1543 surface tesserae and discard 1387 interior tesserae
 Molecular Surface Area = 192.895 Angst**2
 A cutoff of  1.0D-14 yielded  13477 shell pairs
 There are     89753 function pairs (    113887 Cartesian)
 Smallest overlap matrix eigenvalue = 1.73E-06

 Scale SEOQF with 1.000000e-01/1.000000e-01/1.000000e-01

 Standard Electronic Orientation quadrupole field applied
 Nucleus-field energy     =    -0.0000000317 hartrees

 -----------------------------------------------------------------------
  General SCF calculation program by
  Eric Jon Sundstrom, Paul Horn, Yuezhi Mao, Dmitri Zuev, Alec White,
  David Stuck, Shaama M.S., Shane Yost, Joonho Lee, David Small,
  Daniel Levine, Susi Lehtola, Hugh Burton, Evgeny Epifanovsky
 -----------------------------------------------------------------------
================================================================
                 ALMO-EDA with the EDA2 driver                  
================================================================
 The second-generation ALMO-EDA (for DFT):                      
 P. R. Horn, Y. Mao and M. Head-Gordon, PCCP, 18, 23067 (2016)  
 Decomposition of the frozen energy:                            
 P. R. Horn, Y. Mao and M. Head-Gordon, JCP, 144, 114107 (2016) 
 FERF model for polarization:                                   
 P. R. Horn and M. Head-Gordon, JCP, 143, 114111 (2015)         
Using eda2 option set 1
Option set summary: Frozen orbital wavefunction, initial wavefunction decomposition, and nDQ polarization.
--------------------------------
Printing EDA Options
--------------------------------
eda_child_super_basis      0
fragmo_guess_mode          0
child_mp                   1
child_mp_orders            232
cls_elec                   1
cls_disp                   0
scfmi_mode                 1
scfmi_occs                 0
scfmi_virts                0
frz_relax                  0
frz_relax_method           0
dc_pen_start               0
dc_pen_conv                0
dc_pen_increment           0
dc_pen_steps               0
dc_pen_thresh_factor       0
dc_pen_pre_newton_thresh   0
frz_ortho_decomp           1
frz_ortho_decomp_conv      6
frgm_method                2
scfmi_freeze_ss            0
separate_rehyb             0
plot_diff_den              0
eda_nocv                   0
eda_vct_relax              1
disp_free_x                0
disp_free_c                0
eda_bsse                   0
eda_pct_a                  0
eda_covp                   0
--------------------------------
Attempting to make child job directory: /tmp/qchem40284//Frg1/
Attempting to make child job directory: /tmp/qchem40284//Frg2/
Creating input file /tmp/qchem40284/Frg1.input
using default PutDataFrgm: nothing
calling putenv with: QCSCRATCH=/tmp/qchem40284/ 
calling putenv with: QCLOCALSCR=/tmp/qchem40284/ 
Spawning Job For Fragment 0
                  Welcome to Q-Chem
     A Quantum Leap Into The Future Of Chemistry


 Q-Chem 5.2, Q-Chem, Inc., Pleasanton, CA (2019)

 License issued to: National Energy Research Scientific Computing Center

 Yihan Shao,  Zhengting Gan,  E. Epifanovsky,  A. T. B. Gilbert,  M. Wormit,  
 J. Kussmann,  A. W. Lange,  A. Behn,  Jia Deng,  Xintian Feng,  D. Ghosh,  
 M. Goldey,  P. R. Horn,  L. D. Jacobson,  I. Kaliman,  T. Kus,  A. Landau,  
 Jie Liu,  E. I. Proynov,  R. M. Richard,  R. P. Steele,  E. J. Sundstrom,  
 H. L. Woodcock III,  P. M. Zimmerman,  D. Zuev,  B. Albrecht,  E. Alguire,  
 S. A. Baeppler,  D. Barton,  Z. Benda,  Y. A. Bernard,  E. J. Berquist,  
 K. B. Bravaya,  H. Burton,  D. Casanova,  Chun-Min Chang,  Yunqing Chen,  
 A. Chien,  K. D. Closser,  M. P. Coons,  S. Coriani,  S. Dasgupta,  
 A. L. Dempwolff,  M. Diedenhofen,  Hainam Do,  R. G. Edgar,  Po-Tung Fang,  
 S. Faraji,  S. Fatehi,  Qingguo Feng,  K. D. Fenk,  J. Fosso-Tande,  
 J. Gayvert,  Qinghui Ge,  A. Ghysels,  G. Gidofalvi,  J. Gomes,  
 J. Gonthier,  A. Gunina,  D. Hait,  M. W. D. Hanson-Heine,  
 P. H. P. Harbach,  A. W. Hauser,  M. F. Herbst,  J. E. Herr,  
 E. G. Hohenstein,  Z. C. Holden,  Kerwin Hui,  B. C. Huynh,  T.-C. Jagau,  
 Hyunjun Ji,  B. Kaduk,  K. Khistyaev,  Jaehoon Kim,  P. Klunzinger,  K. Koh,  
 D. Kosenkov,  L. Koulias,  T. Kowalczyk,  C. M. Krauter,  A. Kunitsa,  
 Ka Un Lao,  A. Laurent,  K. V. Lawler,  Joonho Lee,  D. Lefrancois,  
 S. Lehtola,  D. S. Levine,  Yi-Pei Li,  You-Sheng Lin,  Fenglai Liu,  
 E. Livshits,  A. Luenser,  P. Manohar,  E. Mansoor,  S. F. Manzer,  
 Shan-Ping Mao,  Yuezhi Mao,  N. Mardirossian,  A. V. Marenich,  
 T. Markovich,  L. A. Martinez-Martinez,  S. A. Maurer,  N. J. Mayhall,  
 S. C. McKenzie,  J.-M. Mewes,  P. Morgante,  A. F. Morrison,  
 J. W. Mullinax,  K. Nanda,  T. S. Nguyen-Beck,  R. Olivares-Amaya,  
 J. A. Parkhill,  Zheng Pei,  T. M. Perrine,  F. Plasser,  P. Pokhilko,  
 S. Prager,  A. Prociuk,  E. Ramos,  D. R. Rehn,  F. Rob,  M. Scheurer,  
 M. Schneider,  N. Sergueev,  S. M. Sharada,  S. Sharma,  D. W. Small,  
 T. Stauch,  T. Stein,  Yu-Chuan Su,  A. J. W. Thom,  A. Tkatchenko,  
 T. Tsuchimochi,  N. M. Tubman,  L. Vogt,  M. L. Vidal,  O. Vydrov,  
 M. A. Watson,  J. Wenzel,  M. de Wergifosse,  T. A. Wesolowski,  A. White,  
 J. Witte,  A. Yamada,  Jun Yang,  K. Yao,  S. Yeganeh,  S. R. Yost,  
 Zhi-Qiang You,  A. Zech,  Igor Ying Zhang,  Xing Zhang,  Yan Zhao,  
 Ying Zhu,  B. R. Brooks,  G. K. L. Chan,  C. J. Cramer,  M. S. Gordon,  
 W. J. Hehre,  A. Klamt,  M. W. Schmidt,  C. D. Sherrill,  D. G. Truhlar,  
 A. Aspuru-Guzik,  R. Baer,  A. T. Bell,  N. A. Besley,  Jeng-Da Chai,  
 A. E. DePrince, III,  R. A. DiStasio Jr.,  A. Dreuw,  B. D. Dunietz,  
 T. R. Furlani,  Chao-Ping Hsu,  Yousung Jung,  Jing Kong,  D. S. Lambrecht,  
 WanZhen Liang,  C. Ochsenfeld,  V. A. Rassolov,  L. V. Slipchenko,  
 J. E. Subotnik,  T. Van Voorhis,  J. M. Herbert,  A. I. Krylov,  
 P. M. W. Gill,  M. Head-Gordon

 Contributors to earlier versions of Q-Chem not listed above: 
 R. D. Adamson,  B. Austin,  J. Baker,  G. J. O. Beran,  K. Brandhorst,  
 S. T. Brown,  E. F. C. Byrd,  A. K. Chakraborty,  C.-L. Cheng,  
 Siu Hung Chien,  D. M. Chipman,  D. L. Crittenden,  H. Dachsel,  
 R. J. Doerksen,  A. D. Dutoi,  L. Fusti-Molnar,  W. A. Goddard III,  
 A. Golubeva-Zadorozhnaya,  S. R. Gwaltney,  G. Hawkins,  A. Heyden,  
 S. Hirata,  G. Kedziora,  F. J. Keil,  C. Kelley,  Jihan Kim,  R. A. King,  
 R. Z. Khaliullin,  P. P. Korambath,  W. Kurlancheek,  A. M. Lee,  M. S. Lee,  
 S. V. Levchenko,  Ching Yeh Lin,  D. Liotard,  R. C. Lochan,  I. Lotan,  
 P. E. Maslen,  N. Nair,  D. P. O'Neill,  D. Neuhauser,  E. Neuscamman,  
 C. M. Oana,  R. Olson,  B. Peters,  R. Peverati,  P. A. Pieniazek,  
 Y. M. Rhee,  J. Ritchie,  M. A. Rohrdanz,  E. Rosta,  N. J. Russ,  
 H. F. Schaefer III,  N. E. Schultz,  N. Shenvi,  A. C. Simmonett,  A. Sodt,  
 D. Stuck,  K. S. Thanthiriwatte,  V. Vanovschi,  Tao Wang,  A. Warshel,  
 C. F. Williams,  Q. Wu,  X. Xu,  W. Zhang

 Please cite Q-Chem as follows:
 Y. Shao et al., Mol. Phys. 113, 184-215 (2015)
 DOI: 10.1080/00268976.2014.952696

 Q-Chem 5.2.0 for Intel X86 EM64T Linux

 Parts of Q-Chem use Armadillo 8.300.2 (Tropical Shenanigans).
 http://arma.sourceforge.net/

 Q-Chem begins on Sun Sep 26 09:39:20 2021  

Host: cori01
0

     Scratch files written to /tmp/qchem40284//Frg1//
 May1019 |scratch|qcdevops|jenkins|workspace|build_RNUM -1
Processing $rem in /global/common/cori/software/qchem/5.2/config/preferences:
	 MEM_TOTAL  96000 
NAlpha2: 44
NElect   44
Mult     1
Symmetry turned off for PCM/SM12/SMD calculation

Checking the input file for inconsistencies... 	...done.

--------------------------------------------------------------
User input:
--------------------------------------------------------------
$molecule
0 1
 6	0.8556700927	-1.6807429819	3.8649515166
 6	0.3676700927	-0.2487429819	0.5749515166
 6	0.9766700927	-1.2257429819	2.4379515166
 6	2.0326700927	-1.2607429819	1.5759515166
 7	-0.0523299073	-0.5997429819	1.7829515166
 7	1.6206700927	-0.6547429819	0.4119515166
 1	-0.2273299073	0.2612570181	-0.1720484834
 1	2.1766700927	-0.5057429819	-0.4230484834
 1	3.0306700927	-1.6067429819	1.7849515166
 1	-0.1033299073	-2.1727429819	4.0139515166
 1	0.8766700927	-0.7937429819	4.4999515166
 1	1.6637000927	-2.3580329819	4.1785915166
$end
$rem
EDA2		1
METHOD		WB97X-V
BASIS		DEF2-TZVPD
XC_GRID		000099000590
NL_GRID		1
UNRESTRICTED		FALSE
MAX_SCF_CYCLES		200
SYMMETRY		FALSE
SYM_IGNORE		TRUE
BASIS_LIN_DEP_THRESH		6
THRESH		14
SCF_CONVERGENCE		8
SCF_PRINT_FRGM		TRUE
SOLVENT_METHOD		SMD
!required keywords
JOBTYPE		SP
SYM_IGNORE		TRUE
SUBSYSTEM		TRUE
GEN_SCFMAN		TRUE
CHILD_INSTRUCTION		2
SYM_IGNORE		TRUE
SCFMI		0
RI_K 0		
PARI_K 0		
MIN_PARI_K 0		
IARI_K 0		
OCC_RI_K 0		
PURECART		1111
MEM_STATIC		2000
MEM_TOTAL		96000
GUI		0
CHILD_MP		1
CHILD_MP_ORDERS		232
FRZ_RELAX		0
FRZ_RELAX_METHOD		0
EDA_CLS_ELEC		1
EDA_CLS_DISP		0
FRZ_ORTHO_DECOMP		1
EDA2		FALSE
FRGM_METHOD		FALSE
CIS_N_ROOTS  0
LOCAL_CIS    0
CIS_RLX_DNS  1
$end
$smx
SOLVENT			WATER
$end
--------------------------------------------------------------
 ----------------------------------------------------------------
             Standard Nuclear Orientation (Angstroms)
    I     Atom           X                Y                Z
 ----------------------------------------------------------------
    1      C       0.8556700927    -1.6807429819     3.8649515166
    2      C       0.3676700927    -0.2487429819     0.5749515166
    3      C       0.9766700927    -1.2257429819     2.4379515166
    4      C       2.0326700927    -1.2607429819     1.5759515166
    5      N      -0.0523299073    -0.5997429819     1.7829515166
    6      N       1.6206700927    -0.6547429819     0.4119515166
    7      H      -0.2273299073     0.2612570181    -0.1720484834
    8      H       2.1766700927    -0.5057429819    -0.4230484834
    9      H       3.0306700927    -1.6067429819     1.7849515166
   10      H      -0.1033299073    -2.1727429819     4.0139515166
   11      H       0.8766700927    -0.7937429819     4.4999515166
   12      H       1.6637000927    -2.3580329819     4.1785915166
 ----------------------------------------------------------------
 Nuclear Repulsion Energy =         224.82923824 hartrees
 There are       22 alpha and       22 beta electrons
 Requested basis set is def2-TZVPD
 There are 108 shells and 276 basis functions

 Total QAlloc Memory Limit  96000 MB
 Mega-Array Size      1956 MB
 MEM_STATIC part      2000 MB
 
 Citation of the SMD model:
 Marenich, A.V.; Cramer, C.J.; Truhlar, D.G.
 J. Phys. Chem. B 2009, 113, 6378-6396.
 iSolventCode=           1
 Solvent: water                                                           
 
 vradii
            1           2           3           4           5           6
    1   1.8500000   1.8500000   1.8500000   1.8500000   1.8900000   1.8900000
            7           8           9          10          11          12
    1   1.2000000   1.2000000   1.2000000   1.2000000   1.2000000   1.2000000
 Changing PCM_VDW_RADII to SMD_RADIUS
 Discretize the solute cavity surface with Lebedev spheres
	Using 110 Lebedev grid points for each H atom
	Using 194 Lebedev grid points for other atoms
	Atomic van der Waals radii will be scaled by 1.20
 Remove points where switching function is < 1.0e-08
 Keep 898 surface tesserae and discard 926 interior tesserae
 Molecular Surface Area = 116.102 Angst**2

                       Distance Matrix (Angstroms)
             C (  1)   C (  2)   C (  3)   C (  4)   N (  5)   N (  6)
   C (  2)  3.621169
   C (  3)  1.502663  2.190018
   C (  4)  2.607921  2.190518  1.363600
   N (  5)  2.515502  1.326222  1.371037  2.197042
   N (  6)  3.682541  1.327183  2.201239  1.375455  2.163699
   H (  7)  4.608863  1.082651  3.236184  3.237219  2.143355  2.143645
   H (  8)  4.638169  2.081954  3.184921  2.141673  3.137469  1.014180
   H (  9)  3.010399  3.224877  2.188718  1.076755  3.243292  2.186214
   H ( 10)  1.088093  3.968670  2.132366  3.367207  2.730255  4.272108
   H ( 11)  1.091071  3.995214  2.109139  3.178711  2.877979  4.157475
   H ( 12)  1.100002  4.372073  2.187217  2.848494  3.431535  4.134081
             H (  7)   H (  8)   H (  9)   H ( 10)   H ( 11)
   H (  8)  2.535844
   H (  9)  4.234836  2.610897
   H ( 10)  4.843793  5.259682  3.887255
   H ( 11)  4.915224  5.099890  3.559763  1.760181
   H ( 12)  5.418925  4.986904  2.857019  1.784330  1.780363
 
 A cutoff of  1.0D-14 yielded   5738 shell pairs
 There are     38188 function pairs (     48971 Cartesian)
 Smallest overlap matrix eigenvalue = 1.83E-06

 Scale SEOQF with 1.000000e-01/1.000000e-01/1.000000e-01

 Standard Electronic Orientation quadrupole field applied
 Nucleus-field energy     =    -0.0000000174 hartrees
 Guess from superposition of atomic densities
 Warning:  Energy on first SCF cycle will be non-variational
 SAD guess density has 43.559167 electrons

 -----------------------------------------------------------------------
  General SCF calculation program by
  Eric Jon Sundstrom, Paul Horn, Yuezhi Mao, Dmitri Zuev, Alec White,
  David Stuck, Shaama M.S., Shane Yost, Joonho Lee, David Small,
  Daniel Levine, Susi Lehtola, Hugh Burton, Evgeny Epifanovsky
 -----------------------------------------------------------------------
 Exchange:     0.1670 Hartree-Fock + 1.0000 wB97X-V + LR-HF
 Correlation:  1.0000 wB97X-V
 Using Euler-Maclaurin-Lebedev (99,590) quadrature formula
 Nonlocal Correlation:  VV10 with C = 0.0100 and b = 6.00 and scale = 1.00000
 Grid used for NLC:  SG-1 standard quadrature
Energy prior to optimization (guess energy) = -265.147263293893
Begin Timing: Total SCF Calculation
begin iterations for algorithm: DIIS         
the SCF tolerance is set to 1.00e-08
    1    -265.1472632939      7.20e-03     00000 
    2    -265.1136486341      7.31e-03     00000 
    3    -265.5680063065      7.19e-04     00000 
    4    -265.5725939237      3.75e-04     00000 
    5    -265.5739647746      1.11e-04     00000 
    6    -265.5741207510      4.14e-05     00000 
    7    -265.5741447797      1.15e-05     00000 
    8    -265.5741473303      3.26e-06     00000 
    9    -265.5741476096      1.62e-06     00000 
   10    -265.5741476571      4.02e-07     00000 
   11    -265.5741476622      7.88e-08     00000 
   12    -265.5741476624      4.04e-08     00000 
   13    -265.5741476624      1.07e-08     00000 
   14    -265.5741476624      4.17e-09     00000 Convergence criterion met
Timing for Total SCF: 905.00s (wall), 1799.00s (cpu)
(3)  G-ENP(liq) elect-nuc-pol free energy of system     -265.574147662 a.u.
(4)  G-CDS(liq) cavity-dispersion-solvent structure 
     free energy                                                2.0981 kcal/mol
(6)  G-S(liq) free energy of system                     -265.570804074 a.u.
E_pcm = -0.0224896890
E_cds = 0.0033435889
Multipole orders to be included
        2
        3
computing dipole RHS
computing quadrupole RHS
total number of RHS in solve_reponses: 8
RHS batch sizes
        8
Beginning Block Conjugate Gradient Iterations. Batch Number: 0
computing hessian-vector products by finite difference
              1      6.37e-01     00000 Conjugate Gradient Iteration
computing hessian-vector products by finite difference
              2      2.08e-01     00000 Conjugate Gradient Iteration
computing hessian-vector products by finite difference
              3      4.94e-02     00000 Conjugate Gradient Iteration
computing hessian-vector products by finite difference
              4      1.36e-02     00000 Conjugate Gradient Iteration
computing hessian-vector products by finite difference
              5      2.93e-03     00000 Conjugate Gradient Iteration
computing hessian-vector products by finite difference
              6      5.72e-04     00000 Conjugate Gradient Iteration
computing hessian-vector products by finite difference
              7      1.13e-04     00000 Conjugate Gradient Iteration
computing hessian-vector products by finite difference
              8      1.57e-05     00000 Conjugate Gradient Iteration
computing hessian-vector products by finite difference
              9      2.49e-06     00000 Conjugate Gradient Iteration
computing hessian-vector products by finite difference
             10      3.81e-07     00000 Conjugate Gradient Iteration
computing hessian-vector products by finite difference
             11      5.77e-08     00000 Conjugate Gradient Iteration
computing hessian-vector products by finite difference
             12      8.26e-09     00000 CG Converged
batch 0 complete
Done Calculating Responses
TESTING ORTHOGONALIZATION OF MULTIPOLE BASIS
Multipole virts passed orthogonality test
Virts Per Order
           66
          110
 
 --------------------------------------------------------------
 
                    Orbital Energies (a.u.)
 --------------------------------------------------------------
 
 Alpha MOs
 -- Occupied --
-14.4588 -14.3853 -10.3162 -10.2836 -10.2824 -10.2574  -1.1531  -0.9961
 -0.8934  -0.8226  -0.7231  -0.6833  -0.6627  -0.5633  -0.5532  -0.5353
 -0.5070  -0.4947  -0.4791  -0.3778  -0.3768  -0.3199
 -- Virtual --
  0.0687   0.0876   0.0980   0.1080   0.1183   0.1314   0.1360   0.1463
  0.1706   0.1760   0.1790   0.1875   0.2006   0.2072   0.2283   0.2423
  0.2466   0.2526   0.2634   0.2672   0.2688   0.2912   0.2999   0.3069
  0.3148   0.3193   0.3237   0.3285   0.3317   0.3389   0.3508   0.3599
  0.3611   0.3687   0.3764   0.3867   0.3950   0.3987   0.4105   0.4185
  0.4207   0.4267   0.4326   0.4517   0.4590   0.4701   0.4747   0.4871
  0.4891   0.4942   0.4985   0.5199   0.5281   0.5464   0.5501   0.5638
  0.5694   0.5767   0.5848   0.5987   0.6062   0.6121   0.6312   0.6364
  0.6477   0.6599   0.6707   0.6791   0.6960   0.7034   0.7097   0.7232
  0.7283   0.7390   0.7669   0.7778   0.7815   0.7855   0.7947   0.8084
  0.8150   0.8165   0.8319   0.8415   0.8664   0.8709   0.8800   0.8931
  0.9167   0.9373   0.9754   0.9842   0.9983   1.0081   1.0192   1.0357
  1.0619   1.0822   1.1081   1.1198   1.1295   1.1516   1.1794   1.2236
  1.2346   1.2384   1.2792   1.3286   1.3452   1.3552   1.3762   1.4389
  1.4452   1.4647   1.5438   1.5469   1.6103   1.6433   1.6519   1.6813
  1.7009   1.7425   1.8055   1.8312   1.8417   1.8621   1.8721   1.8859
  1.9091   1.9436   1.9546   1.9581   1.9804   1.9898   2.0014   2.0200
  2.0311   2.0746   2.0925   2.1258   2.1794   2.2444   2.2554   2.2763
  2.3098   2.3601   2.3820   2.4013   2.4482   2.4534   2.4684   2.5040
  2.5512   2.5913   2.6153   2.6194   2.6445   2.6588   2.6939   2.7305
  2.7417   2.7752   2.7934   2.8431   2.8670   2.8801   2.9088   2.9942
  3.0219   3.0505   3.0616   3.0731   3.1024   3.1200   3.1440   3.1620
  3.1824   3.2063   3.2189   3.2289   3.2766   3.2903   3.3124   3.3399
  3.3524   3.3782   3.3948   3.3989   3.4212   3.4297   3.4746   3.5121
  3.5203   3.5446   3.5582   3.6085   3.6377   3.6631   3.7012   3.7305
  3.7480   3.7924   3.8150   3.8676   3.8843   3.9497   3.9567   4.0437
  4.0857   4.1011   4.1294   4.2377   4.2988   4.4041   4.4459   4.5191
  4.5233   4.5705   4.6134   4.7036   4.7803   4.8253   4.8425   4.8729
  4.9411   4.9680   5.0267   5.0472   5.0546   5.0686   5.1676   5.1976
  5.2384   5.3035   5.3819   5.4495   5.5008   5.5407   5.5902   5.6082
  5.6609   5.7068   5.7505   5.7975   5.8785   6.0331   6.2416   6.2897
 22.6290  22.8861  23.1369  23.3924  32.6489  32.7834
 --------------------------------------------------------------
 
          Ground-State Mulliken Net Atomic Charges

     Atom                 Charge (a.u.)
  ----------------------------------------
      1 C                    -0.829124
      2 C                    -0.253545
      3 C                     0.522026
      4 C                    -0.562447
      5 N                    -0.541988
      6 N                     0.079285
      7 H                     0.338486
      8 H                     0.199253
      9 H                     0.325012
     10 H                     0.254709
     11 H                     0.212797
     12 H                     0.255537
  ----------------------------------------
  Sum of atomic charges =     0.000000

 -----------------------------------------------------------------
                    Cartesian Multipole Moments
 -----------------------------------------------------------------
    Charge (ESU x 10^10)
                 0.0000
    Dipole Moment (Debye)
         X       3.9777      Y       0.0363      Z      -2.9564
       Tot       4.9562
    Quadrupole Moments (Debye-Ang)
        XX     -28.8527     XY      -3.7740     YY     -36.8192
        XZ       3.1453     YZ      -1.7419     ZZ     -36.4591
    Octopole Moments (Debye-Ang^2)
       XXX     -79.7853    XXY      25.3431    XYY     -32.2525
       YYY     107.9804    XXZ     -66.4122    XYZ      -6.4540
       YYZ     -63.2850    XZZ     -21.4512    YZZ      25.3480
       ZZZ    -191.8908
    Hexadecapole Moments (Debye-Ang^3)
      XXXX    -307.2495   XXXY      86.1992   XXYY    -102.6415
      XYYY     120.0514   YYYY    -323.4922   XXXZ    -167.6747
      XXYZ      68.8283   XYYZ     -49.9437   YYYZ     252.8296
      XXZZ    -239.6078   XYZZ      19.4964   YYZZ    -222.3293
      XZZZ    -147.3667   YZZZ     222.3193   ZZZZ   -1093.1720
 -----------------------------------------------------------------
Archival summary:
1\1\nid00535\SP\ProcedureUnspecified\BasisUnspecified\246\meili\SunSep2613:53:472021SunSep2613:53:472021\0\\#,ProcedureUnspecified,BasisUnspecified,\\0,1\N\C,1,1.32622\H,2,1.08265,1,125.387\N,2,1.32718,1,109.262,3,-178.252,0\H,4,1.01418,2,125.013,1,-179.576,0\C,1,1.37104,2,108.561,3,179.808,0\C,6,1.3636,1,106.914,2,-0.900243,0\H,7,1.07675,6,127.108,1,174.552,0\C,6,1.50266,1,122.107,2,176.442,0\H,9,1.08809,6,109.751,1,44.4389,0\H,9,1.09107,6,107.757,1,-72.6326,0\H,9,1.1,6,113.457,1,166.985,0\\\@

 Total job time:  15268.33s(wall), 30131.89s(cpu) 
 Sun Sep 26 13:53:49 2021

        *************************************************************
        *                                                           *
        *  Thank you very much for using Q-Chem.  Have a nice day.  *
        *                                                           *
        *************************************************************


Done Job For Fragment 0
calling putenv with: QCSCRATCH=/global/cscratch1/sd/meili 
calling putenv with: QCLOCALSCR=/tmp 
calling putenv with: QCTHREADS=32 
Creating input file /tmp/qchem40284/Frg2.input
using default PutDataFrgm: nothing
calling putenv with: QCSCRATCH=/tmp/qchem40284/ 
calling putenv with: QCLOCALSCR=/tmp/qchem40284/ 
Spawning Job For Fragment 1
                  Welcome to Q-Chem
     A Quantum Leap Into The Future Of Chemistry


 Q-Chem 5.2, Q-Chem, Inc., Pleasanton, CA (2019)

 License issued to: National Energy Research Scientific Computing Center

 Yihan Shao,  Zhengting Gan,  E. Epifanovsky,  A. T. B. Gilbert,  M. Wormit,  
 J. Kussmann,  A. W. Lange,  A. Behn,  Jia Deng,  Xintian Feng,  D. Ghosh,  
 M. Goldey,  P. R. Horn,  L. D. Jacobson,  I. Kaliman,  T. Kus,  A. Landau,  
 Jie Liu,  E. I. Proynov,  R. M. Richard,  R. P. Steele,  E. J. Sundstrom,  
 H. L. Woodcock III,  P. M. Zimmerman,  D. Zuev,  B. Albrecht,  E. Alguire,  
 S. A. Baeppler,  D. Barton,  Z. Benda,  Y. A. Bernard,  E. J. Berquist,  
 K. B. Bravaya,  H. Burton,  D. Casanova,  Chun-Min Chang,  Yunqing Chen,  
 A. Chien,  K. D. Closser,  M. P. Coons,  S. Coriani,  S. Dasgupta,  
 A. L. Dempwolff,  M. Diedenhofen,  Hainam Do,  R. G. Edgar,  Po-Tung Fang,  
 S. Faraji,  S. Fatehi,  Qingguo Feng,  K. D. Fenk,  J. Fosso-Tande,  
 J. Gayvert,  Qinghui Ge,  A. Ghysels,  G. Gidofalvi,  J. Gomes,  
 J. Gonthier,  A. Gunina,  D. Hait,  M. W. D. Hanson-Heine,  
 P. H. P. Harbach,  A. W. Hauser,  M. F. Herbst,  J. E. Herr,  
 E. G. Hohenstein,  Z. C. Holden,  Kerwin Hui,  B. C. Huynh,  T.-C. Jagau,  
 Hyunjun Ji,  B. Kaduk,  K. Khistyaev,  Jaehoon Kim,  P. Klunzinger,  K. Koh,  
 D. Kosenkov,  L. Koulias,  T. Kowalczyk,  C. M. Krauter,  A. Kunitsa,  
 Ka Un Lao,  A. Laurent,  K. V. Lawler,  Joonho Lee,  D. Lefrancois,  
 S. Lehtola,  D. S. Levine,  Yi-Pei Li,  You-Sheng Lin,  Fenglai Liu,  
 E. Livshits,  A. Luenser,  P. Manohar,  E. Mansoor,  S. F. Manzer,  
 Shan-Ping Mao,  Yuezhi Mao,  N. Mardirossian,  A. V. Marenich,  
 T. Markovich,  L. A. Martinez-Martinez,  S. A. Maurer,  N. J. Mayhall,  
 S. C. McKenzie,  J.-M. Mewes,  P. Morgante,  A. F. Morrison,  
 J. W. Mullinax,  K. Nanda,  T. S. Nguyen-Beck,  R. Olivares-Amaya,  
 J. A. Parkhill,  Zheng Pei,  T. M. Perrine,  F. Plasser,  P. Pokhilko,  
 S. Prager,  A. Prociuk,  E. Ramos,  D. R. Rehn,  F. Rob,  M. Scheurer,  
 M. Schneider,  N. Sergueev,  S. M. Sharada,  S. Sharma,  D. W. Small,  
 T. Stauch,  T. Stein,  Yu-Chuan Su,  A. J. W. Thom,  A. Tkatchenko,  
 T. Tsuchimochi,  N. M. Tubman,  L. Vogt,  M. L. Vidal,  O. Vydrov,  
 M. A. Watson,  J. Wenzel,  M. de Wergifosse,  T. A. Wesolowski,  A. White,  
 J. Witte,  A. Yamada,  Jun Yang,  K. Yao,  S. Yeganeh,  S. R. Yost,  
 Zhi-Qiang You,  A. Zech,  Igor Ying Zhang,  Xing Zhang,  Yan Zhao,  
 Ying Zhu,  B. R. Brooks,  G. K. L. Chan,  C. J. Cramer,  M. S. Gordon,  
 W. J. Hehre,  A. Klamt,  M. W. Schmidt,  C. D. Sherrill,  D. G. Truhlar,  
 A. Aspuru-Guzik,  R. Baer,  A. T. Bell,  N. A. Besley,  Jeng-Da Chai,  
 A. E. DePrince, III,  R. A. DiStasio Jr.,  A. Dreuw,  B. D. Dunietz,  
 T. R. Furlani,  Chao-Ping Hsu,  Yousung Jung,  Jing Kong,  D. S. Lambrecht,  
 WanZhen Liang,  C. Ochsenfeld,  V. A. Rassolov,  L. V. Slipchenko,  
 J. E. Subotnik,  T. Van Voorhis,  J. M. Herbert,  A. I. Krylov,  
 P. M. W. Gill,  M. Head-Gordon

 Contributors to earlier versions of Q-Chem not listed above: 
 R. D. Adamson,  B. Austin,  J. Baker,  G. J. O. Beran,  K. Brandhorst,  
 S. T. Brown,  E. F. C. Byrd,  A. K. Chakraborty,  C.-L. Cheng,  
 Siu Hung Chien,  D. M. Chipman,  D. L. Crittenden,  H. Dachsel,  
 R. J. Doerksen,  A. D. Dutoi,  L. Fusti-Molnar,  W. A. Goddard III,  
 A. Golubeva-Zadorozhnaya,  S. R. Gwaltney,  G. Hawkins,  A. Heyden,  
 S. Hirata,  G. Kedziora,  F. J. Keil,  C. Kelley,  Jihan Kim,  R. A. King,  
 R. Z. Khaliullin,  P. P. Korambath,  W. Kurlancheek,  A. M. Lee,  M. S. Lee,  
 S. V. Levchenko,  Ching Yeh Lin,  D. Liotard,  R. C. Lochan,  I. Lotan,  
 P. E. Maslen,  N. Nair,  D. P. O'Neill,  D. Neuhauser,  E. Neuscamman,  
 C. M. Oana,  R. Olson,  B. Peters,  R. Peverati,  P. A. Pieniazek,  
 Y. M. Rhee,  J. Ritchie,  M. A. Rohrdanz,  E. Rosta,  N. J. Russ,  
 H. F. Schaefer III,  N. E. Schultz,  N. Shenvi,  A. C. Simmonett,  A. Sodt,  
 D. Stuck,  K. S. Thanthiriwatte,  V. Vanovschi,  Tao Wang,  A. Warshel,  
 C. F. Williams,  Q. Wu,  X. Xu,  W. Zhang

 Please cite Q-Chem as follows:
 Y. Shao et al., Mol. Phys. 113, 184-215 (2015)
 DOI: 10.1080/00268976.2014.952696

 Q-Chem 5.2.0 for Intel X86 EM64T Linux

 Parts of Q-Chem use Armadillo 8.300.2 (Tropical Shenanigans).
 http://arma.sourceforge.net/

 Q-Chem begins on Sun Sep 26 13:53:51 2021  

Host: cori01
0

     Scratch files written to /tmp/qchem40284//Frg2//
 May1019 |scratch|qcdevops|jenkins|workspace|build_RNUM -1
Processing $rem in /global/common/cori/software/qchem/5.2/config/preferences:
	 MEM_TOTAL  96000 
NAlpha2: 32
NElect   32
Mult     1
Symmetry turned off for PCM/SM12/SMD calculation

Checking the input file for inconsistencies... 	...done.

--------------------------------------------------------------
User input:
--------------------------------------------------------------
$molecule
-1 1
 6	-2.3423299073	0.2332570181	-2.5180484834
 6	-1.3193299073	1.3902570181	-2.4750484834
 8	-1.2933299073	2.2032570181	-1.5420484834
 8	-0.4873299073	1.4542570181	-3.3770484834
 1	-1.9473299073	-0.5657429819	-1.9030484834
 1	-2.4883299073	-0.1327429819	-3.5380484834
 1	-3.3111391073	0.5064170181	-2.0744354834
$end
$rem
EDA2		1
METHOD		WB97X-V
BASIS		DEF2-TZVPD
XC_GRID		000099000590
NL_GRID		1
UNRESTRICTED		FALSE
MAX_SCF_CYCLES		200
SYMMETRY		FALSE
SYM_IGNORE		TRUE
BASIS_LIN_DEP_THRESH		6
THRESH		14
SCF_CONVERGENCE		8
SCF_PRINT_FRGM		TRUE
SOLVENT_METHOD		SMD
!required keywords
JOBTYPE		SP
SYM_IGNORE		TRUE
SUBSYSTEM		TRUE
GEN_SCFMAN		TRUE
CHILD_INSTRUCTION		2
SYM_IGNORE		TRUE
SCFMI		0
RI_K 0		
PARI_K 0		
MIN_PARI_K 0		
IARI_K 0		
OCC_RI_K 0		
PURECART		1111
MEM_STATIC		2000
MEM_TOTAL		96000
GUI		0
CHILD_MP		1
CHILD_MP_ORDERS		232
FRZ_RELAX		0
FRZ_RELAX_METHOD		0
EDA_CLS_ELEC		1
EDA_CLS_DISP		0
FRZ_ORTHO_DECOMP		1
EDA2		FALSE
FRGM_METHOD		FALSE
CIS_N_ROOTS  0
LOCAL_CIS    0
CIS_RLX_DNS  1
$end
$smx
SOLVENT			WATER
$end
--------------------------------------------------------------
 ----------------------------------------------------------------
             Standard Nuclear Orientation (Angstroms)
    I     Atom           X                Y                Z
 ----------------------------------------------------------------
    1      C      -2.3423299073     0.2332570181    -2.5180484834
    2      C      -1.3193299073     1.3902570181    -2.4750484834
    3      O      -1.2933299073     2.2032570181    -1.5420484834
    4      O      -0.4873299073     1.4542570181    -3.3770484834
    5      H      -1.9473299073    -0.5657429819    -1.9030484834
    6      H      -2.4883299073    -0.1327429819    -3.5380484834
    7      H      -3.3111391073     0.5064170181    -2.0744354834
 ----------------------------------------------------------------
 Nuclear Repulsion Energy =         113.18552813 hartrees
 There are       16 alpha and       16 beta electrons
 Requested basis set is def2-TZVPD
 There are 69 shells and 181 basis functions

 Total QAlloc Memory Limit  96000 MB
 Mega-Array Size      1956 MB
 MEM_STATIC part      2000 MB
 
 Citation of the SMD model:
 Marenich, A.V.; Cramer, C.J.; Truhlar, D.G.
 J. Phys. Chem. B 2009, 113, 6378-6396.
 iSolventCode=           1
 Solvent: water                                                           
 
 vradii
            1           2           3           4           5           6
    1   1.8500000   1.8500000   1.5200000   1.5200000   1.2000000   1.2000000
            7
    1   1.2000000
 Changing PCM_VDW_RADII to SMD_RADIUS
 Discretize the solute cavity surface with Lebedev spheres
	Using 110 Lebedev grid points for each H atom
	Using 194 Lebedev grid points for other atoms
	Atomic van der Waals radii will be scaled by 1.20
 Remove points where switching function is < 1.0e-08
 Keep 647 surface tesserae and discard 459 interior tesserae
 Molecular Surface Area = 79.629 Angst**2

                       Distance Matrix (Angstroms)
             C (  1)   C (  2)   O (  3)   O (  4)   H (  5)   H (  6)
   C (  2)  1.545001
   O (  3)  2.435955  1.237794
   O (  4)  2.381123  1.228790  2.139594
   H (  5)  1.082890  2.132488  2.867995  2.895631
   H (  6)  1.093468  2.194552  3.296807  2.559002  1.775780
   H (  7)  1.100000  2.215619  2.689657  3.251015  1.743237  1.796581

 
 A cutoff of  1.0D-14 yielded   2394 shell pairs
 There are     16706 function pairs (     21504 Cartesian)
 Smallest overlap matrix eigenvalue = 1.78E-05

 Scale SEOQF with 1.000000e-01/1.000000e-01/1.000000e-01

 Standard Electronic Orientation quadrupole field applied
 Nucleus-field energy     =    -0.0000000143 hartrees
 Guess from superposition of atomic densities
 Warning:  Energy on first SCF cycle will be non-variational
 SAD guess density has 30.625312 electrons

 -----------------------------------------------------------------------
  General SCF calculation program by
  Eric Jon Sundstrom, Paul Horn, Yuezhi Mao, Dmitri Zuev, Alec White,
  David Stuck, Shaama M.S., Shane Yost, Joonho Lee, David Small,
  Daniel Levine, Susi Lehtola, Hugh Burton, Evgeny Epifanovsky
 -----------------------------------------------------------------------
 Exchange:     0.1670 Hartree-Fock + 1.0000 wB97X-V + LR-HF
 Correlation:  1.0000 wB97X-V
 Using Euler-Maclaurin-Lebedev (99,590) quadrature formula
 Nonlocal Correlation:  VV10 with C = 0.0100 and b = 6.00 and scale = 1.00000
 Grid used for NLC:  SG-1 standard quadrature
Energy prior to optimization (guess energy) = -227.764064531922
Begin Timing: Total SCF Calculation
begin iterations for algorithm: DIIS         
the SCF tolerance is set to 1.00e-08
    1    -227.7640645319      1.66e-02     00000 
    2    -225.6369454633      2.50e-02     00000 
    3    -228.6023083158      4.07e-03     00000 
    4    -228.6554655140      1.38e-03     00000 
    5    -228.6614750319      2.18e-04     00000 
    6    -228.6617346528      1.06e-04     00000 
    7    -228.6617636808      5.75e-05     00000 
    8    -228.6617742218      1.44e-05     00000 
    9    -228.6617754495      4.26e-06     00000 
   10    -228.6617755795      1.16e-06     00000 
   11    -228.6617755912      2.14e-07     00000 
   12    -228.6617755915      4.28e-08     00000 
   13    -228.6617755915      9.33e-09     00000 Convergence criterion met
Timing for Total SCF: 274.00s (wall), 507.98s (cpu)
(3)  G-ENP(liq) elect-nuc-pol free energy of system     -228.661775592 a.u.
(4)  G-CDS(liq) cavity-dispersion-solvent structure 
     free energy                                                4.0288 kcal/mol
(6)  G-S(liq) free energy of system                     -228.655355367 a.u.
E_pcm = -0.1317354598
E_cds = 0.0064202249
Multipole orders to be included
        2
        3
computing dipole RHS
computing quadrupole RHS
total number of RHS in solve_reponses: 8
RHS batch sizes
        8
Beginning Block Conjugate Gradient Iterations. Batch Number: 0
computing hessian-vector products by finite difference
              1      7.02e-01     00000 Conjugate Gradient Iteration
computing hessian-vector products by finite difference
              2      2.16e-01     00000 Conjugate Gradient Iteration
computing hessian-vector products by finite difference
              3      5.95e-02     00000 Conjugate Gradient Iteration
computing hessian-vector products by finite difference
              4      1.57e-02     00000 Conjugate Gradient Iteration
computing hessian-vector products by finite difference
              5      2.27e-03     00000 Conjugate Gradient Iteration
computing hessian-vector products by finite difference
              6      5.85e-04     00000 Conjugate Gradient Iteration
computing hessian-vector products by finite difference
              7      8.34e-05     00000 Conjugate Gradient Iteration
computing hessian-vector products by finite difference
              8      1.03e-05     00000 Conjugate Gradient Iteration
computing hessian-vector products by finite difference
              9      1.58e-06     00000 Conjugate Gradient Iteration
computing hessian-vector products by finite difference
             10      1.59e-07     00000 Conjugate Gradient Iteration
computing hessian-vector products by finite difference
             11      2.27e-08     00000 Conjugate Gradient Iteration
computing hessian-vector products by finite difference
             12      5.88e-09     00000 CG Converged
batch 0 complete
Done Calculating Responses
TESTING ORTHOGONALIZATION OF MULTIPOLE BASIS
Multipole virts passed orthogonality test
Virts Per Order
        48
        80
 
 --------------------------------------------------------------
 
                    Orbital Energies (a.u.)
 --------------------------------------------------------------
 
 Alpha MOs
 -- Occupied --
-19.1493 -19.1483 -10.3498 -10.2479  -1.1757  -1.0671  -0.8378  -0.6155
 -0.5500  -0.5481  -0.5403  -0.4846  -0.4656  -0.3644  -0.3588  -0.3404
 -- Virtual --
  0.0672   0.0998   0.1003   0.1085   0.1346   0.1448   0.1459   0.1516
  0.1609   0.1897   0.2047   0.2200   0.2341   0.2405   0.2594   0.2668
  0.3000   0.3123   0.3326   0.3476   0.3562   0.3652   0.3689   0.3774
  0.3808   0.4003   0.4203   0.4215   0.4284   0.4514   0.4652   0.4747
  0.4826   0.4863   0.5036   0.5125   0.5470   0.5684   0.5899   0.5986
  0.6221   0.6321   0.6346   0.6443   0.6527   0.6612   0.6842   0.6963
  0.7078   0.7222   0.7805   0.7944   0.8110   0.8173   0.8445   0.8507
  0.8589   0.9599   0.9765   0.9861   0.9898   1.0207   1.0463   1.0866
  1.1261   1.2139   1.2306   1.2526   1.2747   1.2997   1.3351   1.3754
  1.4230   1.5354   1.5812   1.7403   1.8088   1.8521   1.8692   1.9018
  1.9129   1.9424   1.9430   1.9522   2.0127   2.0931   2.1071   2.1693
  2.1746   2.2037   2.2912   2.3028   2.4105   2.4416   2.4647   2.4838
  2.5535   2.5818   2.6212   2.6643   2.7711   2.8098   2.8482   2.9081
  2.9317   3.0250   3.0665   3.1380   3.2002   3.2140   3.2584   3.2762
  3.3278   3.3360   3.3726   3.3901   3.4188   3.4962   3.5633   3.5753
  3.6059   3.6798   3.7107   3.7252   3.7584   3.8202   3.9458   4.0213
  4.0578   4.1967   4.3154   4.5746   4.5879   4.6392   4.7456   4.7887
  4.9726   5.2978   5.3224   5.3349   5.3454   5.4630   5.6897   5.8084
  5.8280   6.0726   6.2152   6.3459   6.3783   6.6018   6.6237   6.7207
  6.7246   6.7362   6.9460   6.9635   7.0184   7.2468   7.3013   7.3921
  7.4035  22.5683  23.7967  44.1985  44.3635
 --------------------------------------------------------------
 
          Ground-State Mulliken Net Atomic Charges

     Atom                 Charge (a.u.)
  ----------------------------------------
      1 C                    -0.613726
      2 C                     0.507351
      3 O                    -0.777975
      4 O                    -0.757477
      5 H                     0.188683
      6 H                     0.221659
      7 H                     0.231485
  ----------------------------------------
  Sum of atomic charges =    -1.000000

 -----------------------------------------------------------------
                    Cartesian Multipole Moments
 -----------------------------------------------------------------
    Charge (ESU x 10^10)
                -4.8032
    Dipole Moment (Debye)
         X       2.7547      Y     -10.5304      Z      11.7515
       Tot      16.0180
    Quadrupole Moments (Debye-Ang)
        XX     -27.2570     XY       8.5506     YY     -48.0359
        XZ      -3.2248     YZ      22.5323     ZZ     -61.5582
    Octopole Moments (Debye-Ang^2)
       XXX     108.0740    XXY     -41.0007    XYY      57.3206
       YYY    -145.5255    XXZ      61.1057    XYZ     -11.9181
       YYZ     107.3492    XZZ      41.7349    YZZ     -93.0435
       ZZZ     312.9879
    Hexadecapole Moments (Debye-Ang^3)
      XXXX    -412.2145   XXXY     114.2027   XXYY    -157.8438
      XYYY     155.0112   YYYY    -478.2185   XXXZ    -245.7994
      XXYZ      81.8828   XYYZ    -114.7854   YYYZ     312.6525
      XXZZ    -229.8052   XYZZ      56.7592   YYZZ    -341.5043
      XZZZ    -272.5679   YZZZ     417.2483   ZZZZ   -1480.7287
 -----------------------------------------------------------------
Archival summary:
1\1\nid00535\SP\ProcedureUnspecified\BasisUnspecified\223(1-,1)\meili\SunSep2615:11:352021SunSep2615:11:352021\0\\#,ProcedureUnspecified,BasisUnspecified,\\-1,1\C\O,1,1.22879\O,1,1.23779,2,120.323\C,1,1.545,2,117.833,3,-177.285,0\H,4,1.08289,1,107.17,2,94.7868,0\H,4,1.09347,1,111.409,2,-24.806,0\H,4,1.1,1,112.704,2,-148.995,0\\\@

 Total job time:  4666.46s(wall), 8845.34s(cpu) 
 Sun Sep 26 15:11:37 2021

        *************************************************************
        *                                                           *
        *  Thank you very much for using Q-Chem.  Have a nice day.  *
        *                                                           *
        *************************************************************


Done Job For Fragment 1
calling putenv with: QCSCRATCH=/global/cscratch1/sd/meili 
calling putenv with: QCLOCALSCR=/tmp 
calling putenv with: QCTHREADS=32 
Doing General SCFMI
 Exchange:     0.1670 Hartree-Fock + 1.0000 wB97X-V + LR-HF
 Correlation:  1.0000 wB97X-V
 Using Euler-Maclaurin-Lebedev (99,590) quadrature formula
 Nonlocal Correlation:  VV10 with C = 0.0100 and b = 6.00 and scale = 1.00000
 Grid used for NLC:  SG-1 standard quadrature
performing fock build before subrot guess so that all methods have access
Printing subrot_rss_gen Method Specification:
Occupied Subspace Method is 0
Virtual Subspace Method is 0
Energy of the unrelaxed supersystem initial determinant -494.092333098014
performing fock build before subrot guess so that all methods have access
Printing subrot_rss_gen Method Specification:
Occupied Subspace Method is 0
Virtual Subspace Method is 0
Energy of the unrelaxed supersystem initial determinant w/ solvent -494.237051537730
write pseudocanon occs and virts to disk
write pseudocanon orbital energies to disk
Tolerance of ortho_decomp_scf: 1.00e-06
GDM subspace size: 20
Beginning the Orthogonal Decomposition of the Initial Supersystem Wavefunction
    1    -494.0719242021      2.49e-02     ortho_decomp Preconditoned Steepest Descent
    2    -494.0734054947      7.34e-04     ortho_decomp BFGS Step
    3    -494.0734115439      4.95e-05     ortho_decomp BFGS Step
    4    -494.0734115509      1.96e-06     ortho_decomp BFGS Step
    5    -494.0734115510      6.83e-08     ortho_decomp 00000 Convergence criterion met
 Hartree-Fock
 Hartree-Fock
 Hartree-Fock
Doing General SCFMI
 Exchange:     0.1670 Hartree-Fock + 1.0000 wB97X-V + LR-HF
 Correlation:  1.0000 wB97X-V
 Using Euler-Maclaurin-Lebedev (99,590) quadrature formula
 Nonlocal Correlation:  VV10 with C = 0.0100 and b = 6.00 and scale = 1.00000
 Grid used for NLC:  SG-1 standard quadrature
performing fock build at end of subrot_r(subrot) constructor so that all methods have access
<S^2> of initial wavefunction before polarization iterations 0.0000000000
Beginning iterations for the determination of the polarized wavefunction
Energy prior to optimization (guess energy) = -494.237051537730
Begin Timing: Total SCF Calculation
begin iterations for algorithm: DIIS         
the SCF tolerance is set to 1.00e-08
    1    -494.2370515377      3.93e-05     00000 
    2    -494.2371396285      2.07e-05     00000 
    3    -494.2371492757      1.29e-05     00000 
    4    -494.2371536870      3.30e-06     00000 
    5    -494.2371540081      1.38e-06     00000 
    6    -494.2371540814      5.34e-07     00000 
    7    -494.2371540899      1.87e-07     00000 
    8    -494.2371540910      6.99e-08     00000 
    9    -494.2371540911      2.82e-08     00000 
   10    -494.2371540911      7.42e-09     00000 Convergence criterion met
write pseudocanon occs and virts to disk
write pseudocanon orbital energies to disk
Timing for Total SCF: 2205.00s (wall), 4378.63s (cpu)
<S^2> of polarized wavefunction after polarization iterations 0.0000000000
relaxing scfmi constraint to allow all rotations in the entire AO span
Doing General SCFMI
 Exchange:     0.1670 Hartree-Fock + 1.0000 wB97X-V + LR-HF
 Correlation:  1.0000 wB97X-V
 Using Euler-Maclaurin-Lebedev (99,590) quadrature formula
 Nonlocal Correlation:  VV10 with C = 0.0100 and b = 6.00 and scale = 1.00000
 Grid used for NLC:  SG-1 standard quadrature
performing fock build at end of subrot_r(subrot) constructor so that all methods have access
<S^2> of polarized wavefunction before ct-allowed iterations 0.0000000000
Beginning iterations for the determination of the CT-Allowed wavefunction
Energy prior to optimization (guess energy) = -494.237154091142
Begin Timing: Total SCF Calculation
begin iterations for algorithm: DIIS         
the SCF tolerance is set to 1.00e-08
    1    -494.2371540911      7.37e-05     00000 
    2    -494.2376935443      8.02e-06     00000 
    3    -494.2377104160      2.01e-06     00000 
    4    -494.2377109148      1.97e-06     00000 
    5    -494.2377112056      2.40e-07     00000 
    6    -494.2377112163      1.52e-07     00000 
    7    -494.2377112192      3.45e-08     00000 
    8    -494.2377112194      1.47e-08     00000 
    9    -494.2377112194      3.76e-09     00000 Convergence criterion met
write pseudocanon occs and virts to disk
write pseudocanon orbital energies to disk
Timing for Total SCF: 1985.00s (wall), 3939.99s (cpu)
<S^2> of ct_allowed wavefunction after ct-allowed iterations 0.0000000000

================================
        Results of EDA2         
================================
Basic EDA Quantities
--------------------
Fragment Energies (Ha):
1 -265.5708040735
2 -228.6553553666
--------------------
  E_prp (kJ/mol) = 0.0000
  E_sol (kJ/mol) = 23.2527
  E_frz (kJ/mol) = -27.9225
  E_pol (kJ/mol) = -0.2693
  E_vct (kJ/mol) = -1.4628
  E_int (kJ/mol) = -6.4018
--------------------


Initial Wavefunction Decomposition
--------------------
  --------------------
  Orthogonal Fragment Subspace Decomposition:
  --------------------
     E_elec   (ELEC)   (kJ/mol) = -36.9168
     E_pauli  (PAULI)  (kJ/mol) = 16.8921
     E_disp   (DISP)   (kJ/mol) = -7.8978
     --------------------
     Terms summing to E_pauli:
     --------------------
        E_kep_pauli       (kJ/mol) = 21.7566
        E_disp_free_pauli (kJ/mol) = -4.8645
  --------------------
  Classical Frozen Decomposition:
  --------------------
     E_cls_elec  (CLS ELEC)  (kJ/mol) = -28.6545
     E_cls_pauli (CLS PAULI) (kJ/mol) = 0.7320
    [E_mod_pauli (MOD PAULI) (kJ/mol) = 8.6298 (CLS PAULI - DISP from orthogonal decomposition) ]
  --------------------
--------------------

Simplified EDA Summary (kJ/mol)
--------------------
 PREPARATION     0.0000
 SOLVATION       23.2527
 FROZEN          -20.0247      (does not include dispersion)
[PAULI           16.8921]     (if this is negligible, then frozen describes electrostatics)
 DISPERSION      -7.8978
 POLARIZATION    -0.2693
 CHARGE TRANSFER -1.4628
 TOTAL           -6.4018     (PRP + SOL + FRZ + DISP + POL + CT)
--------------------
 
 --------------------------------------------------------------
 
                    Orbital Energies (a.u.)
 --------------------------------------------------------------
 
 Alpha MOs
 -- Occupied --
-19.1501 -19.1490 -14.4571 -14.3837 -10.3502 -10.3137 -10.2822 -10.2809
-10.2564 -10.2483  -1.1763  -1.1514  -1.0677  -0.9945  -0.8919  -0.8382
 -0.8212  -0.7215  -0.6817  -0.6614  -0.6160  -0.5619  -0.5577  -0.5504
 -0.5450  -0.5407  -0.5314  -0.5059  -0.4933  -0.4849  -0.4778  -0.4661
 -0.3763  -0.3754  -0.3645  -0.3594  -0.3409  -0.3183
 -- Virtual --
  0.0629   0.0764   0.0890   0.0938   0.0971   0.1072   0.1131   0.1202
  0.1310   0.1344   0.1391   0.1418   0.1456   0.1499   0.1627   0.1648
  0.1693   0.1789   0.1848   0.1948   0.1977   0.2072   0.2133   0.2184
  0.2270   0.2328   0.2338   0.2442   0.2466   0.2526   0.2576   0.2683
  0.2690   0.2743   0.2844   0.2909   0.2989   0.2994   0.3072   0.3133
  0.3194   0.3249   0.3298   0.3341   0.3395   0.3429   0.3531   0.3542
  0.3567   0.3595   0.3633   0.3675   0.3689   0.3746   0.3778   0.3879
  0.3948   0.3993   0.4039   0.4066   0.4100   0.4177   0.4198   0.4250
  0.4291   0.4340   0.4399   0.4442   0.4480   0.4504   0.4620   0.4688
  0.4731   0.4762   0.4836   0.4937   0.4957   0.4965   0.5040   0.5101
  0.5167   0.5231   0.5320   0.5348   0.5443   0.5464   0.5575   0.5654
  0.5704   0.5732   0.5800   0.5831   0.5929   0.5969   0.6045   0.6119
  0.6165   0.6259   0.6288   0.6338   0.6424   0.6467   0.6526   0.6585
  0.6617   0.6657   0.6752   0.6792   0.6856   0.6893   0.7006   0.7105
  0.7172   0.7255   0.7303   0.7405   0.7442   0.7519   0.7543   0.7632
  0.7646   0.7875   0.7901   0.7962   0.8015   0.8040   0.8082   0.8151
  0.8237   0.8242   0.8301   0.8347   0.8412   0.8511   0.8561   0.8629
  0.8667   0.8802   0.8839   0.8964   0.9106   0.9166   0.9240   0.9412
  0.9492   0.9547   0.9799   0.9969   1.0015   1.0127   1.0171   1.0263
  1.0458   1.0590   1.0703   1.0822   1.0879   1.1014   1.1118   1.1254
  1.1350   1.1419   1.1496   1.1658   1.1910   1.1955   1.2138   1.2312
  1.2442   1.2493   1.2520   1.2665   1.2717   1.2918   1.3120   1.3269
  1.3438   1.3532   1.3649   1.3787   1.3892   1.3959   1.4260   1.4529
  1.4619   1.4794   1.4947   1.5476   1.5661   1.5766   1.6139   1.6282
  1.6585   1.6697   1.7062   1.7230   1.7454   1.7861   1.8206   1.8439
  1.8589   1.8749   1.8844   1.8984   1.9048   1.9113   1.9198   1.9299
  1.9313   1.9487   1.9538   1.9553   1.9642   1.9721   1.9798   2.0060
  2.0106   2.0303   2.0417   2.0544   2.0623   2.0886   2.1018   2.1089
  2.1367   2.1413   2.1522   2.1911   2.2030   2.2267   2.2515   2.2661
  2.2787   2.3011   2.3133   2.3318   2.3547   2.3717   2.4070   2.4290
  2.4389   2.4640   2.4777   2.4789   2.4925   2.4988   2.5064   2.5269
  2.5735   2.5985   2.6069   2.6093   2.6313   2.6369   2.6459   2.6572
  2.6715   2.6893   2.7154   2.7499   2.7643   2.7844   2.7858   2.8353
  2.8470   2.8561   2.8653   2.8737   2.8874   2.9195   2.9249   2.9436
  3.0065   3.0370   3.0596   3.0883   3.0898   3.1052   3.1097   3.1351
  3.1624   3.1631   3.1780   3.2002   3.2112   3.2207   3.2263   3.2413
  3.2537   3.2642   3.2725   3.2890   3.3001   3.3115   3.3303   3.3442
  3.3571   3.3689   3.3851   3.3910   3.4049   3.4105   3.4195   3.4274
  3.4342   3.4436   3.4532   3.4924   3.5138   3.5331   3.5388   3.5597
  3.5957   3.6004   3.6119   3.6210   3.6468   3.6635   3.6880   3.7026
  3.7216   3.7327   3.7369   3.7543   3.7593   3.7729   3.8051   3.8318
  3.8353   3.8758   3.8924   3.9585   3.9652   3.9739   4.0360   4.0605
  4.0816   4.0927   4.1239   4.1436   4.2029   4.2540   4.3092   4.3382
  4.4084   4.4580   4.5220   4.5306   4.5750   4.5838   4.6025   4.6251
  4.6516   4.7146   4.7631   4.7864   4.8049   4.8323   4.8464   4.8851
  4.9495   4.9739   4.9979   5.0343   5.0614   5.0668   5.0786   5.1774
  5.2133   5.2472   5.3028   5.3121   5.3256   5.3446   5.3507   5.3937
  5.4653   5.4699   5.5128   5.5478   5.6015   5.6221   5.6813   5.6980
  5.7333   5.7900   5.8134   5.8228   5.8303   5.9122   6.0444   6.0755
  6.2347   6.2524   6.3043   6.3525   6.3864   6.6146   6.6294   6.7340
  6.7494   6.7655   6.9595   7.0072   7.0402   7.2605   7.3055   7.3961
  7.4213  22.5955  22.6333  22.9171  23.1948  23.4186  23.8267  32.6966
 32.8223  44.2953  44.4023
 --------------------------------------------------------------
 
          Ground-State Mulliken Net Atomic Charges

     Atom                 Charge (a.u.)
  ----------------------------------------
      1 C                    -0.881256
      2 C                    -0.624833
      3 C                     0.561737
      4 C                    -0.581492
      5 N                    -0.512099
      6 N                     0.124721
      7 H                     0.581324
      8 H                     0.207780
      9 H                     0.325845
     10 H                     0.261203
     11 H                     0.217411
     12 H                     0.256762
     13 C                    -0.665619
     14 C                     0.618303
     15 O                    -0.783026
     16 O                    -0.788273
     17 H                     0.213683
     18 H                     0.228893
     19 H                     0.238940
  ----------------------------------------
  Sum of atomic charges =    -1.000000

 -----------------------------------------------------------------
                    Cartesian Multipole Moments
 -----------------------------------------------------------------
    Charge (ESU x 10^10)
                -4.8032
    Dipole Moment (Debye)
         X       6.6802      Y     -10.4275      Z       8.7237
       Tot      15.1479
    Quadrupole Moments (Debye-Ang)
        XX     -56.1182     XY       4.7697     YY     -84.8408
        XZ      -0.0490     YZ      20.7898     ZZ     -98.0424
    Octopole Moments (Debye-Ang^2)
       XXX      27.9466    XXY     -15.4984    XYY      24.9012
       YYY     -37.2069    XXZ      -5.5937    XYZ     -18.2275
       YYZ      43.7902    XZZ      19.9501    YZZ     -67.3211
       ZZZ     120.2294
    Hexadecapole Moments (Debye-Ang^3)
      XXXX    -719.4543   XXXY     200.5148   XXYY    -260.5459
      XYYY     274.9530   YYYY    -801.5460   XXXZ    -413.2902
      XXYZ     150.8143   XYYZ    -164.7170   YYYZ     565.4320
      XXZZ    -469.3406   XYZZ      76.3315   YYZZ    -563.9471
      XZZZ    -419.7428   YZZZ     639.7556   ZZZZ   -2574.2699
 -----------------------------------------------------------------
Archival summary:
1\1\nid00535\SP\ProcedureUnspecified\BasisUnspecified\2269(1-,1)\meili\SunSep2617:22:202021SunSep2617:22:202021\0\\#,ProcedureUnspecified,BasisUnspecified,\\-1,1\N\H,1,1.01418\C,1,1.32718,2,125.013\H,3,1.08265,1,125.326,2,2.17046,0\N,3,1.32622,1,109.262,2,-179.576,0\C,5,1.37104,3,108.561,1,1.55572,0\C,6,1.3636,5,106.914,3,-0.900243,0\H,7,1.07675,6,127.108,5,174.552,0\C,6,1.50266,5,122.107,3,176.442,0\H,9,1.08809,6,109.751,5,44.4389,0\H,9,1.09107,6,107.757,5,-72.6326,0\H,9,1.1,6,113.457,5,166.985,0\H,4,2.57657,3,132.782,1,95.4435,0\C,13,1.08289,4,112.844,3,-178.718,0\H,14,1.09347,13,109.36,4,143.019,0\H,14,1.1,13,105.989,4,-98.4617,0\C,14,1.545,13,107.17,4,22.1206,0\O,17,1.22879,14,117.833,13,94.7868,0\O,17,1.23779,14,121.786,13,-82.4561,0\\\@

 Total job time:  27786.56s(wall), 15580.01s(cpu) 
 Sun Sep 26 17:22:23 2021

        *************************************************************
        *                                                           *
        *  Thank you very much for using Q-Chem.  Have a nice day.  *
        *                                                           *
        *************************************************************


