
Running Job 1 of 1 SSI-059ARG-067GLN-2_SMD_TZVPD.in
qchem SSI-059ARG-067GLN-2_SMD_TZVPD.in_38528.0 /tmp/qchem38528/ 0
/global/common/cori/software/qchem/5.2/exe/qcprog.exe_s SSI-059ARG-067GLN-2_SMD_TZVPD.in_38528.0 /tmp/qchem38528/
                  Welcome to Q-Chem
     A Quantum Leap Into The Future Of Chemistry


 Q-Chem 5.2, Q-Chem, Inc., Pleasanton, CA (2019)

 License issued to: National Energy Research Scientific Computing Center

 Yihan Shao,  Zhengting Gan,  E. Epifanovsky,  A. T. B. Gilbert,  M. Wormit,  
 J. Kussmann,  A. W. Lange,  A. Behn,  Jia Deng,  Xintian Feng,  D. Ghosh,  
 M. Goldey,  P. R. Horn,  L. D. Jacobson,  I. Kaliman,  T. Kus,  A. Landau,  
 Jie Liu,  E. I. Proynov,  R. M. Richard,  R. P. Steele,  E. J. Sundstrom,  
 H. L. Woodcock III,  P. M. Zimmerman,  D. Zuev,  B. Albrecht,  E. Alguire,  
 S. A. Baeppler,  D. Barton,  Z. Benda,  Y. A. Bernard,  E. J. Berquist,  
 K. B. Bravaya,  H. Burton,  D. Casanova,  Chun-Min Chang,  Yunqing Chen,  
 A. Chien,  K. D. Closser,  M. P. Coons,  S. Coriani,  S. Dasgupta,  
 A. L. Dempwolff,  M. Diedenhofen,  Hainam Do,  R. G. Edgar,  Po-Tung Fang,  
 S. Faraji,  S. Fatehi,  Qingguo Feng,  K. D. Fenk,  J. Fosso-Tande,  
 J. Gayvert,  Qinghui Ge,  A. Ghysels,  G. Gidofalvi,  J. Gomes,  
 J. Gonthier,  A. Gunina,  D. Hait,  M. W. D. Hanson-Heine,  
 P. H. P. Harbach,  A. W. Hauser,  M. F. Herbst,  J. E. Herr,  
 E. G. Hohenstein,  Z. C. Holden,  Kerwin Hui,  B. C. Huynh,  T.-C. Jagau,  
 Hyunjun Ji,  B. Kaduk,  K. Khistyaev,  Jaehoon Kim,  P. Klunzinger,  K. Koh,  
 D. Kosenkov,  L. Koulias,  T. Kowalczyk,  C. M. Krauter,  A. Kunitsa,  
 Ka Un Lao,  A. Laurent,  K. V. Lawler,  Joonho Lee,  D. Lefrancois,  
 S. Lehtola,  D. S. Levine,  Yi-Pei Li,  You-Sheng Lin,  Fenglai Liu,  
 E. Livshits,  A. Luenser,  P. Manohar,  E. Mansoor,  S. F. Manzer,  
 Shan-Ping Mao,  Yuezhi Mao,  N. Mardirossian,  A. V. Marenich,  
 T. Markovich,  L. A. Martinez-Martinez,  S. A. Maurer,  N. J. Mayhall,  
 S. C. McKenzie,  J.-M. Mewes,  P. Morgante,  A. F. Morrison,  
 J. W. Mullinax,  K. Nanda,  T. S. Nguyen-Beck,  R. Olivares-Amaya,  
 J. A. Parkhill,  Zheng Pei,  T. M. Perrine,  F. Plasser,  P. Pokhilko,  
 S. Prager,  A. Prociuk,  E. Ramos,  D. R. Rehn,  F. Rob,  M. Scheurer,  
 M. Schneider,  N. Sergueev,  S. M. Sharada,  S. Sharma,  D. W. Small,  
 T. Stauch,  T. Stein,  Yu-Chuan Su,  A. J. W. Thom,  A. Tkatchenko,  
 T. Tsuchimochi,  N. M. Tubman,  L. Vogt,  M. L. Vidal,  O. Vydrov,  
 M. A. Watson,  J. Wenzel,  M. de Wergifosse,  T. A. Wesolowski,  A. White,  
 J. Witte,  A. Yamada,  Jun Yang,  K. Yao,  S. Yeganeh,  S. R. Yost,  
 Zhi-Qiang You,  A. Zech,  Igor Ying Zhang,  Xing Zhang,  Yan Zhao,  
 Ying Zhu,  B. R. Brooks,  G. K. L. Chan,  C. J. Cramer,  M. S. Gordon,  
 W. J. Hehre,  A. Klamt,  M. W. Schmidt,  C. D. Sherrill,  D. G. Truhlar,  
 A. Aspuru-Guzik,  R. Baer,  A. T. Bell,  N. A. Besley,  Jeng-Da Chai,  
 A. E. DePrince, III,  R. A. DiStasio Jr.,  A. Dreuw,  B. D. Dunietz,  
 T. R. Furlani,  Chao-Ping Hsu,  Yousung Jung,  Jing Kong,  D. S. Lambrecht,  
 WanZhen Liang,  C. Ochsenfeld,  V. A. Rassolov,  L. V. Slipchenko,  
 J. E. Subotnik,  T. Van Voorhis,  J. M. Herbert,  A. I. Krylov,  
 P. M. W. Gill,  M. Head-Gordon

 Contributors to earlier versions of Q-Chem not listed above: 
 R. D. Adamson,  B. Austin,  J. Baker,  G. J. O. Beran,  K. Brandhorst,  
 S. T. Brown,  E. F. C. Byrd,  A. K. Chakraborty,  C.-L. Cheng,  
 Siu Hung Chien,  D. M. Chipman,  D. L. Crittenden,  H. Dachsel,  
 R. J. Doerksen,  A. D. Dutoi,  L. Fusti-Molnar,  W. A. Goddard III,  
 A. Golubeva-Zadorozhnaya,  S. R. Gwaltney,  G. Hawkins,  A. Heyden,  
 S. Hirata,  G. Kedziora,  F. J. Keil,  C. Kelley,  Jihan Kim,  R. A. King,  
 R. Z. Khaliullin,  P. P. Korambath,  W. Kurlancheek,  A. M. Lee,  M. S. Lee,  
 S. V. Levchenko,  Ching Yeh Lin,  D. Liotard,  R. C. Lochan,  I. Lotan,  
 P. E. Maslen,  N. Nair,  D. P. O'Neill,  D. Neuhauser,  E. Neuscamman,  
 C. M. Oana,  R. Olson,  B. Peters,  R. Peverati,  P. A. Pieniazek,  
 Y. M. Rhee,  J. Ritchie,  M. A. Rohrdanz,  E. Rosta,  N. J. Russ,  
 H. F. Schaefer III,  N. E. Schultz,  N. Shenvi,  A. C. Simmonett,  A. Sodt,  
 D. Stuck,  K. S. Thanthiriwatte,  V. Vanovschi,  Tao Wang,  A. Warshel,  
 C. F. Williams,  Q. Wu,  X. Xu,  W. Zhang

 Please cite Q-Chem as follows:
 Y. Shao et al., Mol. Phys. 113, 184-215 (2015)
 DOI: 10.1080/00268976.2014.952696

 Q-Chem 5.2.0 for Intel X86 EM64T Linux

 Parts of Q-Chem use Armadillo 8.300.2 (Tropical Shenanigans).
 http://arma.sourceforge.net/

 Q-Chem begins on Sun Sep 26 09:12:38 2021  

Host: cori01
0

     Scratch files written to /tmp/qchem38528//
 May1019 |scratch|qcdevops|jenkins|workspace|build_RNUM -1
Processing $rem in /global/common/cori/software/qchem/5.2/config/preferences:
	 MEM_TOTAL  96000 
NAlpha2: 72
NElect   72
Mult     1
Symmetry turned off for PCM/SM12/SMD calculation

 Q-Chem warning in module libgen/rem_setup.C, line 2803:

 Neither GIA nor STOLL is specified by user. Use STOLL as the default


Checking the input file for inconsistencies... 	...done.

--------------------------------------------------------------
User input:
--------------------------------------------------------------
$comment
SSI-059ARG-067GLN-2.pdb
$end

$molecule
1 1
--
1 1
C    2.181602728672   -1.964829897644    0.075787853308
C    0.070602728672   -1.605829897644    1.325787853308
N   -0.941397271328   -0.808829897644    1.604787853308
N    1.005602728672   -1.193829897644    0.480787853308
N    0.131602728672   -2.799829897644    1.884787853308
H   -1.011397271328    0.071170102356    1.107787853308
H   -1.647397271328   -1.079829897644    2.271787853308
H    0.863602728672   -0.281829897644    0.057787853308
H    0.921602728672   -3.395829897644    1.706787853308
H   -0.568397271328   -3.089829897644    2.548787853308
H    2.332602728672   -2.840829897644    0.707787853308
H    3.074602728672   -1.345829897644    0.181787853308
H    2.088542728672   -2.298539897644   -0.968232146692
--
0 1
C   -0.935397271328    2.228170102356   -2.769212146692
C   -0.606397271328    2.051170102356   -1.302212146692
O   -0.653397271328    0.946170102356   -0.764212146692
N   -0.258397271328    3.137170102356   -0.632212146692
H   -0.160397271328    2.839170102356   -3.229212146692
H   -1.881397271328    2.761170102356   -2.833212146692
H   -0.061397271328    3.039170102356    0.351787853308
H   -0.154397271328    4.041170102356   -1.073212146692
H   -1.015390271328    1.264660102356   -3.293848146692
$end

$rem
JOBTYPE			EDA
EDA2			1
method			wB97X-V
BASIS			def2-TZVPD
XC_GRID			000099000590
NL_GRID			1
UNRESTRICTED		FALSE
MAX_SCF_CYCLES		200
SYMMETRY		FALSE
SYM_IGNORE		TRUE
MEM_STATIC		2000
BASIS_LIN_DEP_THRESH 	6
THRESH 			14
SCF_CONVERGENCE 	8
SCF_PRINT_FRGM 		TRUE
SOLVENT_METHOD          SMD
$end

$SMX
SOLVENT			WATER
$END
--------------------------------------------------------------
 ----------------------------------------------------------------
             Standard Nuclear Orientation (Angstroms)
    I     Atom           X                Y                Z
 ----------------------------------------------------------------
    1      C       2.1816027287    -1.9648298976     0.0757878533
    2      C       0.0706027287    -1.6058298976     1.3257878533
    3      N      -0.9413972713    -0.8088298976     1.6047878533
    4      N       1.0056027287    -1.1938298976     0.4807878533
    5      N       0.1316027287    -2.7998298976     1.8847878533
    6      H      -1.0113972713     0.0711701024     1.1077878533
    7      H      -1.6473972713    -1.0798298976     2.2717878533
    8      H       0.8636027287    -0.2818298976     0.0577878533
    9      H       0.9216027287    -3.3958298976     1.7067878533
   10      H      -0.5683972713    -3.0898298976     2.5487878533
   11      H       2.3326027287    -2.8408298976     0.7077878533
   12      H       3.0746027287    -1.3458298976     0.1817878533
   13      H       2.0885427287    -2.2985398976    -0.9682321467
   14      C      -0.9353972713     2.2281701024    -2.7692121467
   15      C      -0.6063972713     2.0511701024    -1.3022121467
   16      O      -0.6533972713     0.9461701024    -0.7642121467
   17      N      -0.2583972713     3.1371701024    -0.6322121467
   18      H      -0.1603972713     2.8391701024    -3.2292121467
   19      H      -1.8813972713     2.7611701024    -2.8332121467
   20      H      -0.0613972713     3.0391701024     0.3517878533
   21      H      -0.1543972713     4.0411701024    -1.0732121467
   22      H      -1.0153902713     1.2646601024    -3.2938481467
 ----------------------------------------------------------------
 Nuclear Repulsion Energy =         464.62668219 hartrees
 There are       36 alpha and       36 beta electrons
 Requested basis set is def2-TZVPD
 There are 183 shells and 453 basis functions

 Total QAlloc Memory Limit  96000 MB
 Mega-Array Size      1956 MB
 MEM_STATIC part      2000 MB
 
 Citation of the SMD model:
 Marenich, A.V.; Cramer, C.J.; Truhlar, D.G.
 J. Phys. Chem. B 2009, 113, 6378-6396.
 iSolventCode=           1
 Solvent: water                                                           
 
 vradii
            1           2           3           4           5           6
    1   1.8500000   1.8500000   1.8900000   1.8900000   1.8900000   1.2000000
            7           8           9          10          11          12
    1   1.2000000   1.2000000   1.2000000   1.2000000   1.2000000   1.2000000
           13          14          15          16          17          18
    1   1.2000000   1.8500000   1.8500000   1.5200000   1.8900000   1.2000000
           19          20          21          22
    1   1.2000000   1.2000000   1.2000000   1.2000000
 Changing PCM_VDW_RADII to SMD_RADIUS
 Discretize the solute cavity surface with Lebedev spheres
	Using 110 Lebedev grid points for each H atom
	Using 194 Lebedev grid points for other atoms
	Atomic van der Waals radii will be scaled by 1.20
 Remove points where switching function is < 1.0e-08
 Keep 1593 surface tesserae and discard 1583 interior tesserae
 Molecular Surface Area = 192.835 Angst**2
 A cutoff of  1.0D-14 yielded  14771 shell pairs
 There are     91277 function pairs (    113833 Cartesian)
 Smallest overlap matrix eigenvalue = 7.27E-06

 Scale SEOQF with 1.000000e-01/1.000000e-01/1.000000e-01

 Standard Electronic Orientation quadrupole field applied
 Nucleus-field energy     =     0.0000000079 hartrees

 -----------------------------------------------------------------------
  General SCF calculation program by
  Eric Jon Sundstrom, Paul Horn, Yuezhi Mao, Dmitri Zuev, Alec White,
  David Stuck, Shaama M.S., Shane Yost, Joonho Lee, David Small,
  Daniel Levine, Susi Lehtola, Hugh Burton, Evgeny Epifanovsky
 -----------------------------------------------------------------------
================================================================
                 ALMO-EDA with the EDA2 driver                  
================================================================
 The second-generation ALMO-EDA (for DFT):                      
 P. R. Horn, Y. Mao and M. Head-Gordon, PCCP, 18, 23067 (2016)  
 Decomposition of the frozen energy:                            
 P. R. Horn, Y. Mao and M. Head-Gordon, JCP, 144, 114107 (2016) 
 FERF model for polarization:                                   
 P. R. Horn and M. Head-Gordon, JCP, 143, 114111 (2015)         
Using eda2 option set 1
Option set summary: Frozen orbital wavefunction, initial wavefunction decomposition, and nDQ polarization.
--------------------------------
Printing EDA Options
--------------------------------
eda_child_super_basis      0
fragmo_guess_mode          0
child_mp                   1
child_mp_orders            232
cls_elec                   1
cls_disp                   0
scfmi_mode                 1
scfmi_occs                 0
scfmi_virts                0
frz_relax                  0
frz_relax_method           0
dc_pen_start               0
dc_pen_conv                0
dc_pen_increment           0
dc_pen_steps               0
dc_pen_thresh_factor       0
dc_pen_pre_newton_thresh   0
frz_ortho_decomp           1
frz_ortho_decomp_conv      6
frgm_method                2
scfmi_freeze_ss            0
separate_rehyb             0
plot_diff_den              0
eda_nocv                   0
eda_vct_relax              1
disp_free_x                0
disp_free_c                0
eda_bsse                   0
eda_pct_a                  0
eda_covp                   0
--------------------------------
Attempting to make child job directory: /tmp/qchem38528//Frg1/
Attempting to make child job directory: /tmp/qchem38528//Frg2/
Creating input file /tmp/qchem38528/Frg1.input
using default PutDataFrgm: nothing
calling putenv with: QCSCRATCH=/tmp/qchem38528/ 
calling putenv with: QCLOCALSCR=/tmp/qchem38528/ 
Spawning Job For Fragment 0
                  Welcome to Q-Chem
     A Quantum Leap Into The Future Of Chemistry


 Q-Chem 5.2, Q-Chem, Inc., Pleasanton, CA (2019)

 License issued to: National Energy Research Scientific Computing Center

 Yihan Shao,  Zhengting Gan,  E. Epifanovsky,  A. T. B. Gilbert,  M. Wormit,  
 J. Kussmann,  A. W. Lange,  A. Behn,  Jia Deng,  Xintian Feng,  D. Ghosh,  
 M. Goldey,  P. R. Horn,  L. D. Jacobson,  I. Kaliman,  T. Kus,  A. Landau,  
 Jie Liu,  E. I. Proynov,  R. M. Richard,  R. P. Steele,  E. J. Sundstrom,  
 H. L. Woodcock III,  P. M. Zimmerman,  D. Zuev,  B. Albrecht,  E. Alguire,  
 S. A. Baeppler,  D. Barton,  Z. Benda,  Y. A. Bernard,  E. J. Berquist,  
 K. B. Bravaya,  H. Burton,  D. Casanova,  Chun-Min Chang,  Yunqing Chen,  
 A. Chien,  K. D. Closser,  M. P. Coons,  S. Coriani,  S. Dasgupta,  
 A. L. Dempwolff,  M. Diedenhofen,  Hainam Do,  R. G. Edgar,  Po-Tung Fang,  
 S. Faraji,  S. Fatehi,  Qingguo Feng,  K. D. Fenk,  J. Fosso-Tande,  
 J. Gayvert,  Qinghui Ge,  A. Ghysels,  G. Gidofalvi,  J. Gomes,  
 J. Gonthier,  A. Gunina,  D. Hait,  M. W. D. Hanson-Heine,  
 P. H. P. Harbach,  A. W. Hauser,  M. F. Herbst,  J. E. Herr,  
 E. G. Hohenstein,  Z. C. Holden,  Kerwin Hui,  B. C. Huynh,  T.-C. Jagau,  
 Hyunjun Ji,  B. Kaduk,  K. Khistyaev,  Jaehoon Kim,  P. Klunzinger,  K. Koh,  
 D. Kosenkov,  L. Koulias,  T. Kowalczyk,  C. M. Krauter,  A. Kunitsa,  
 Ka Un Lao,  A. Laurent,  K. V. Lawler,  Joonho Lee,  D. Lefrancois,  
 S. Lehtola,  D. S. Levine,  Yi-Pei Li,  You-Sheng Lin,  Fenglai Liu,  
 E. Livshits,  A. Luenser,  P. Manohar,  E. Mansoor,  S. F. Manzer,  
 Shan-Ping Mao,  Yuezhi Mao,  N. Mardirossian,  A. V. Marenich,  
 T. Markovich,  L. A. Martinez-Martinez,  S. A. Maurer,  N. J. Mayhall,  
 S. C. McKenzie,  J.-M. Mewes,  P. Morgante,  A. F. Morrison,  
 J. W. Mullinax,  K. Nanda,  T. S. Nguyen-Beck,  R. Olivares-Amaya,  
 J. A. Parkhill,  Zheng Pei,  T. M. Perrine,  F. Plasser,  P. Pokhilko,  
 S. Prager,  A. Prociuk,  E. Ramos,  D. R. Rehn,  F. Rob,  M. Scheurer,  
 M. Schneider,  N. Sergueev,  S. M. Sharada,  S. Sharma,  D. W. Small,  
 T. Stauch,  T. Stein,  Yu-Chuan Su,  A. J. W. Thom,  A. Tkatchenko,  
 T. Tsuchimochi,  N. M. Tubman,  L. Vogt,  M. L. Vidal,  O. Vydrov,  
 M. A. Watson,  J. Wenzel,  M. de Wergifosse,  T. A. Wesolowski,  A. White,  
 J. Witte,  A. Yamada,  Jun Yang,  K. Yao,  S. Yeganeh,  S. R. Yost,  
 Zhi-Qiang You,  A. Zech,  Igor Ying Zhang,  Xing Zhang,  Yan Zhao,  
 Ying Zhu,  B. R. Brooks,  G. K. L. Chan,  C. J. Cramer,  M. S. Gordon,  
 W. J. Hehre,  A. Klamt,  M. W. Schmidt,  C. D. Sherrill,  D. G. Truhlar,  
 A. Aspuru-Guzik,  R. Baer,  A. T. Bell,  N. A. Besley,  Jeng-Da Chai,  
 A. E. DePrince, III,  R. A. DiStasio Jr.,  A. Dreuw,  B. D. Dunietz,  
 T. R. Furlani,  Chao-Ping Hsu,  Yousung Jung,  Jing Kong,  D. S. Lambrecht,  
 WanZhen Liang,  C. Ochsenfeld,  V. A. Rassolov,  L. V. Slipchenko,  
 J. E. Subotnik,  T. Van Voorhis,  J. M. Herbert,  A. I. Krylov,  
 P. M. W. Gill,  M. Head-Gordon

 Contributors to earlier versions of Q-Chem not listed above: 
 R. D. Adamson,  B. Austin,  J. Baker,  G. J. O. Beran,  K. Brandhorst,  
 S. T. Brown,  E. F. C. Byrd,  A. K. Chakraborty,  C.-L. Cheng,  
 Siu Hung Chien,  D. M. Chipman,  D. L. Crittenden,  H. Dachsel,  
 R. J. Doerksen,  A. D. Dutoi,  L. Fusti-Molnar,  W. A. Goddard III,  
 A. Golubeva-Zadorozhnaya,  S. R. Gwaltney,  G. Hawkins,  A. Heyden,  
 S. Hirata,  G. Kedziora,  F. J. Keil,  C. Kelley,  Jihan Kim,  R. A. King,  
 R. Z. Khaliullin,  P. P. Korambath,  W. Kurlancheek,  A. M. Lee,  M. S. Lee,  
 S. V. Levchenko,  Ching Yeh Lin,  D. Liotard,  R. C. Lochan,  I. Lotan,  
 P. E. Maslen,  N. Nair,  D. P. O'Neill,  D. Neuhauser,  E. Neuscamman,  
 C. M. Oana,  R. Olson,  B. Peters,  R. Peverati,  P. A. Pieniazek,  
 Y. M. Rhee,  J. Ritchie,  M. A. Rohrdanz,  E. Rosta,  N. J. Russ,  
 H. F. Schaefer III,  N. E. Schultz,  N. Shenvi,  A. C. Simmonett,  A. Sodt,  
 D. Stuck,  K. S. Thanthiriwatte,  V. Vanovschi,  Tao Wang,  A. Warshel,  
 C. F. Williams,  Q. Wu,  X. Xu,  W. Zhang

 Please cite Q-Chem as follows:
 Y. Shao et al., Mol. Phys. 113, 184-215 (2015)
 DOI: 10.1080/00268976.2014.952696

 Q-Chem 5.2.0 for Intel X86 EM64T Linux

 Parts of Q-Chem use Armadillo 8.300.2 (Tropical Shenanigans).
 http://arma.sourceforge.net/

 Q-Chem begins on Sun Sep 26 09:12:41 2021  

Host: cori01
0

     Scratch files written to /tmp/qchem38528//Frg1//
 May1019 |scratch|qcdevops|jenkins|workspace|build_RNUM -1
Processing $rem in /global/common/cori/software/qchem/5.2/config/preferences:
	 MEM_TOTAL  96000 
NAlpha2: 40
NElect   40
Mult     1
Symmetry turned off for PCM/SM12/SMD calculation

Checking the input file for inconsistencies... 	...done.

--------------------------------------------------------------
User input:
--------------------------------------------------------------
$molecule
1 1
 6	2.1816027287	-1.9648298976	0.0757878533
 6	0.0706027287	-1.6058298976	1.3257878533
 7	-0.9413972713	-0.8088298976	1.6047878533
 7	1.0056027287	-1.1938298976	0.4807878533
 7	0.1316027287	-2.7998298976	1.8847878533
 1	-1.0113972713	0.0711701024	1.1077878533
 1	-1.6473972713	-1.0798298976	2.2717878533
 1	0.8636027287	-0.2818298976	0.0577878533
 1	0.9216027287	-3.3958298976	1.7067878533
 1	-0.5683972713	-3.0898298976	2.5487878533
 1	2.3326027287	-2.8408298976	0.7077878533
 1	3.0746027287	-1.3458298976	0.1817878533
 1	2.0885427287	-2.2985398976	-0.9682321467
$end
$rem
EDA2		1
METHOD		WB97X-V
BASIS		DEF2-TZVPD
XC_GRID		000099000590
NL_GRID		1
UNRESTRICTED		FALSE
MAX_SCF_CYCLES		200
SYMMETRY		FALSE
SYM_IGNORE		TRUE
BASIS_LIN_DEP_THRESH		6
THRESH		14
SCF_CONVERGENCE		8
SCF_PRINT_FRGM		TRUE
SOLVENT_METHOD		SMD
!required keywords
JOBTYPE		SP
SYM_IGNORE		TRUE
SUBSYSTEM		TRUE
GEN_SCFMAN		TRUE
CHILD_INSTRUCTION		2
SYM_IGNORE		TRUE
SCFMI		0
RI_K 0		
PARI_K 0		
MIN_PARI_K 0		
IARI_K 0		
OCC_RI_K 0		
PURECART		1111
MEM_STATIC		2000
MEM_TOTAL		96000
GUI		0
CHILD_MP		1
CHILD_MP_ORDERS		232
FRZ_RELAX		0
FRZ_RELAX_METHOD		0
EDA_CLS_ELEC		1
EDA_CLS_DISP		0
FRZ_ORTHO_DECOMP		1
EDA2		FALSE
FRGM_METHOD		FALSE
CIS_N_ROOTS  0
LOCAL_CIS    0
CIS_RLX_DNS  1
$end
$smx
SOLVENT			WATER
$end
--------------------------------------------------------------
 ----------------------------------------------------------------
             Standard Nuclear Orientation (Angstroms)
    I     Atom           X                Y                Z
 ----------------------------------------------------------------
    1      C       2.1816027287    -1.9648298976     0.0757878533
    2      C       0.0706027287    -1.6058298976     1.3257878533
    3      N      -0.9413972713    -0.8088298976     1.6047878533
    4      N       1.0056027287    -1.1938298976     0.4807878533
    5      N       0.1316027287    -2.7998298976     1.8847878533
    6      H      -1.0113972713     0.0711701024     1.1077878533
    7      H      -1.6473972713    -1.0798298976     2.2717878533
    8      H       0.8636027287    -0.2818298976     0.0577878533
    9      H       0.9216027287    -3.3958298976     1.7067878533
   10      H      -0.5683972713    -3.0898298976     2.5487878533
   11      H       2.3326027287    -2.8408298976     0.7077878533
   12      H       3.0746027287    -1.3458298976     0.1817878533
   13      H       2.0885427287    -2.2985398976    -0.9682321467
 ----------------------------------------------------------------
 Nuclear Repulsion Energy =         194.21743440 hartrees
 There are       20 alpha and       20 beta electrons
 Requested basis set is def2-TZVPD
 There are 105 shells and 257 basis functions

 Total QAlloc Memory Limit  96000 MB
 Mega-Array Size      1956 MB
 MEM_STATIC part      2000 MB
 
 Citation of the SMD model:
 Marenich, A.V.; Cramer, C.J.; Truhlar, D.G.
 J. Phys. Chem. B 2009, 113, 6378-6396.
 iSolventCode=           1
 Solvent: water                                                           
 
 vradii
            1           2           3           4           5           6
    1   1.8500000   1.8500000   1.8900000   1.8900000   1.8900000   1.2000000
            7           8           9          10          11          12
    1   1.2000000   1.2000000   1.2000000   1.2000000   1.2000000   1.2000000
           13
    1   1.2000000
 Changing PCM_VDW_RADII to SMD_RADIUS
 Discretize the solute cavity surface with Lebedev spheres
	Using 110 Lebedev grid points for each H atom
	Using 194 Lebedev grid points for other atoms
	Atomic van der Waals radii will be scaled by 1.20
 Remove points where switching function is < 1.0e-08
 Keep 913 surface tesserae and discard 937 interior tesserae
 Molecular Surface Area = 113.219 Angst**2

                       Distance Matrix (Angstroms)
             C (  1)   C (  2)   N (  3)   N (  4)   N (  5)   H (  6)
   C (  2)  2.479456
   N (  3)  3.664329  1.318027
   N (  4)  1.463367  1.325894  2.280879
   N (  5)  2.858707  1.319787  2.278993  2.305283
   H (  6)  3.924993  2.007630  1.013069  2.462040  3.186349
   H (  7)  4.501875  2.030546  1.008348  3.202981  2.504598  1.756187
   H (  8)  2.137741  1.997411  2.434946  1.015301  3.195947  2.177782
   H (  9)  2.509088  2.018282  3.189630  2.521693  1.005485  4.014396
   H ( 10)  3.865728  2.026402  2.496643  3.216973  1.007470  3.502092
   H ( 11)  1.090688  2.650244  3.956350  2.127220  2.496279  4.452199
   H ( 12)  1.091717  3.224958  4.294363  2.096012  3.698050  4.422755
   H ( 13)  1.100000  3.132803  4.245021  2.119623  3.495802  4.419843
             H (  7)   H (  8)   H (  9)   H ( 10)   H ( 11)   H ( 12)
   H (  8)  3.441471
   H (  9)  3.504689  3.524140
   H ( 10)  2.298058  4.017533  1.738591
   H ( 11)  4.624675  3.021414  1.815750  3.444863
   H ( 12)  5.170700  2.456826  3.341188  4.681418  1.749933
   H ( 13)  5.093155  2.572997  3.117936  4.478270  1.778394  1.789558

 
 A cutoff of  1.0D-14 yielded   5438 shell pairs
 There are     33164 function pairs (     41497 Cartesian)
 Smallest overlap matrix eigenvalue = 1.48E-05

 Scale SEOQF with 1.000000e-01/1.000000e-01/1.000000e-01

 Standard Electronic Orientation quadrupole field applied
 Nucleus-field energy     =     0.0000000050 hartrees
 Guess from superposition of atomic densities
 Warning:  Energy on first SCF cycle will be non-variational
 SAD guess density has 40.388232 electrons

 -----------------------------------------------------------------------
  General SCF calculation program by
  Eric Jon Sundstrom, Paul Horn, Yuezhi Mao, Dmitri Zuev, Alec White,
  David Stuck, Shaama M.S., Shane Yost, Joonho Lee, David Small,
  Daniel Levine, Susi Lehtola, Hugh Burton, Evgeny Epifanovsky
 -----------------------------------------------------------------------
 Exchange:     0.1670 Hartree-Fock + 1.0000 wB97X-V + LR-HF
 Correlation:  1.0000 wB97X-V
 Using Euler-Maclaurin-Lebedev (99,590) quadrature formula
 Nonlocal Correlation:  VV10 with C = 0.0100 and b = 6.00 and scale = 1.00000
 Grid used for NLC:  SG-1 standard quadrature
Energy prior to optimization (guess energy) = -244.724622241712
Begin Timing: Total SCF Calculation
begin iterations for algorithm: DIIS         
the SCF tolerance is set to 1.00e-08
    1    -244.7246222417      7.93e-03     00000 
    2    -244.9651050677      6.22e-03     00000 
    3    -245.2038480984      3.26e-04     00000 
    4    -245.2047935202      1.67e-04     00000 
    5    -245.2050148544      4.50e-05     00000 
    6    -245.2050325696      1.94e-05     00000 
    7    -245.2050356601      3.33e-06     00000 
    8    -245.2050358504      9.35e-07     00000 
    9    -245.2050358629      3.76e-07     00000 
   10    -245.2050358653      8.83e-08     00000 
   11    -245.2050358655      4.46e-08     00000 
   12    -245.2050358655      1.33e-08     00000 
   13    -245.2050358655      2.08e-09     00000 Convergence criterion met
Timing for Total SCF: 750.00s (wall), 1490.03s (cpu)
(3)  G-ENP(liq) elect-nuc-pol free energy of system     -245.205035866 a.u.
(4)  G-CDS(liq) cavity-dispersion-solvent structure 
     free energy                                                2.8199 kcal/mol
(6)  G-S(liq) free energy of system                     -245.200542053 a.u.
E_pcm = -0.1085739755
E_cds = 0.0044938127
Multipole orders to be included
        2
        3
computing dipole RHS
computing quadrupole RHS
total number of RHS in solve_reponses: 8
RHS batch sizes
        8
Beginning Block Conjugate Gradient Iterations. Batch Number: 0
computing hessian-vector products by finite difference
              1      4.82e-01     00000 Conjugate Gradient Iteration
computing hessian-vector products by finite difference
              2      1.82e-01     00000 Conjugate Gradient Iteration
computing hessian-vector products by finite difference
              3      4.77e-02     00000 Conjugate Gradient Iteration
computing hessian-vector products by finite difference
              4      1.28e-02     00000 Conjugate Gradient Iteration
computing hessian-vector products by finite difference
              5      1.78e-03     00000 Conjugate Gradient Iteration
computing hessian-vector products by finite difference
              6      3.00e-04     00000 Conjugate Gradient Iteration
computing hessian-vector products by finite difference
              7      3.86e-05     00000 Conjugate Gradient Iteration
computing hessian-vector products by finite difference
              8      5.20e-06     00000 Conjugate Gradient Iteration
computing hessian-vector products by finite difference
              9      8.45e-07     00000 Conjugate Gradient Iteration
computing hessian-vector products by finite difference
             10      1.08e-07     00000 Conjugate Gradient Iteration
computing hessian-vector products by finite difference
             11      2.49e-08     00000 Conjugate Gradient Iteration
computing hessian-vector products by finite difference
             12      3.53e-09     00000 CG Converged
batch 0 complete
Done Calculating Responses
TESTING ORTHOGONALIZATION OF MULTIPOLE BASIS
Multipole virts passed orthogonality test
Virts Per Order
           60
          100
 
 --------------------------------------------------------------
 
                    Orbital Energies (a.u.)
 --------------------------------------------------------------
 
 Alpha MOs
 -- Occupied --
-14.4559 -14.4468 -14.4455 -10.4223 -10.3063  -1.1736  -1.0550  -1.0429
 -0.8536  -0.7652  -0.7226  -0.6893  -0.6171  -0.6112  -0.5938  -0.5716
 -0.5278  -0.5073  -0.3993  -0.3754
 -- Virtual --
  0.0586   0.0854   0.0986   0.1052   0.1232   0.1286   0.1394   0.1514
  0.1722   0.1810   0.1937   0.2003   0.2038   0.2131   0.2211   0.2360
  0.2413   0.2466   0.2495   0.2705   0.2832   0.2871   0.3036   0.3061
  0.3126   0.3209   0.3223   0.3233   0.3338   0.3500   0.3539   0.3644
  0.3649   0.3691   0.3777   0.3872   0.4135   0.4142   0.4231   0.4321
  0.4382   0.4448   0.4608   0.4731   0.4781   0.4866   0.4906   0.4996
  0.5141   0.5159   0.5200   0.5266   0.5369   0.5409   0.5483   0.5586
  0.5614   0.5773   0.5886   0.5901   0.6187   0.6226   0.6332   0.6491
  0.6633   0.6799   0.6995   0.7058   0.7089   0.7237   0.7467   0.7701
  0.8008   0.8030   0.8113   0.8250   0.8409   0.8509   0.8530   0.8716
  0.8770   0.8916   0.8965   0.9328   0.9448   0.9755   0.9981   1.0013
  1.0462   1.0632   1.0877   1.1030   1.1059   1.1180   1.1403   1.1532
  1.1641   1.1823   1.2262   1.2475   1.2795   1.3451   1.3839   1.4282
  1.4344   1.4483   1.4865   1.5037   1.5547   1.5757   1.6437   1.6683
  1.6869   1.7049   1.7501   1.7867   1.8136   1.8435   1.8856   1.8899
  1.9088   1.9233   1.9429   1.9868   2.0048   2.0164   2.0373   2.0713
  2.0879   2.1083   2.1879   2.2214   2.2437   2.2459   2.2659   2.2933
  2.3173   2.3699   2.3736   2.4037   2.4383   2.4899   2.5160   2.5363
  2.5782   2.6036   2.6155   2.6459   2.6558   2.6716   2.7095   2.7333
  2.7582   2.8140   2.8498   2.8712   2.8991   2.9213   2.9470   2.9700
  3.0537   3.1380   3.1436   3.1562   3.1908   3.1962   3.2297   3.2411
  3.2884   3.2941   3.3082   3.3160   3.3649   3.3822   3.4476   3.4610
  3.5153   3.5293   3.5491   3.5712   3.5891   3.6691   3.7337   3.7488
  3.8107   3.8903   3.9117   4.0086   4.0560   4.1427   4.1858   4.2286
  4.2962   4.3104   4.3215   4.3685   4.4260   4.5398   4.5681   4.6106
  4.6663   4.8291   4.8609   4.8733   4.9217   4.9935   5.0329   5.0485
  5.1135   5.1246   5.1414   5.1811   5.2081   5.2275   5.2830   5.3622
  5.3978   5.4052   5.4530   5.4732   5.4927   5.5021   5.5861   5.6554
  5.7160   5.7783   5.8050   5.9100   6.1386   6.2101   6.3846   6.4943
 22.6542  23.6502  32.3399  32.4488  32.8296
 --------------------------------------------------------------
 
          Ground-State Mulliken Net Atomic Charges

     Atom                 Charge (a.u.)
  ----------------------------------------
      1 C                    -0.764816
      2 C                     0.505428
      3 N                    -0.306655
      4 N                    -0.121421
      5 N                    -0.264637
      6 H                     0.252031
      7 H                     0.239377
      8 H                     0.259934
      9 H                     0.151945
     10 H                     0.246070
     11 H                     0.301574
     12 H                     0.256513
     13 H                     0.244657
  ----------------------------------------
  Sum of atomic charges =     1.000000

 -----------------------------------------------------------------
                    Cartesian Multipole Moments
 -----------------------------------------------------------------
    Charge (ESU x 10^10)
                 4.8032
    Dipole Moment (Debye)
         X       0.8428      Y      -7.7144      Z       6.0697
       Tot       9.8521
    Quadrupole Moments (Debye-Ang)
        XX     -19.0346     XY      -4.9487     YY      -6.8371
        XZ      -5.9557     YZ     -14.9227     ZZ     -16.9918
    Octopole Moments (Debye-Ang^2)
       XXX     -40.3767    XXY      32.3170    XYY      -0.8486
       YYY      81.2857    XXZ     -19.3254    XYZ       5.1697
       YYZ      14.5524    XZZ     -32.5717    YZZ      15.5453
       ZZZ     -65.8523
    Hexadecapole Moments (Debye-Ang^3)
      XXXX    -278.0514   XXXY      86.9757   XXYY    -117.4968
      XYYY      56.5262   YYYY    -426.4109   XXXZ       1.9717
      XXYZ      34.9544   XYYZ       2.6652   YYYZ      19.7987
      XXZZ     -82.6946   XYZZ      59.4986   YYZZ     -58.3119
      XZZZ     -29.9534   YZZZ      88.9400   ZZZZ    -265.6052
 -----------------------------------------------------------------
Archival summary:
1\1\nid00535\SP\ProcedureUnspecified\BasisUnspecified\328(1+,1)\meili\SunSep2612:54:192021SunSep2612:54:192021\0\\#,ProcedureUnspecified,BasisUnspecified,\\1,1\C\N,1,1.31803\H,2,1.00835,1,121.004\H,2,1.01307,1,118.325,3,-177.868,0\N,1,1.31979,2,119.531,3,2.88683,0\H,5,1.00548,1,119.841,2,-177.334,0\H,5,1.00747,1,120.494,2,-2.44284,0\N,1,1.32589,2,119.239,3,-177.5,0\H,8,1.0153,1,116.488,2,-2.54621,0\C,8,1.46337,1,125.406,2,-179.947,0\H,10,1.09069,8,111.966,1,-12.5138,0\H,10,1.09172,8,109.375,1,-130.457,0\H,10,1.1,8,110.764,1,108.795,0\\\@

 Total job time:  13298.48s(wall), 26263.27s(cpu) 
 Sun Sep 26 12:54:20 2021

        *************************************************************
        *                                                           *
        *  Thank you very much for using Q-Chem.  Have a nice day.  *
        *                                                           *
        *************************************************************


Done Job For Fragment 0
calling putenv with: QCSCRATCH=/global/cscratch1/sd/meili 
calling putenv with: QCLOCALSCR=/tmp 
calling putenv with: QCTHREADS=32 
Creating input file /tmp/qchem38528/Frg2.input
using default PutDataFrgm: nothing
calling putenv with: QCSCRATCH=/tmp/qchem38528/ 
calling putenv with: QCLOCALSCR=/tmp/qchem38528/ 
Spawning Job For Fragment 1
                  Welcome to Q-Chem
     A Quantum Leap Into The Future Of Chemistry


 Q-Chem 5.2, Q-Chem, Inc., Pleasanton, CA (2019)

 License issued to: National Energy Research Scientific Computing Center

 Yihan Shao,  Zhengting Gan,  E. Epifanovsky,  A. T. B. Gilbert,  M. Wormit,  
 J. Kussmann,  A. W. Lange,  A. Behn,  Jia Deng,  Xintian Feng,  D. Ghosh,  
 M. Goldey,  P. R. Horn,  L. D. Jacobson,  I. Kaliman,  T. Kus,  A. Landau,  
 Jie Liu,  E. I. Proynov,  R. M. Richard,  R. P. Steele,  E. J. Sundstrom,  
 H. L. Woodcock III,  P. M. Zimmerman,  D. Zuev,  B. Albrecht,  E. Alguire,  
 S. A. Baeppler,  D. Barton,  Z. Benda,  Y. A. Bernard,  E. J. Berquist,  
 K. B. Bravaya,  H. Burton,  D. Casanova,  Chun-Min Chang,  Yunqing Chen,  
 A. Chien,  K. D. Closser,  M. P. Coons,  S. Coriani,  S. Dasgupta,  
 A. L. Dempwolff,  M. Diedenhofen,  Hainam Do,  R. G. Edgar,  Po-Tung Fang,  
 S. Faraji,  S. Fatehi,  Qingguo Feng,  K. D. Fenk,  J. Fosso-Tande,  
 J. Gayvert,  Qinghui Ge,  A. Ghysels,  G. Gidofalvi,  J. Gomes,  
 J. Gonthier,  A. Gunina,  D. Hait,  M. W. D. Hanson-Heine,  
 P. H. P. Harbach,  A. W. Hauser,  M. F. Herbst,  J. E. Herr,  
 E. G. Hohenstein,  Z. C. Holden,  Kerwin Hui,  B. C. Huynh,  T.-C. Jagau,  
 Hyunjun Ji,  B. Kaduk,  K. Khistyaev,  Jaehoon Kim,  P. Klunzinger,  K. Koh,  
 D. Kosenkov,  L. Koulias,  T. Kowalczyk,  C. M. Krauter,  A. Kunitsa,  
 Ka Un Lao,  A. Laurent,  K. V. Lawler,  Joonho Lee,  D. Lefrancois,  
 S. Lehtola,  D. S. Levine,  Yi-Pei Li,  You-Sheng Lin,  Fenglai Liu,  
 E. Livshits,  A. Luenser,  P. Manohar,  E. Mansoor,  S. F. Manzer,  
 Shan-Ping Mao,  Yuezhi Mao,  N. Mardirossian,  A. V. Marenich,  
 T. Markovich,  L. A. Martinez-Martinez,  S. A. Maurer,  N. J. Mayhall,  
 S. C. McKenzie,  J.-M. Mewes,  P. Morgante,  A. F. Morrison,  
 J. W. Mullinax,  K. Nanda,  T. S. Nguyen-Beck,  R. Olivares-Amaya,  
 J. A. Parkhill,  Zheng Pei,  T. M. Perrine,  F. Plasser,  P. Pokhilko,  
 S. Prager,  A. Prociuk,  E. Ramos,  D. R. Rehn,  F. Rob,  M. Scheurer,  
 M. Schneider,  N. Sergueev,  S. M. Sharada,  S. Sharma,  D. W. Small,  
 T. Stauch,  T. Stein,  Yu-Chuan Su,  A. J. W. Thom,  A. Tkatchenko,  
 T. Tsuchimochi,  N. M. Tubman,  L. Vogt,  M. L. Vidal,  O. Vydrov,  
 M. A. Watson,  J. Wenzel,  M. de Wergifosse,  T. A. Wesolowski,  A. White,  
 J. Witte,  A. Yamada,  Jun Yang,  K. Yao,  S. Yeganeh,  S. R. Yost,  
 Zhi-Qiang You,  A. Zech,  Igor Ying Zhang,  Xing Zhang,  Yan Zhao,  
 Ying Zhu,  B. R. Brooks,  G. K. L. Chan,  C. J. Cramer,  M. S. Gordon,  
 W. J. Hehre,  A. Klamt,  M. W. Schmidt,  C. D. Sherrill,  D. G. Truhlar,  
 A. Aspuru-Guzik,  R. Baer,  A. T. Bell,  N. A. Besley,  Jeng-Da Chai,  
 A. E. DePrince, III,  R. A. DiStasio Jr.,  A. Dreuw,  B. D. Dunietz,  
 T. R. Furlani,  Chao-Ping Hsu,  Yousung Jung,  Jing Kong,  D. S. Lambrecht,  
 WanZhen Liang,  C. Ochsenfeld,  V. A. Rassolov,  L. V. Slipchenko,  
 J. E. Subotnik,  T. Van Voorhis,  J. M. Herbert,  A. I. Krylov,  
 P. M. W. Gill,  M. Head-Gordon

 Contributors to earlier versions of Q-Chem not listed above: 
 R. D. Adamson,  B. Austin,  J. Baker,  G. J. O. Beran,  K. Brandhorst,  
 S. T. Brown,  E. F. C. Byrd,  A. K. Chakraborty,  C.-L. Cheng,  
 Siu Hung Chien,  D. M. Chipman,  D. L. Crittenden,  H. Dachsel,  
 R. J. Doerksen,  A. D. Dutoi,  L. Fusti-Molnar,  W. A. Goddard III,  
 A. Golubeva-Zadorozhnaya,  S. R. Gwaltney,  G. Hawkins,  A. Heyden,  
 S. Hirata,  G. Kedziora,  F. J. Keil,  C. Kelley,  Jihan Kim,  R. A. King,  
 R. Z. Khaliullin,  P. P. Korambath,  W. Kurlancheek,  A. M. Lee,  M. S. Lee,  
 S. V. Levchenko,  Ching Yeh Lin,  D. Liotard,  R. C. Lochan,  I. Lotan,  
 P. E. Maslen,  N. Nair,  D. P. O'Neill,  D. Neuhauser,  E. Neuscamman,  
 C. M. Oana,  R. Olson,  B. Peters,  R. Peverati,  P. A. Pieniazek,  
 Y. M. Rhee,  J. Ritchie,  M. A. Rohrdanz,  E. Rosta,  N. J. Russ,  
 H. F. Schaefer III,  N. E. Schultz,  N. Shenvi,  A. C. Simmonett,  A. Sodt,  
 D. Stuck,  K. S. Thanthiriwatte,  V. Vanovschi,  Tao Wang,  A. Warshel,  
 C. F. Williams,  Q. Wu,  X. Xu,  W. Zhang

 Please cite Q-Chem as follows:
 Y. Shao et al., Mol. Phys. 113, 184-215 (2015)
 DOI: 10.1080/00268976.2014.952696

 Q-Chem 5.2.0 for Intel X86 EM64T Linux

 Parts of Q-Chem use Armadillo 8.300.2 (Tropical Shenanigans).
 http://arma.sourceforge.net/

 Q-Chem begins on Sun Sep 26 12:54:24 2021  

Host: cori01
0

     Scratch files written to /tmp/qchem38528//Frg2//
 May1019 |scratch|qcdevops|jenkins|workspace|build_RNUM -1
Processing $rem in /global/common/cori/software/qchem/5.2/config/preferences:
	 MEM_TOTAL  96000 
NAlpha2: 32
NElect   32
Mult     1
Symmetry turned off for PCM/SM12/SMD calculation

Checking the input file for inconsistencies... 	...done.

--------------------------------------------------------------
User input:
--------------------------------------------------------------
$molecule
0 1
 6	-0.9353972713	2.2281701024	-2.7692121467
 6	-0.6063972713	2.0511701024	-1.3022121467
 8	-0.6533972713	0.9461701024	-0.7642121467
 7	-0.2583972713	3.1371701024	-0.6322121467
 1	-0.1603972713	2.8391701024	-3.2292121467
 1	-1.8813972713	2.7611701024	-2.8332121467
 1	-0.0613972713	3.0391701024	0.3517878533
 1	-0.1543972713	4.0411701024	-1.0732121467
 1	-1.0153902713	1.2646601024	-3.2938481467
$end
$rem
EDA2		1
METHOD		WB97X-V
BASIS		DEF2-TZVPD
XC_GRID		000099000590
NL_GRID		1
UNRESTRICTED		FALSE
MAX_SCF_CYCLES		200
SYMMETRY		FALSE
SYM_IGNORE		TRUE
BASIS_LIN_DEP_THRESH		6
THRESH		14
SCF_CONVERGENCE		8
SCF_PRINT_FRGM		TRUE
SOLVENT_METHOD		SMD
!required keywords
JOBTYPE		SP
SYM_IGNORE		TRUE
SUBSYSTEM		TRUE
GEN_SCFMAN		TRUE
CHILD_INSTRUCTION		2
SYM_IGNORE		TRUE
SCFMI		0
RI_K 0		
PARI_K 0		
MIN_PARI_K 0		
IARI_K 0		
OCC_RI_K 0		
PURECART		1111
MEM_STATIC		2000
MEM_TOTAL		96000
GUI		0
CHILD_MP		1
CHILD_MP_ORDERS		232
FRZ_RELAX		0
FRZ_RELAX_METHOD		0
EDA_CLS_ELEC		1
EDA_CLS_DISP		0
FRZ_ORTHO_DECOMP		1
EDA2		FALSE
FRGM_METHOD		FALSE
CIS_N_ROOTS  0
LOCAL_CIS    0
CIS_RLX_DNS  1
$end
$smx
SOLVENT			WATER
$end
--------------------------------------------------------------
 ----------------------------------------------------------------
             Standard Nuclear Orientation (Angstroms)
    I     Atom           X                Y                Z
 ----------------------------------------------------------------
    1      C      -0.9353972713     2.2281701024    -2.7692121467
    2      C      -0.6063972713     2.0511701024    -1.3022121467
    3      O      -0.6533972713     0.9461701024    -0.7642121467
    4      N      -0.2583972713     3.1371701024    -0.6322121467
    5      H      -0.1603972713     2.8391701024    -3.2292121467
    6      H      -1.8813972713     2.7611701024    -2.8332121467
    7      H      -0.0613972713     3.0391701024     0.3517878533
    8      H      -0.1543972713     4.0411701024    -1.0732121467
    9      H      -1.0153902713     1.2646601024    -3.2938481467
 ----------------------------------------------------------------
 Nuclear Repulsion Energy =         122.42200699 hartrees
 There are       16 alpha and       16 beta electrons
 Requested basis set is def2-TZVPD
 There are 78 shells and 196 basis functions

 Total QAlloc Memory Limit  96000 MB
 Mega-Array Size      1956 MB
 MEM_STATIC part      2000 MB
 
 Citation of the SMD model:
 Marenich, A.V.; Cramer, C.J.; Truhlar, D.G.
 J. Phys. Chem. B 2009, 113, 6378-6396.
 iSolventCode=           1
 Solvent: water                                                           
 
 vradii
            1           2           3           4           5           6
    1   1.8500000   1.8500000   1.5200000   1.8900000   1.2000000   1.2000000
            7           8           9
    1   1.2000000   1.2000000   1.2000000
 Changing PCM_VDW_RADII to SMD_RADIUS
 Discretize the solute cavity surface with Lebedev spheres
	Using 110 Lebedev grid points for each H atom
	Using 194 Lebedev grid points for other atoms
	Atomic van der Waals radii will be scaled by 1.20
 Remove points where switching function is < 1.0e-08
 Keep 727 surface tesserae and discard 599 interior tesserae
 Molecular Surface Area = 89.997 Angst**2

                       Distance Matrix (Angstroms)
             C (  1)   C (  2)   O (  3)   N (  4)   H (  5)   H (  6)
   C (  2)  1.513823
   O (  3)  2.396471  1.229910
   N (  4)  2.418962  1.322649  2.230231
   H (  5)  1.088828  2.129129  3.146859  2.615878
   H (  6)  1.087704  2.115109  3.013797  2.760418  1.767694
   H (  7)  3.340994  2.002220  2.444702  1.008300  3.587947  3.678846
   H (  8)  2.602565  2.053496  3.150160  1.011194  2.468436  2.778224
   H (  9)  1.099997  2.180020  2.575176  3.341203  1.792839  1.789328
             H (  7)   H (  8)
   H (  8)  1.744499
   H (  9)  4.165291  3.658079
 
 A cutoff of  1.0D-14 yielded   3054 shell pairs
 There are     19544 function pairs (     24702 Cartesian)
 Smallest overlap matrix eigenvalue = 1.01E-05

 Scale SEOQF with 1.000000e-01/1.000000e-01/1.000000e-01

 Standard Electronic Orientation quadrupole field applied
 Nucleus-field energy     =     0.0000000029 hartrees
 Guess from superposition of atomic densities
 Warning:  Energy on first SCF cycle will be non-variational
 SAD guess density has 31.604610 electrons

 -----------------------------------------------------------------------
  General SCF calculation program by
  Eric Jon Sundstrom, Paul Horn, Yuezhi Mao, Dmitri Zuev, Alec White,
  David Stuck, Shaama M.S., Shane Yost, Joonho Lee, David Small,
  Daniel Levine, Susi Lehtola, Hugh Burton, Evgeny Epifanovsky
 -----------------------------------------------------------------------
 Exchange:     0.1670 Hartree-Fock + 1.0000 wB97X-V + LR-HF
 Correlation:  1.0000 wB97X-V
 Using Euler-Maclaurin-Lebedev (99,590) quadrature formula
 Nonlocal Correlation:  VV10 with C = 0.0100 and b = 6.00 and scale = 1.00000
 Grid used for NLC:  SG-1 standard quadrature
Energy prior to optimization (guess energy) = -208.703784521433
Begin Timing: Total SCF Calculation
begin iterations for algorithm: DIIS         
the SCF tolerance is set to 1.00e-08
    1    -208.7037845214      1.26e-02     00000 
    2    -208.3209563355      1.54e-02     00000 
    3    -209.2364156868      2.37e-03     00000 
    4    -209.2551967122      7.79e-04     00000 
    5    -209.2583359013      1.99e-04     00000 
    6    -209.2586113475      6.67e-05     00000 
    7    -209.2586523224      2.07e-05     00000 
    8    -209.2586575442      6.02e-06     00000 
    9    -209.2586583281      2.04e-06     00000 
   10    -209.2586583800      3.47e-07     00000 
   11    -209.2586583813      1.48e-07     00000 
   12    -209.2586583815      2.06e-08     00000 
   13    -209.2586583815      4.72e-09     00000 Convergence criterion met
Timing for Total SCF: 368.00s (wall), 694.09s (cpu)
(3)  G-ENP(liq) elect-nuc-pol free energy of system     -209.258658381 a.u.
(4)  G-CDS(liq) cavity-dispersion-solvent structure 
     free energy                                                3.5285 kcal/mol
(6)  G-S(liq) free energy of system                     -209.253035414 a.u.
E_pcm = -0.0299885815
E_cds = 0.0056229674
Multipole orders to be included
        2
        3
computing dipole RHS
computing quadrupole RHS
total number of RHS in solve_reponses: 8
RHS batch sizes
        8
Beginning Block Conjugate Gradient Iterations. Batch Number: 0
computing hessian-vector products by finite difference
              1      7.03e-01     00000 Conjugate Gradient Iteration
computing hessian-vector products by finite difference
              2      2.27e-01     00000 Conjugate Gradient Iteration
computing hessian-vector products by finite difference
              3      6.25e-02     00000 Conjugate Gradient Iteration
computing hessian-vector products by finite difference
              4      1.59e-02     00000 Conjugate Gradient Iteration
computing hessian-vector products by finite difference
              5      2.19e-03     00000 Conjugate Gradient Iteration
computing hessian-vector products by finite difference
              6      5.08e-04     00000 Conjugate Gradient Iteration
computing hessian-vector products by finite difference
              7      6.83e-05     00000 Conjugate Gradient Iteration
computing hessian-vector products by finite difference
              8      7.90e-06     00000 Conjugate Gradient Iteration
computing hessian-vector products by finite difference
              9      1.16e-06     00000 Conjugate Gradient Iteration
computing hessian-vector products by finite difference
             10      1.23e-07     00000 Conjugate Gradient Iteration
computing hessian-vector products by finite difference
             11      1.25e-08     00000 Conjugate Gradient Iteration
computing hessian-vector products by finite difference
             12      4.09e-09     00000 CG Converged
batch 0 complete
Done Calculating Responses
TESTING ORTHOGONALIZATION OF MULTIPOLE BASIS
Multipole virts passed orthogonality test
Virts Per Order
        48
        80
 
 --------------------------------------------------------------
 
                    Orbital Energies (a.u.)
 --------------------------------------------------------------
 
 Alpha MOs
 -- Occupied --
-19.1831 -14.4257 -10.3772 -10.2620  -1.1764  -1.0412  -0.8638  -0.7090
 -0.6498  -0.5907  -0.5658  -0.5184  -0.5008  -0.4780  -0.3832  -0.3745
 -- Virtual --
  0.0641   0.0960   0.0975   0.1033   0.1299   0.1335   0.1402   0.1483
  0.1735   0.1933   0.2064   0.2122   0.2325   0.2445   0.2484   0.2583
  0.2607   0.2830   0.3089   0.3134   0.3345   0.3374   0.3459   0.3528
  0.3604   0.3731   0.3819   0.3851   0.3936   0.4030   0.4163   0.4257
  0.4300   0.4572   0.4580   0.4789   0.4868   0.4881   0.4927   0.5022
  0.5257   0.5331   0.5395   0.5754   0.5836   0.5895   0.6322   0.6388
  0.6518   0.6554   0.6649   0.6882   0.7062   0.7163   0.7243   0.7647
  0.7783   0.7896   0.8061   0.8125   0.8175   0.8406   0.8515   0.8797
  0.9243   0.9540   0.9789   0.9910   1.0100   1.0437   1.0567   1.1045
  1.1198   1.1807   1.2269   1.2605   1.2872   1.3129   1.3307   1.3970
  1.4805   1.4953   1.5123   1.6100   1.6865   1.7331   1.7521   1.8087
  1.8444   1.8719   1.8824   1.9283   1.9325   1.9392   2.0046   2.0279
  2.0634   2.0901   2.1483   2.1939   2.2506   2.2785   2.3049   2.3309
  2.3634   2.4129   2.4474   2.4861   2.5407   2.5699   2.6134   2.6295
  2.7009   2.7316   2.7497   2.8320   2.8711   2.9112   2.9515   2.9901
  3.0407   3.1300   3.1470   3.1714   3.2031   3.2324   3.2615   3.2837
  3.3159   3.3222   3.3578   3.4211   3.4701   3.5157   3.5474   3.5694
  3.6176   3.6649   3.7418   3.7782   3.8674   3.9262   4.0278   4.0553
  4.0864   4.1892   4.3248   4.3773   4.5694   4.5919   4.6331   4.6461
  4.7912   4.8962   4.9064   4.9287   5.1543   5.1786   5.2681   5.3585
  5.3804   5.3924   5.4147   5.4944   5.5402   5.7639   5.9123   6.1552
  6.2551   6.5227   6.6301   6.7311   6.8209   6.9694   7.2283   7.3149
 22.6089  23.5915  32.4245  44.2991
 --------------------------------------------------------------
 
          Ground-State Mulliken Net Atomic Charges

     Atom                 Charge (a.u.)
  ----------------------------------------
      1 C                    -0.643006
      2 C                     0.455478
      3 O                    -0.694952
      4 N                    -0.307854
      5 H                     0.245093
      6 H                     0.223277
      7 H                     0.256265
      8 H                     0.232757
      9 H                     0.232941
  ----------------------------------------
  Sum of atomic charges =     0.000000

 -----------------------------------------------------------------
                    Cartesian Multipole Moments
 -----------------------------------------------------------------
    Charge (ESU x 10^10)
                -0.0000
    Dipole Moment (Debye)
         X       0.6274      Y       5.7886      Z      -1.4839
       Tot       6.0086
    Quadrupole Moments (Debye-Ang)
        XX     -25.3129     XY      -1.1017     YY      -0.6982
        XZ       1.4816     YZ      -7.3484     ZZ     -17.4773
    Octopole Moments (Debye-Ang^2)
       XXX      45.3062    XXY     -52.2843    XYY      11.3813
       YYY     -67.2072    XXZ      33.3857    XYZ       5.2786
       YYZ       9.3572    XZZ      10.6287    YZZ     -32.1071
       ZZZ      89.2947
    Hexadecapole Moments (Debye-Ang^3)
      XXXX     -96.9692   XXXY      84.9367   XXYY    -150.3062
      XYYY      81.4372   YYYY    -450.3154   XXXZ     -77.8865
      XXYZ      68.3917   XYYZ     -13.2498   YYYZ     131.4191
      XXZZ     -88.5312   XYZZ      19.3973   YYZZ    -150.6025
      XZZZ     -71.3596   YZZZ     189.0865   ZZZZ    -430.6614
 -----------------------------------------------------------------
Archival summary:
1\1\nid00535\SP\ProcedureUnspecified\BasisUnspecified\1125\meili\SunSep2614:35:302021SunSep2614:35:302021\0\\#,ProcedureUnspecified,BasisUnspecified,\\0,1\C\O,1,1.22991\N,1,1.32265,2,121.746\H,3,1.0083,1,117.772,2,-2.12574,0\H,3,1.01119,1,122.696,2,175.756,0\C,1,1.51382,2,121.375,3,179.528,0\H,6,1.0877,1,107.658,2,109.744,0\H,6,1.08883,1,108.683,2,-132.787,0\H,6,1.1,1,112.06,2,-11.0288,0\\\@

 Total job time:  6070.51s(wall), 11616.87s(cpu) 
 Sun Sep 26 14:35:33 2021

        *************************************************************
        *                                                           *
        *  Thank you very much for using Q-Chem.  Have a nice day.  *
        *                                                           *
        *************************************************************


Done Job For Fragment 1
calling putenv with: QCSCRATCH=/global/cscratch1/sd/meili 
calling putenv with: QCLOCALSCR=/tmp 
calling putenv with: QCTHREADS=32 
Doing General SCFMI
 Exchange:     0.1670 Hartree-Fock + 1.0000 wB97X-V + LR-HF
 Correlation:  1.0000 wB97X-V
 Using Euler-Maclaurin-Lebedev (99,590) quadrature formula
 Nonlocal Correlation:  VV10 with C = 0.0100 and b = 6.00 and scale = 1.00000
 Grid used for NLC:  SG-1 standard quadrature
performing fock build before subrot guess so that all methods have access
Printing subrot_rss_gen Method Specification:
Occupied Subspace Method is 0
Virtual Subspace Method is 0
Energy of the unrelaxed supersystem initial determinant -454.362444729890
performing fock build before subrot guess so that all methods have access
Printing subrot_rss_gen Method Specification:
Occupied Subspace Method is 0
Virtual Subspace Method is 0
Energy of the unrelaxed supersystem initial determinant w/ solvent -454.464520499098
write pseudocanon occs and virts to disk
write pseudocanon orbital energies to disk
Tolerance of ortho_decomp_scf: 1.00e-06
GDM subspace size: 20
Beginning the Orthogonal Decomposition of the Initial Supersystem Wavefunction
    1    -454.2790863351      7.85e-02     ortho_decomp Preconditoned Steepest Descent
    2    -454.2873415322      1.77e-03     ortho_decomp BFGS Step
    3    -454.2873667991      1.56e-04     ortho_decomp BFGS Step
    4    -454.2873668601      6.26e-06     ortho_decomp BFGS Step
    5    -454.2873668603      1.89e-07     ortho_decomp 00000 Convergence criterion met
 Hartree-Fock
 Hartree-Fock
 Hartree-Fock
Doing General SCFMI
 Exchange:     0.1670 Hartree-Fock + 1.0000 wB97X-V + LR-HF
 Correlation:  1.0000 wB97X-V
 Using Euler-Maclaurin-Lebedev (99,590) quadrature formula
 Nonlocal Correlation:  VV10 with C = 0.0100 and b = 6.00 and scale = 1.00000
 Grid used for NLC:  SG-1 standard quadrature
performing fock build at end of subrot_r(subrot) constructor so that all methods have access
<S^2> of initial wavefunction before polarization iterations 0.0000000000
Beginning iterations for the determination of the polarized wavefunction
Energy prior to optimization (guess energy) = -454.464520499098
Begin Timing: Total SCF Calculation
begin iterations for algorithm: DIIS         
the SCF tolerance is set to 1.00e-08
    1    -454.4645204991      1.34e-04     00000 
    2    -454.4654094919      6.25e-05     00000 
    3    -454.4655099090      3.92e-05     00000 
    4    -454.4655500670      1.20e-05     00000 
    5    -454.4655549762      4.20e-06     00000 
    6    -454.4655562333      1.66e-06     00000 
    7    -454.4655564243      7.67e-07     00000 
    8    -454.4655564543      2.07e-07     00000 
    9    -454.4655564570      7.60e-08     00000 
   10    -454.4655564573      3.42e-08     00000 
   11    -454.4655564574      1.07e-08     00000 
   12    -454.4655564574      4.78e-09     00000 Convergence criterion met
write pseudocanon occs and virts to disk
write pseudocanon orbital energies to disk
Timing for Total SCF: 2897.00s (wall), 5747.43s (cpu)
<S^2> of polarized wavefunction after polarization iterations 0.0000000000
relaxing scfmi constraint to allow all rotations in the entire AO span
Doing General SCFMI
 Exchange:     0.1670 Hartree-Fock + 1.0000 wB97X-V + LR-HF
 Correlation:  1.0000 wB97X-V
 Using Euler-Maclaurin-Lebedev (99,590) quadrature formula
 Nonlocal Correlation:  VV10 with C = 0.0100 and b = 6.00 and scale = 1.00000
 Grid used for NLC:  SG-1 standard quadrature
performing fock build at end of subrot_r(subrot) constructor so that all methods have access
<S^2> of polarized wavefunction before ct-allowed iterations 0.0000000000
Beginning iterations for the determination of the CT-Allowed wavefunction
Energy prior to optimization (guess energy) = -454.465556457362
Begin Timing: Total SCF Calculation
begin iterations for algorithm: DIIS         
the SCF tolerance is set to 1.00e-08
    1    -454.4655564574      1.55e-04     00000 
    2    -454.4685095890      2.35e-05     00000 
    3    -454.4686227582      1.10e-05     00000 
    4    -454.4686310403      5.56e-06     00000 
    5    -454.4686338958      8.44e-07     00000 
    6    -454.4686340141      3.67e-07     00000 
    7    -454.4686340421      1.19e-07     00000 
    8    -454.4686340450      4.53e-08     00000 
    9    -454.4686340454      1.39e-08     00000 
   10    -454.4686340455      4.70e-09     00000 Convergence criterion met
write pseudocanon occs and virts to disk
write pseudocanon orbital energies to disk
Timing for Total SCF: 2407.00s (wall), 4778.41s (cpu)
<S^2> of ct_allowed wavefunction after ct-allowed iterations 0.0000000000

================================
        Results of EDA2         
================================
Basic EDA Quantities
--------------------
Fragment Energies (Ha):
1 -245.2005420529
2 -209.2530354141
--------------------
  E_prp (kJ/mol) = 0.0000
  E_sol (kJ/mol) = 91.4527
  E_frz (kJ/mol) = -97.9665
  E_pol (kJ/mol) = -2.7199
  E_vct (kJ/mol) = -8.0803
  E_int (kJ/mol) = -17.3141
--------------------


Initial Wavefunction Decomposition
--------------------
  --------------------
  Orthogonal Fragment Subspace Decomposition:
  --------------------
     E_elec   (ELEC)   (kJ/mol) = -162.6840
     E_pauli  (PAULI)  (kJ/mol) = 80.3470
     E_disp   (DISP)   (kJ/mol) = -15.6295
     --------------------
     Terms summing to E_pauli:
     --------------------
        E_kep_pauli       (kJ/mol) = 99.1527
        E_disp_free_pauli (kJ/mol) = -18.8058
  --------------------
  Classical Frozen Decomposition:
  --------------------
     E_cls_elec  (CLS ELEC)  (kJ/mol) = -128.2593
     E_cls_pauli (CLS PAULI) (kJ/mol) = 30.2927
    [E_mod_pauli (MOD PAULI) (kJ/mol) = 45.9223 (CLS PAULI - DISP from orthogonal decomposition) ]
  --------------------
--------------------

Simplified EDA Summary (kJ/mol)
--------------------
 PREPARATION     0.0000
 SOLVATION       91.4527
 FROZEN          -82.3370      (does not include dispersion)
[PAULI           80.3470]     (if this is negligible, then frozen describes electrostatics)
 DISPERSION      -15.6295
 POLARIZATION    -2.7199
 CHARGE TRANSFER -8.0803
 TOTAL           -17.3141     (PRP + SOL + FRZ + DISP + POL + CT)
--------------------
 
 --------------------------------------------------------------
 
                    Orbital Energies (a.u.)
 --------------------------------------------------------------
 
 Alpha MOs
 -- Occupied --
-19.1906 -14.4493 -14.4440 -14.4381 -14.4300 -10.4180 -10.3832 -10.3043
-10.2647  -1.1842  -1.1690  -1.0508  -1.0461  -1.0385  -0.8671  -0.8506
 -0.7627  -0.7189  -0.7134  -0.6855  -0.6536  -0.6245  -0.6093  -0.5907
 -0.5878  -0.5710  -0.5657  -0.5261  -0.5235  -0.5046  -0.5023  -0.4815
 -0.3958  -0.3890  -0.3818  -0.3706
 -- Virtual --
  0.0556   0.0746   0.0820   0.0910   0.0968   0.1043   0.1102   0.1214
  0.1237   0.1253   0.1343   0.1431   0.1523   0.1639   0.1649   0.1709
  0.1826   0.1893   0.1932   0.1966   0.2027   0.2139   0.2141   0.2215
  0.2262   0.2356   0.2392   0.2436   0.2505   0.2565   0.2634   0.2725
  0.2749   0.2783   0.2839   0.2883   0.2901   0.3043   0.3059   0.3081
  0.3149   0.3188   0.3214   0.3309   0.3342   0.3391   0.3438   0.3446
  0.3492   0.3536   0.3574   0.3620   0.3670   0.3703   0.3737   0.3781
  0.3816   0.3830   0.3868   0.3947   0.4047   0.4126   0.4150   0.4221
  0.4269   0.4304   0.4331   0.4416   0.4429   0.4481   0.4530   0.4552
  0.4660   0.4724   0.4767   0.4826   0.4852   0.4878   0.4925   0.4989
  0.5088   0.5111   0.5205   0.5234   0.5295   0.5297   0.5363   0.5409
  0.5417   0.5518   0.5586   0.5614   0.5660   0.5682   0.5732   0.5760
  0.5882   0.5936   0.6101   0.6132   0.6219   0.6245   0.6347   0.6388
  0.6509   0.6565   0.6701   0.6772   0.6825   0.6890   0.6926   0.6986
  0.7060   0.7105   0.7176   0.7233   0.7248   0.7342   0.7449   0.7466
  0.7562   0.7676   0.7764   0.7876   0.8036   0.8085   0.8129   0.8188
  0.8205   0.8265   0.8298   0.8356   0.8407   0.8510   0.8546   0.8598
  0.8719   0.8738   0.8904   0.8965   0.9054   0.9126   0.9194   0.9389
  0.9475   0.9688   0.9712   0.9891   0.9926   1.0052   1.0190   1.0284
  1.0449   1.0558   1.0628   1.0645   1.0870   1.0903   1.0933   1.1078
  1.1247   1.1299   1.1403   1.1527   1.1618   1.1830   1.1898   1.2015
  1.2074   1.2210   1.2401   1.2566   1.2880   1.2993   1.3042   1.3124
  1.3275   1.3343   1.3511   1.3611   1.3723   1.4166   1.4372   1.4532
  1.4817   1.5077   1.5259   1.5385   1.5459   1.5612   1.5953   1.6097
  1.6259   1.6733   1.6775   1.6955   1.7098   1.7275   1.7382   1.7582
  1.7603   1.7973   1.8304   1.8601   1.8700   1.8809   1.8916   1.9000
  1.9102   1.9251   1.9264   1.9350   1.9523   1.9674   1.9753   1.9898
  2.0001   2.0246   2.0253   2.0436   2.0585   2.0776   2.0785   2.1049
  2.1093   2.1292   2.1417   2.1617   2.2069   2.2260   2.2454   2.2498
  2.2597   2.2712   2.2795   2.2999   2.3329   2.3389   2.3488   2.3556
  2.3707   2.4121   2.4155   2.4492   2.4644   2.4692   2.4966   2.5081
  2.5329   2.5652   2.5742   2.5789   2.5928   2.5998   2.6131   2.6341
  2.6420   2.6464   2.6714   2.6835   2.6855   2.7033   2.7228   2.7341
  2.7520   2.7672   2.7772   2.8000   2.8375   2.8488   2.8653   2.8816
  2.8860   2.9311   2.9387   2.9460   2.9855   2.9975   3.0102   3.0387
  3.0617   3.0981   3.1523   3.1569   3.1593   3.1717   3.1928   3.2095
  3.2178   3.2236   3.2519   3.2554   3.2651   3.2696   3.2989   3.3059
  3.3158   3.3278   3.3330   3.3525   3.3653   3.3813   3.3928   3.4009
  3.4222   3.4416   3.4593   3.4772   3.5053   3.5324   3.5411   3.5491
  3.5750   3.5800   3.5985   3.6280   3.6344   3.6743   3.6799   3.7025
  3.7467   3.7622   3.7803   3.8045   3.8278   3.8802   3.9221   3.9317
  3.9535   4.0286   4.0447   4.0726   4.0830   4.1003   4.1604   4.2101
  4.2176   4.2490   4.3147   4.3421   4.3442   4.3650   4.3896   4.3978
  4.4390   4.5645   4.5923   4.5934   4.6063   4.6192   4.6470   4.6584
  4.6816   4.8415   4.8560   4.8768   4.9027   4.9086   4.9201   4.9461
  4.9689   5.0186   5.0544   5.0709   5.1233   5.1548   5.1679   5.1797
  5.1854   5.2056   5.2196   5.2585   5.2733   5.3097   5.3641   5.3825
  5.3891   5.3996   5.4070   5.4205   5.4250   5.4748   5.4943   5.5156
  5.5212   5.5337   5.5690   5.6030   5.6877   5.7411   5.7811   5.7939
  5.8305   5.9167   5.9374   6.1539   6.1762   6.2277   6.3173   6.4039
  6.5112   6.6154   6.6656   6.7759   6.8266   7.0267   7.2470   7.4026
 22.6174  22.6727  23.6108  23.6937  32.3832  32.4426  32.5158  32.9545
 44.3843
 --------------------------------------------------------------
 
          Ground-State Mulliken Net Atomic Charges

     Atom                 Charge (a.u.)
  ----------------------------------------
      1 C                    -0.815985
      2 C                     0.512034
      3 N                    -0.198926
      4 N                     0.032081
      5 N                    -0.255142
      6 H                     0.196628
      7 H                     0.236174
      8 H                     0.154454
      9 H                     0.145817
     10 H                     0.250387
     11 H                     0.311896
     12 H                     0.267078
     13 H                     0.261233
     14 C                    -0.814715
     15 C                     0.450109
     16 O                    -0.724212
     17 N                    -0.293122
     18 H                     0.288150
     19 H                     0.257335
     20 H                     0.263429
     21 H                     0.236362
     22 H                     0.238936
  ----------------------------------------
  Sum of atomic charges =     1.000000

 -----------------------------------------------------------------
                    Cartesian Multipole Moments
 -----------------------------------------------------------------
    Charge (ESU x 10^10)
                 4.8032
    Dipole Moment (Debye)
         X       1.3371      Y      -1.3889      Z       4.2217
       Tot       4.6410
    Quadrupole Moments (Debye-Ang)
        XX     -44.5752     XY      -6.0513     YY      -7.3492
        XZ      -4.2283     YZ     -22.2723     ZZ     -34.5062
    Octopole Moments (Debye-Ang^2)
       XXX       4.0009    XXY     -18.7694    XYY       9.6259
       YYY      19.3508    XXZ      13.3954    XYZ      10.6412
       YYZ      21.8000    XZZ     -22.1414    YZZ     -14.5260
       ZZZ      20.7245
    Hexadecapole Moments (Debye-Ang^3)
      XXXX    -377.3801   XXXY     172.7133   XXYY    -268.6705
      XYYY     138.1855   YYYY    -872.1660   XXXZ     -75.0780
      XXYZ     103.2662   XYYZ      -9.7446   YYYZ     150.5967
      XXZZ    -171.4171   XYZZ      77.8638   YYZZ    -208.2766
      XZZZ     -99.1716   YZZZ     276.8865   ZZZZ    -694.8556
 -----------------------------------------------------------------
Archival summary:
1\1\nid00535\SP\ProcedureUnspecified\BasisUnspecified\14413(1+,1)\meili\SunSep2617:09:442021SunSep2617:09:442021\0\\#,ProcedureUnspecified,BasisUnspecified,\\1,1\O\C,1,1.22991\N,2,1.32265,1,121.746\H,3,1.0083,2,117.772,1,-2.12574,0\H,3,1.01119,2,122.696,1,175.756,0\C,2,1.51382,1,121.375,3,179.528,0\H,6,1.0877,2,107.658,1,109.744,0\H,6,1.08883,2,108.683,1,-132.787,0\H,6,1.1,2,112.06,1,-11.0288,0\H,1,2.09718,2,140.519,3,29.4579,0\N,10,1.01307,1,142.049,2,-168.943,0\H,11,1.00835,10,120.636,1,-142.585,0\C,11,1.31803,10,118.325,1,35.2912,0\N,13,1.31979,11,119.531,10,-174.981,0\H,14,1.00548,13,119.841,11,-177.334,0\H,14,1.00747,13,120.494,11,-2.44284,0\N,13,1.32589,11,119.239,10,4.6317,0\H,17,1.0153,13,116.488,11,-2.54621,0\C,17,1.46337,13,125.406,11,-179.947,0\H,19,1.09069,17,111.966,13,-12.5138,0\H,19,1.09172,17,109.375,13,-130.457,0\H,19,1.1,17,110.764,13,108.795,0\\\@

 Total job time:  28629.67s(wall), 18375.84s(cpu) 
 Sun Sep 26 17:09:48 2021

        *************************************************************
        *                                                           *
        *  Thank you very much for using Q-Chem.  Have a nice day.  *
        *                                                           *
        *************************************************************


