
Running Job 1 of 1 SSI-124HIE-140GLU-1_PCM_TZVPD.in
qchem SSI-124HIE-140GLU-1_PCM_TZVPD.in_46050.0 /tmp/qchem46050/ 0
/global/common/cori/software/qchem/5.2/exe/qcprog.exe_s SSI-124HIE-140GLU-1_PCM_TZVPD.in_46050.0 /tmp/qchem46050/
                  Welcome to Q-Chem
     A Quantum Leap Into The Future Of Chemistry


 Q-Chem 5.2, Q-Chem, Inc., Pleasanton, CA (2019)

 License issued to: National Energy Research Scientific Computing Center

 Yihan Shao,  Zhengting Gan,  E. Epifanovsky,  A. T. B. Gilbert,  M. Wormit,  
 J. Kussmann,  A. W. Lange,  A. Behn,  Jia Deng,  Xintian Feng,  D. Ghosh,  
 M. Goldey,  P. R. Horn,  L. D. Jacobson,  I. Kaliman,  T. Kus,  A. Landau,  
 Jie Liu,  E. I. Proynov,  R. M. Richard,  R. P. Steele,  E. J. Sundstrom,  
 H. L. Woodcock III,  P. M. Zimmerman,  D. Zuev,  B. Albrecht,  E. Alguire,  
 S. A. Baeppler,  D. Barton,  Z. Benda,  Y. A. Bernard,  E. J. Berquist,  
 K. B. Bravaya,  H. Burton,  D. Casanova,  Chun-Min Chang,  Yunqing Chen,  
 A. Chien,  K. D. Closser,  M. P. Coons,  S. Coriani,  S. Dasgupta,  
 A. L. Dempwolff,  M. Diedenhofen,  Hainam Do,  R. G. Edgar,  Po-Tung Fang,  
 S. Faraji,  S. Fatehi,  Qingguo Feng,  K. D. Fenk,  J. Fosso-Tande,  
 J. Gayvert,  Qinghui Ge,  A. Ghysels,  G. Gidofalvi,  J. Gomes,  
 J. Gonthier,  A. Gunina,  D. Hait,  M. W. D. Hanson-Heine,  
 P. H. P. Harbach,  A. W. Hauser,  M. F. Herbst,  J. E. Herr,  
 E. G. Hohenstein,  Z. C. Holden,  Kerwin Hui,  B. C. Huynh,  T.-C. Jagau,  
 Hyunjun Ji,  B. Kaduk,  K. Khistyaev,  Jaehoon Kim,  P. Klunzinger,  K. Koh,  
 D. Kosenkov,  L. Koulias,  T. Kowalczyk,  C. M. Krauter,  A. Kunitsa,  
 Ka Un Lao,  A. Laurent,  K. V. Lawler,  Joonho Lee,  D. Lefrancois,  
 S. Lehtola,  D. S. Levine,  Yi-Pei Li,  You-Sheng Lin,  Fenglai Liu,  
 E. Livshits,  A. Luenser,  P. Manohar,  E. Mansoor,  S. F. Manzer,  
 Shan-Ping Mao,  Yuezhi Mao,  N. Mardirossian,  A. V. Marenich,  
 T. Markovich,  L. A. Martinez-Martinez,  S. A. Maurer,  N. J. Mayhall,  
 S. C. McKenzie,  J.-M. Mewes,  P. Morgante,  A. F. Morrison,  
 J. W. Mullinax,  K. Nanda,  T. S. Nguyen-Beck,  R. Olivares-Amaya,  
 J. A. Parkhill,  Zheng Pei,  T. M. Perrine,  F. Plasser,  P. Pokhilko,  
 S. Prager,  A. Prociuk,  E. Ramos,  D. R. Rehn,  F. Rob,  M. Scheurer,  
 M. Schneider,  N. Sergueev,  S. M. Sharada,  S. Sharma,  D. W. Small,  
 T. Stauch,  T. Stein,  Yu-Chuan Su,  A. J. W. Thom,  A. Tkatchenko,  
 T. Tsuchimochi,  N. M. Tubman,  L. Vogt,  M. L. Vidal,  O. Vydrov,  
 M. A. Watson,  J. Wenzel,  M. de Wergifosse,  T. A. Wesolowski,  A. White,  
 J. Witte,  A. Yamada,  Jun Yang,  K. Yao,  S. Yeganeh,  S. R. Yost,  
 Zhi-Qiang You,  A. Zech,  Igor Ying Zhang,  Xing Zhang,  Yan Zhao,  
 Ying Zhu,  B. R. Brooks,  G. K. L. Chan,  C. J. Cramer,  M. S. Gordon,  
 W. J. Hehre,  A. Klamt,  M. W. Schmidt,  C. D. Sherrill,  D. G. Truhlar,  
 A. Aspuru-Guzik,  R. Baer,  A. T. Bell,  N. A. Besley,  Jeng-Da Chai,  
 A. E. DePrince, III,  R. A. DiStasio Jr.,  A. Dreuw,  B. D. Dunietz,  
 T. R. Furlani,  Chao-Ping Hsu,  Yousung Jung,  Jing Kong,  D. S. Lambrecht,  
 WanZhen Liang,  C. Ochsenfeld,  V. A. Rassolov,  L. V. Slipchenko,  
 J. E. Subotnik,  T. Van Voorhis,  J. M. Herbert,  A. I. Krylov,  
 P. M. W. Gill,  M. Head-Gordon

 Contributors to earlier versions of Q-Chem not listed above: 
 R. D. Adamson,  B. Austin,  J. Baker,  G. J. O. Beran,  K. Brandhorst,  
 S. T. Brown,  E. F. C. Byrd,  A. K. Chakraborty,  C.-L. Cheng,  
 Siu Hung Chien,  D. M. Chipman,  D. L. Crittenden,  H. Dachsel,  
 R. J. Doerksen,  A. D. Dutoi,  L. Fusti-Molnar,  W. A. Goddard III,  
 A. Golubeva-Zadorozhnaya,  S. R. Gwaltney,  G. Hawkins,  A. Heyden,  
 S. Hirata,  G. Kedziora,  F. J. Keil,  C. Kelley,  Jihan Kim,  R. A. King,  
 R. Z. Khaliullin,  P. P. Korambath,  W. Kurlancheek,  A. M. Lee,  M. S. Lee,  
 S. V. Levchenko,  Ching Yeh Lin,  D. Liotard,  R. C. Lochan,  I. Lotan,  
 P. E. Maslen,  N. Nair,  D. P. O'Neill,  D. Neuhauser,  E. Neuscamman,  
 C. M. Oana,  R. Olson,  B. Peters,  R. Peverati,  P. A. Pieniazek,  
 Y. M. Rhee,  J. Ritchie,  M. A. Rohrdanz,  E. Rosta,  N. J. Russ,  
 H. F. Schaefer III,  N. E. Schultz,  N. Shenvi,  A. C. Simmonett,  A. Sodt,  
 D. Stuck,  K. S. Thanthiriwatte,  V. Vanovschi,  Tao Wang,  A. Warshel,  
 C. F. Williams,  Q. Wu,  X. Xu,  W. Zhang

 Please cite Q-Chem as follows:
 Y. Shao et al., Mol. Phys. 113, 184-215 (2015)
 DOI: 10.1080/00268976.2014.952696

 Q-Chem 5.2.0 for Intel X86 EM64T Linux

 Parts of Q-Chem use Armadillo 8.300.2 (Tropical Shenanigans).
 http://arma.sourceforge.net/

 Q-Chem begins on Sun Sep 26 14:09:16 2021  

Host: cori01
0

     Scratch files written to /tmp/qchem46050//
 May1019 |scratch|qcdevops|jenkins|workspace|build_RNUM -1
Processing $rem in /global/common/cori/software/qchem/5.2/config/preferences:
	 MEM_TOTAL  96000 
NAlpha2: 76
NElect   76
Mult     1
Symmetry turned off for PCM/SM12/SMD calculation

 Q-Chem warning in module libgen/rem_setup.C, line 2803:

 Neither GIA nor STOLL is specified by user. Use STOLL as the default


Checking the input file for inconsistencies... 	...done.

--------------------------------------------------------------
User input:
--------------------------------------------------------------
$comment
SSI-124HIE-140GLU-1.pdb
$end

$molecule
-1 1
--
0 1
C   -2.208985862551    1.614209077190   -3.285825738607
C    0.763014137449    0.631209077190   -1.396825738607
C   -1.406985862551    0.327209077190   -1.162825738607
C   -1.203985862551    1.059209077190   -2.293825738607
N   -0.160985862551    0.071209077190   -0.619825738607
N    0.166014137449    1.237209077190   -2.428825738607
H    0.007014137449   -0.414790922810    0.262174261393
H    1.821014137449    0.621209077190   -1.205825738607
H   -2.361985862551    0.033209077190   -0.756825738607
H   -2.136985862551    2.695209077190   -3.255825738607
H   -3.189985862551    1.327209077190   -2.927825738607
H   -2.059295862551    1.284459077190   -4.324505738607
--
-1 1
C    2.229014137449   -1.401790922810    1.970174261393
C    0.885014137449   -1.136790922810    2.622174261393
O   -0.102985862551   -0.952790922810    1.884174261393
O    0.818014137449   -1.088790922810    3.870174261393
H    2.917014137449   -1.712790922810    2.754174261393
H    2.620014137449   -0.472790922810    1.550174261393
H    2.192444137449   -2.156350922810    1.170609261393
$end

$rem
JOBTYPE			EDA
EDA2			1
method			wB97X-V
BASIS			def2-TZVPD
XC_GRID			000099000590
NL_GRID			1
UNRESTRICTED		FALSE
MAX_SCF_CYCLES		200
SYMMETRY		FALSE
SYM_IGNORE		TRUE
MEM_STATIC		2000
BASIS_LIN_DEP_THRESH 	6
THRESH 			14
SCF_CONVERGENCE 	8
SCF_PRINT_FRGM 		TRUE
SOLVENT_METHOD          PCM
$end

$PCM
THEORY                  CPCM
METHOD                  SWIG
SOLVER                  INVERSION
RADII                   UFF
HPOINTS                 302
HEAVYPOINTS             302
PRINTLEVEL              0
$END

$SOLVENT
DIELECTRIC              78.390000 ! water
$END
--------------------------------------------------------------
 ----------------------------------------------------------------
             Standard Nuclear Orientation (Angstroms)
    I     Atom           X                Y                Z
 ----------------------------------------------------------------
    1      C      -2.2089858626     1.6142090772    -3.2858257386
    2      C       0.7630141374     0.6312090772    -1.3968257386
    3      C      -1.4069858626     0.3272090772    -1.1628257386
    4      C      -1.2039858626     1.0592090772    -2.2938257386
    5      N      -0.1609858626     0.0712090772    -0.6198257386
    6      N       0.1660141374     1.2372090772    -2.4288257386
    7      H       0.0070141374    -0.4147909228     0.2621742614
    8      H       1.8210141374     0.6212090772    -1.2058257386
    9      H      -2.3619858626     0.0332090772    -0.7568257386
   10      H      -2.1369858626     2.6952090772    -3.2558257386
   11      H      -3.1899858626     1.3272090772    -2.9278257386
   12      H      -2.0592958626     1.2844590772    -4.3245057386
   13      C       2.2290141374    -1.4017909228     1.9701742614
   14      C       0.8850141374    -1.1367909228     2.6221742614
   15      O      -0.1029858626    -0.9527909228     1.8841742614
   16      O       0.8180141374    -1.0887909228     3.8701742614
   17      H       2.9170141374    -1.7127909228     2.7541742614
   18      H       2.6200141374    -0.4727909228     1.5501742614
   19      H       2.1924441374    -2.1563509228     1.1706092614
 ----------------------------------------------------------------
 Nuclear Repulsion Energy =         483.59269493 hartrees
 There are       38 alpha and       38 beta electrons
 Requested basis set is def2-TZVPD
 There are 177 shells and 457 basis functions

 Total QAlloc Memory Limit  96000 MB
 Mega-Array Size      1956 MB
 MEM_STATIC part      2000 MB
 Discretize the solute cavity surface with Lebedev spheres
	Using 302 Lebedev grid points for each H atom
	Using 302 Lebedev grid points for other atoms
	Atomic van der Waals radii will be scaled by 1.20
 Remove points where switching function is < 1.0e-08
 Keep 2301 surface tesserae and discard 3437 interior tesserae
 Molecular Surface Area = 245.250 Angst**2
 A cutoff of  1.0D-14 yielded  13703 shell pairs
 There are     91811 function pairs (    116797 Cartesian)
 Smallest overlap matrix eigenvalue = 1.28E-06

 Scale SEOQF with 1.000000e-01/1.000000e-01/1.000000e-01

 Standard Electronic Orientation quadrupole field applied
 Nucleus-field energy     =    -0.0000000339 hartrees

 -----------------------------------------------------------------------
  General SCF calculation program by
  Eric Jon Sundstrom, Paul Horn, Yuezhi Mao, Dmitri Zuev, Alec White,
  David Stuck, Shaama M.S., Shane Yost, Joonho Lee, David Small,
  Daniel Levine, Susi Lehtola, Hugh Burton, Evgeny Epifanovsky
 -----------------------------------------------------------------------
================================================================
                 ALMO-EDA with the EDA2 driver                  
================================================================
 The second-generation ALMO-EDA (for DFT):                      
 P. R. Horn, Y. Mao and M. Head-Gordon, PCCP, 18, 23067 (2016)  
 Decomposition of the frozen energy:                            
 P. R. Horn, Y. Mao and M. Head-Gordon, JCP, 144, 114107 (2016) 
 FERF model for polarization:                                   
 P. R. Horn and M. Head-Gordon, JCP, 143, 114111 (2015)         
Using eda2 option set 1
Option set summary: Frozen orbital wavefunction, initial wavefunction decomposition, and nDQ polarization.
--------------------------------
Printing EDA Options
--------------------------------
eda_child_super_basis      0
fragmo_guess_mode          0
child_mp                   1
child_mp_orders            232
cls_elec                   1
cls_disp                   0
scfmi_mode                 1
scfmi_occs                 0
scfmi_virts                0
frz_relax                  0
frz_relax_method           0
dc_pen_start               0
dc_pen_conv                0
dc_pen_increment           0
dc_pen_steps               0
dc_pen_thresh_factor       0
dc_pen_pre_newton_thresh   0
frz_ortho_decomp           1
frz_ortho_decomp_conv      6
frgm_method                2
scfmi_freeze_ss            0
separate_rehyb             0
plot_diff_den              0
eda_nocv                   0
eda_vct_relax              1
disp_free_x                0
disp_free_c                0
eda_bsse                   0
eda_pct_a                  0
eda_covp                   0
--------------------------------
Attempting to make child job directory: /tmp/qchem46050//Frg1/
Attempting to make child job directory: /tmp/qchem46050//Frg2/
Creating input file /tmp/qchem46050/Frg1.input
using default PutDataFrgm: nothing
calling putenv with: QCSCRATCH=/tmp/qchem46050/ 
calling putenv with: QCLOCALSCR=/tmp/qchem46050/ 
Spawning Job For Fragment 0
                  Welcome to Q-Chem
     A Quantum Leap Into The Future Of Chemistry


 Q-Chem 5.2, Q-Chem, Inc., Pleasanton, CA (2019)

 License issued to: National Energy Research Scientific Computing Center

 Yihan Shao,  Zhengting Gan,  E. Epifanovsky,  A. T. B. Gilbert,  M. Wormit,  
 J. Kussmann,  A. W. Lange,  A. Behn,  Jia Deng,  Xintian Feng,  D. Ghosh,  
 M. Goldey,  P. R. Horn,  L. D. Jacobson,  I. Kaliman,  T. Kus,  A. Landau,  
 Jie Liu,  E. I. Proynov,  R. M. Richard,  R. P. Steele,  E. J. Sundstrom,  
 H. L. Woodcock III,  P. M. Zimmerman,  D. Zuev,  B. Albrecht,  E. Alguire,  
 S. A. Baeppler,  D. Barton,  Z. Benda,  Y. A. Bernard,  E. J. Berquist,  
 K. B. Bravaya,  H. Burton,  D. Casanova,  Chun-Min Chang,  Yunqing Chen,  
 A. Chien,  K. D. Closser,  M. P. Coons,  S. Coriani,  S. Dasgupta,  
 A. L. Dempwolff,  M. Diedenhofen,  Hainam Do,  R. G. Edgar,  Po-Tung Fang,  
 S. Faraji,  S. Fatehi,  Qingguo Feng,  K. D. Fenk,  J. Fosso-Tande,  
 J. Gayvert,  Qinghui Ge,  A. Ghysels,  G. Gidofalvi,  J. Gomes,  
 J. Gonthier,  A. Gunina,  D. Hait,  M. W. D. Hanson-Heine,  
 P. H. P. Harbach,  A. W. Hauser,  M. F. Herbst,  J. E. Herr,  
 E. G. Hohenstein,  Z. C. Holden,  Kerwin Hui,  B. C. Huynh,  T.-C. Jagau,  
 Hyunjun Ji,  B. Kaduk,  K. Khistyaev,  Jaehoon Kim,  P. Klunzinger,  K. Koh,  
 D. Kosenkov,  L. Koulias,  T. Kowalczyk,  C. M. Krauter,  A. Kunitsa,  
 Ka Un Lao,  A. Laurent,  K. V. Lawler,  Joonho Lee,  D. Lefrancois,  
 S. Lehtola,  D. S. Levine,  Yi-Pei Li,  You-Sheng Lin,  Fenglai Liu,  
 E. Livshits,  A. Luenser,  P. Manohar,  E. Mansoor,  S. F. Manzer,  
 Shan-Ping Mao,  Yuezhi Mao,  N. Mardirossian,  A. V. Marenich,  
 T. Markovich,  L. A. Martinez-Martinez,  S. A. Maurer,  N. J. Mayhall,  
 S. C. McKenzie,  J.-M. Mewes,  P. Morgante,  A. F. Morrison,  
 J. W. Mullinax,  K. Nanda,  T. S. Nguyen-Beck,  R. Olivares-Amaya,  
 J. A. Parkhill,  Zheng Pei,  T. M. Perrine,  F. Plasser,  P. Pokhilko,  
 S. Prager,  A. Prociuk,  E. Ramos,  D. R. Rehn,  F. Rob,  M. Scheurer,  
 M. Schneider,  N. Sergueev,  S. M. Sharada,  S. Sharma,  D. W. Small,  
 T. Stauch,  T. Stein,  Yu-Chuan Su,  A. J. W. Thom,  A. Tkatchenko,  
 T. Tsuchimochi,  N. M. Tubman,  L. Vogt,  M. L. Vidal,  O. Vydrov,  
 M. A. Watson,  J. Wenzel,  M. de Wergifosse,  T. A. Wesolowski,  A. White,  
 J. Witte,  A. Yamada,  Jun Yang,  K. Yao,  S. Yeganeh,  S. R. Yost,  
 Zhi-Qiang You,  A. Zech,  Igor Ying Zhang,  Xing Zhang,  Yan Zhao,  
 Ying Zhu,  B. R. Brooks,  G. K. L. Chan,  C. J. Cramer,  M. S. Gordon,  
 W. J. Hehre,  A. Klamt,  M. W. Schmidt,  C. D. Sherrill,  D. G. Truhlar,  
 A. Aspuru-Guzik,  R. Baer,  A. T. Bell,  N. A. Besley,  Jeng-Da Chai,  
 A. E. DePrince, III,  R. A. DiStasio Jr.,  A. Dreuw,  B. D. Dunietz,  
 T. R. Furlani,  Chao-Ping Hsu,  Yousung Jung,  Jing Kong,  D. S. Lambrecht,  
 WanZhen Liang,  C. Ochsenfeld,  V. A. Rassolov,  L. V. Slipchenko,  
 J. E. Subotnik,  T. Van Voorhis,  J. M. Herbert,  A. I. Krylov,  
 P. M. W. Gill,  M. Head-Gordon

 Contributors to earlier versions of Q-Chem not listed above: 
 R. D. Adamson,  B. Austin,  J. Baker,  G. J. O. Beran,  K. Brandhorst,  
 S. T. Brown,  E. F. C. Byrd,  A. K. Chakraborty,  C.-L. Cheng,  
 Siu Hung Chien,  D. M. Chipman,  D. L. Crittenden,  H. Dachsel,  
 R. J. Doerksen,  A. D. Dutoi,  L. Fusti-Molnar,  W. A. Goddard III,  
 A. Golubeva-Zadorozhnaya,  S. R. Gwaltney,  G. Hawkins,  A. Heyden,  
 S. Hirata,  G. Kedziora,  F. J. Keil,  C. Kelley,  Jihan Kim,  R. A. King,  
 R. Z. Khaliullin,  P. P. Korambath,  W. Kurlancheek,  A. M. Lee,  M. S. Lee,  
 S. V. Levchenko,  Ching Yeh Lin,  D. Liotard,  R. C. Lochan,  I. Lotan,  
 P. E. Maslen,  N. Nair,  D. P. O'Neill,  D. Neuhauser,  E. Neuscamman,  
 C. M. Oana,  R. Olson,  B. Peters,  R. Peverati,  P. A. Pieniazek,  
 Y. M. Rhee,  J. Ritchie,  M. A. Rohrdanz,  E. Rosta,  N. J. Russ,  
 H. F. Schaefer III,  N. E. Schultz,  N. Shenvi,  A. C. Simmonett,  A. Sodt,  
 D. Stuck,  K. S. Thanthiriwatte,  V. Vanovschi,  Tao Wang,  A. Warshel,  
 C. F. Williams,  Q. Wu,  X. Xu,  W. Zhang

 Please cite Q-Chem as follows:
 Y. Shao et al., Mol. Phys. 113, 184-215 (2015)
 DOI: 10.1080/00268976.2014.952696

 Q-Chem 5.2.0 for Intel X86 EM64T Linux

 Parts of Q-Chem use Armadillo 8.300.2 (Tropical Shenanigans).
 http://arma.sourceforge.net/

 Q-Chem begins on Sun Sep 26 14:09:21 2021  

Host: cori01
0

     Scratch files written to /tmp/qchem46050//Frg1//
 May1019 |scratch|qcdevops|jenkins|workspace|build_RNUM -1
Processing $rem in /global/common/cori/software/qchem/5.2/config/preferences:
	 MEM_TOTAL  96000 
NAlpha2: 44
NElect   44
Mult     1
Symmetry turned off for PCM/SM12/SMD calculation

Checking the input file for inconsistencies... 	...done.

--------------------------------------------------------------
User input:
--------------------------------------------------------------
$molecule
0 1
 6	-2.2089858626	1.6142090772	-3.2858257386
 6	0.7630141374	0.6312090772	-1.3968257386
 6	-1.4069858626	0.3272090772	-1.1628257386
 6	-1.2039858626	1.0592090772	-2.2938257386
 7	-0.1609858626	0.0712090772	-0.6198257386
 7	0.1660141374	1.2372090772	-2.4288257386
 1	0.0070141374	-0.4147909228	0.2621742614
 1	1.8210141374	0.6212090772	-1.2058257386
 1	-2.3619858626	0.0332090772	-0.7568257386
 1	-2.1369858626	2.6952090772	-3.2558257386
 1	-3.1899858626	1.3272090772	-2.9278257386
 1	-2.0592958626	1.2844590772	-4.3245057386
$end
$rem
EDA2		1
METHOD		WB97X-V
BASIS		DEF2-TZVPD
XC_GRID		000099000590
NL_GRID		1
UNRESTRICTED		FALSE
MAX_SCF_CYCLES		200
SYMMETRY		FALSE
SYM_IGNORE		TRUE
BASIS_LIN_DEP_THRESH		6
THRESH		14
SCF_CONVERGENCE		8
SCF_PRINT_FRGM		TRUE
SOLVENT_METHOD		PCM
!required keywords
JOBTYPE		SP
SYM_IGNORE		TRUE
SUBSYSTEM		TRUE
GEN_SCFMAN		TRUE
CHILD_INSTRUCTION		2
SYM_IGNORE		TRUE
SCFMI		0
RI_K 0		
PARI_K 0		
MIN_PARI_K 0		
IARI_K 0		
OCC_RI_K 0		
PURECART		1111
MEM_STATIC		2000
MEM_TOTAL		96000
GUI		0
CHILD_MP		1
CHILD_MP_ORDERS		232
FRZ_RELAX		0
FRZ_RELAX_METHOD		0
EDA_CLS_ELEC		1
EDA_CLS_DISP		0
FRZ_ORTHO_DECOMP		1
EDA2		FALSE
FRGM_METHOD		FALSE
CIS_N_ROOTS  0
LOCAL_CIS    0
CIS_RLX_DNS  1
$end
$pcm
THEORY                  CPCM
METHOD                  SWIG
SOLVER                  INVERSION
RADII                   UFF
HPOINTS                 302
HEAVYPOINTS             302
PRINTLEVEL              0
$end
$solvent
DIELECTRIC              78.390000 ! water
$end
--------------------------------------------------------------
 ----------------------------------------------------------------
             Standard Nuclear Orientation (Angstroms)
    I     Atom           X                Y                Z
 ----------------------------------------------------------------
    1      C      -2.2089858626     1.6142090772    -3.2858257386
    2      C       0.7630141374     0.6312090772    -1.3968257386
    3      C      -1.4069858626     0.3272090772    -1.1628257386
    4      C      -1.2039858626     1.0592090772    -2.2938257386
    5      N      -0.1609858626     0.0712090772    -0.6198257386
    6      N       0.1660141374     1.2372090772    -2.4288257386
    7      H       0.0070141374    -0.4147909228     0.2621742614
    8      H       1.8210141374     0.6212090772    -1.2058257386
    9      H      -2.3619858626     0.0332090772    -0.7568257386
   10      H      -2.1369858626     2.6952090772    -3.2558257386
   11      H      -3.1899858626     1.3272090772    -2.9278257386
   12      H      -2.0592958626     1.2844590772    -4.3245057386
 ----------------------------------------------------------------
 Nuclear Repulsion Energy =         223.69849032 hartrees
 There are       22 alpha and       22 beta electrons
 Requested basis set is def2-TZVPD
 There are 108 shells and 276 basis functions

 Total QAlloc Memory Limit  96000 MB
 Mega-Array Size      1956 MB
 MEM_STATIC part      2000 MB
 Discretize the solute cavity surface with Lebedev spheres
	Using 302 Lebedev grid points for each H atom
	Using 302 Lebedev grid points for other atoms
	Atomic van der Waals radii will be scaled by 1.20
 Remove points where switching function is < 1.0e-08
 Keep 1501 surface tesserae and discard 2123 interior tesserae
 Molecular Surface Area = 157.386 Angst**2

                       Distance Matrix (Angstroms)
             C (  1)   C (  2)   C (  3)   C (  4)   N (  5)   N (  6)
   C (  2)  3.656145
   C (  3)  2.608966  2.203650
   C (  4)  1.517272  2.203833  1.362422
   N (  5)  3.699015  1.330829  1.383077  2.205962
   N (  6)  2.552881  1.337411  2.214765  1.388095  2.176917
   H (  7)  4.649280  2.101888  2.140230  3.189410  1.020952  3.161624
   H (  8)  4.642558  1.075149  3.241646  3.244413  2.138743  2.148071
   H (  9)  2.986438  3.245432  1.078562  2.180828  2.205587  3.261286
   H ( 10)  1.083810  4.015716  3.243605  2.114812  4.211704  2.848421
   H ( 11)  1.083002  4.295880  2.700799  2.101898  4.009893  3.394089
   H ( 12)  1.099999  4.118674  3.367203  2.214939  4.335921  2.923669
             H (  7)   H (  8)   H (  9)   H ( 10)   H ( 11)
   H (  8)  2.553217
   H (  9)  2.617485  4.247921
   H ( 10)  5.161895  4.916273  3.658124
   H ( 11)  4.840607  5.345450  2.659560  1.757219
   H ( 12)  5.309870  5.022238  3.792834  1.771533  1.797499
 
 A cutoff of  1.0D-14 yielded   5735 shell pairs
 There are     38171 function pairs (     48952 Cartesian)
 Smallest overlap matrix eigenvalue = 1.82E-06

 Scale SEOQF with 1.000000e-01/1.000000e-01/1.000000e-01

 Standard Electronic Orientation quadrupole field applied
 Nucleus-field energy     =    -0.0000000151 hartrees
 Guess from superposition of atomic densities
 Warning:  Energy on first SCF cycle will be non-variational
 SAD guess density has 43.559167 electrons

 -----------------------------------------------------------------------
  General SCF calculation program by
  Eric Jon Sundstrom, Paul Horn, Yuezhi Mao, Dmitri Zuev, Alec White,
  David Stuck, Shaama M.S., Shane Yost, Joonho Lee, David Small,
  Daniel Levine, Susi Lehtola, Hugh Burton, Evgeny Epifanovsky
 -----------------------------------------------------------------------
 Exchange:     0.1670 Hartree-Fock + 1.0000 wB97X-V + LR-HF
 Correlation:  1.0000 wB97X-V
 Using Euler-Maclaurin-Lebedev (99,590) quadrature formula
 Nonlocal Correlation:  VV10 with C = 0.0100 and b = 6.00 and scale = 1.00000
 Grid used for NLC:  SG-1 standard quadrature
Energy prior to optimization (guess energy) = -265.145295267878
Begin Timing: Total SCF Calculation
begin iterations for algorithm: DIIS         
the SCF tolerance is set to 1.00e-08
    1    -265.1452952679      7.19e-03     00000 
    2    -265.0977765053      7.39e-03     00000 
    3    -265.5589545019      7.41e-04     00000 
    4    -265.5626913905      4.23e-04     00000 
    5    -265.5641700785      8.65e-05     00000 
    6    -265.5642581127      3.06e-05     00000 
    7    -265.5642713614      9.37e-06     00000 
    8    -265.5642727629      3.13e-06     00000 
    9    -265.5642729448      1.31e-06     00000 
   10    -265.5642729859      3.55e-07     00000 
   11    -265.5642729904      8.42e-08     00000 
   12    -265.5642729906      5.01e-08     00000 
   13    -265.5642729907      1.04e-08     00000 
   14    -265.5642729907      3.85e-09     00000 Convergence criterion met
Timing for Total SCF: 928.00s (wall), 1822.27s (cpu)

************** Final PCM Free Energy Summary **************
 G_electrostatic  =      -0.01093050 hartree =      -6.85899146 kcal/mol
 G_cavitation     =       0.00000000 hartree =       0.00000000 kcal/mol
 G_dispersion     =       0.00000000 hartree =       0.00000000 kcal/mol
 G_repulsion      =       0.00000000 hartree =       0.00000000 kcal/mol
 --------------------------------------------------
 Non-electrostatic Free Energy =       0.00000000 hartree =       0.00000000 kcal/mol
 Total                         =      -0.01093050 hartree =      -6.85899146 kcal/mol
 --------------------------------------------------
 SCF Energy (H0 + V/2)                       =    -265.56427299 
 Solute Internal Energy (H0)                 =    -265.55334249 
 Total Free Energy (H0 + V/2 + non-elec)     =    -265.56427299 hartree
                                             = -166644.09646088 kcal/mol
***********************************************************

E_pcm = -0.0109304987
Multipole orders to be included
        2
        3
computing dipole RHS
computing quadrupole RHS
total number of RHS in solve_reponses: 8
RHS batch sizes
        8
Beginning Block Conjugate Gradient Iterations. Batch Number: 0
computing hessian-vector products by finite difference
              1      5.86e-01     00000 Conjugate Gradient Iteration
computing hessian-vector products by finite difference
              2      1.85e-01     00000 Conjugate Gradient Iteration
computing hessian-vector products by finite difference
              3      4.79e-02     00000 Conjugate Gradient Iteration
computing hessian-vector products by finite difference
              4      1.46e-02     00000 Conjugate Gradient Iteration
computing hessian-vector products by finite difference
              5      3.07e-03     00000 Conjugate Gradient Iteration
computing hessian-vector products by finite difference
              6      5.27e-04     00000 Conjugate Gradient Iteration
computing hessian-vector products by finite difference
              7      9.58e-05     00000 Conjugate Gradient Iteration
computing hessian-vector products by finite difference
              8      1.62e-05     00000 Conjugate Gradient Iteration
computing hessian-vector products by finite difference
              9      2.30e-06     00000 Conjugate Gradient Iteration
computing hessian-vector products by finite difference
             10      3.07e-07     00000 Conjugate Gradient Iteration
computing hessian-vector products by finite difference
             11      3.75e-08     00000 Conjugate Gradient Iteration
computing hessian-vector products by finite difference
             12      7.18e-09     00000 CG Converged
batch 0 complete
Done Calculating Responses
TESTING ORTHOGONALIZATION OF MULTIPOLE BASIS
Multipole virts passed orthogonality test
Virts Per Order
           66
          110
 
 --------------------------------------------------------------
 
                    Orbital Energies (a.u.)
 --------------------------------------------------------------
 
 Alpha MOs
 -- Occupied --
-14.4689 -14.3899 -10.3246 -10.2914 -10.2901 -10.2657  -1.1537  -0.9959
 -0.8989  -0.8286  -0.7303  -0.6878  -0.6699  -0.5642  -0.5591  -0.5454
 -0.5152  -0.5011  -0.4832  -0.3787  -0.3769  -0.3262
 -- Virtual --
  0.0639   0.0818   0.0930   0.1013   0.1140   0.1245   0.1303   0.1426
  0.1650   0.1672   0.1756   0.1816   0.1966   0.1996   0.2220   0.2364
  0.2406   0.2454   0.2585   0.2631   0.2650   0.2848   0.2966   0.3021
  0.3082   0.3096   0.3171   0.3208   0.3243   0.3338   0.3423   0.3550
  0.3579   0.3629   0.3719   0.3777   0.3914   0.3979   0.4038   0.4092
  0.4185   0.4190   0.4247   0.4458   0.4516   0.4652   0.4710   0.4782
  0.4850   0.4937   0.4984   0.5110   0.5312   0.5426   0.5459   0.5600
  0.5622   0.5697   0.5877   0.5927   0.6055   0.6085   0.6270   0.6311
  0.6397   0.6457   0.6699   0.6777   0.6874   0.7013   0.7056   0.7065
  0.7272   0.7368   0.7552   0.7689   0.7740   0.7816   0.7885   0.7992
  0.8038   0.8125   0.8230   0.8235   0.8570   0.8616   0.8754   0.8954
  0.9133   0.9371   0.9746   0.9870   0.9932   1.0006   1.0117   1.0218
  1.0655   1.0877   1.1050   1.1180   1.1252   1.1496   1.1811   1.2087
  1.2207   1.2346   1.2730   1.3228   1.3372   1.3468   1.3730   1.4151
  1.4343   1.4484   1.5370   1.5439   1.6009   1.6376   1.6416   1.6668
  1.6905   1.7318   1.7930   1.8227   1.8298   1.8532   1.8563   1.8813
  1.8931   1.9373   1.9441   1.9529   1.9669   1.9779   1.9879   2.0101
  2.0186   2.0575   2.0863   2.1306   2.1726   2.2338   2.2648   2.2744
  2.3099   2.3552   2.3585   2.3840   2.4332   2.4486   2.4523   2.4906
  2.5464   2.5899   2.5913   2.6099   2.6304   2.6503   2.6807   2.7145
  2.7397   2.7639   2.7832   2.8341   2.8495   2.8669   2.9033   2.9833
  3.0075   3.0359   3.0553   3.0650   3.0815   3.1058   3.1151   3.1558
  3.1815   3.1841   3.2030   3.2162   3.2611   3.2933   3.2961   3.3309
  3.3506   3.3652   3.3772   3.3947   3.4141   3.4472   3.4666   3.4989
  3.5103   3.5357   3.5764   3.5940   3.6220   3.6369   3.7060   3.7236
  3.7338   3.7815   3.8019   3.8284   3.8528   3.9257   3.9465   4.0306
  4.0743   4.0932   4.1315   4.2287   4.2873   4.4094   4.4437   4.4806
  4.5303   4.5565   4.5990   4.6948   4.7382   4.7919   4.8384   4.8567
  4.9405   4.9546   4.9964   5.0200   5.0317   5.0485   5.1507   5.1916
  5.2151   5.2926   5.3557   5.4307   5.4832   5.5179   5.5669   5.5817
  5.6660   5.6842   5.7497   5.7767   5.8651   6.0306   6.2316   6.2418
 22.6186  22.8526  23.1089  23.3401  32.6402  32.7639
 --------------------------------------------------------------
 
          Ground-State Mulliken Net Atomic Charges

     Atom                 Charge (a.u.)
  ----------------------------------------
      1 C                    -0.721433
      2 C                    -0.252336
      3 C                    -0.534723
      4 C                     0.551007
      5 N                     0.090176
      6 N                    -0.478626
      7 H                     0.184097
      8 H                     0.293963
      9 H                     0.257490
     10 H                     0.189664
     11 H                     0.205949
     12 H                     0.214772
  ----------------------------------------
  Sum of atomic charges =     0.000000

 -----------------------------------------------------------------
                    Cartesian Multipole Moments
 -----------------------------------------------------------------
    Charge (ESU x 10^10)
                 0.0000
    Dipole Moment (Debye)
         X      -0.8874      Y      -2.2656      Z       3.8354
       Tot       4.5421
    Quadrupole Moments (Debye-Ang)
        XX     -30.6728     XY      -1.7708     YY     -40.4112
        XZ       4.0260     YZ       3.9289     ZZ     -46.2089
    Octopole Moments (Debye-Ang^2)
       XXX      75.1904    XXY     -28.1942    XYY      23.8166
       YYY     -99.1826    XXZ      62.1648    XYZ       8.0230
       YYZ      79.0092    XZZ      12.0711    YZZ     -43.7765
       ZZZ     235.9653
    Hexadecapole Moments (Debye-Ang^3)
      XXXX    -401.8570   XXXY      97.7920   XXYY    -120.7453
      XYYY      88.7338   YYYY    -286.4139   XXXZ    -207.0410
      XXYZ      71.7458   XYYZ     -59.1538   YYYZ     252.3807
      XXZZ    -236.9337   XYZZ       6.4349   YYZZ    -246.8467
      XZZZ    -161.5900   YZZZ     275.8982   ZZZZ   -1116.0082
 -----------------------------------------------------------------
Archival summary:
1\1\nid00558\SP\ProcedureUnspecified\BasisUnspecified\246\meili\SunSep2618:35:542021SunSep2618:35:542021\0\\#,ProcedureUnspecified,BasisUnspecified,\\0,1\N\C,1,1.33741\H,2,1.07515,1,125.49\N,2,1.33083,1,109.345,3,178.31,0\H,4,1.02095,2,126.188,1,-176.608,0\C,4,1.38308,2,108.565,1,-0.277727,0\H,6,1.07856,4,126.83,2,-178.188,0\C,6,1.36242,4,106.926,2,0.0528846,0\C,8,1.51727,6,129.836,4,179.876,0\H,9,1.083,8,106.674,6,0.56552,0\H,9,1.08381,8,107.622,6,116.703,0\H,9,1.1,8,114.681,6,-122.568,0\\\@

 Total job time:  15997.97s(wall), 31334.08s(cpu) 
 Sun Sep 26 18:35:58 2021

        *************************************************************
        *                                                           *
        *  Thank you very much for using Q-Chem.  Have a nice day.  *
        *                                                           *
        *************************************************************


Done Job For Fragment 0
calling putenv with: QCSCRATCH=/global/cscratch1/sd/meili 
calling putenv with: QCLOCALSCR=/tmp 
calling putenv with: QCTHREADS=32 
Creating input file /tmp/qchem46050/Frg2.input
using default PutDataFrgm: nothing
calling putenv with: QCSCRATCH=/tmp/qchem46050/ 
calling putenv with: QCLOCALSCR=/tmp/qchem46050/ 
Spawning Job For Fragment 1
                  Welcome to Q-Chem
     A Quantum Leap Into The Future Of Chemistry


 Q-Chem 5.2, Q-Chem, Inc., Pleasanton, CA (2019)

 License issued to: National Energy Research Scientific Computing Center

 Yihan Shao,  Zhengting Gan,  E. Epifanovsky,  A. T. B. Gilbert,  M. Wormit,  
 J. Kussmann,  A. W. Lange,  A. Behn,  Jia Deng,  Xintian Feng,  D. Ghosh,  
 M. Goldey,  P. R. Horn,  L. D. Jacobson,  I. Kaliman,  T. Kus,  A. Landau,  
 Jie Liu,  E. I. Proynov,  R. M. Richard,  R. P. Steele,  E. J. Sundstrom,  
 H. L. Woodcock III,  P. M. Zimmerman,  D. Zuev,  B. Albrecht,  E. Alguire,  
 S. A. Baeppler,  D. Barton,  Z. Benda,  Y. A. Bernard,  E. J. Berquist,  
 K. B. Bravaya,  H. Burton,  D. Casanova,  Chun-Min Chang,  Yunqing Chen,  
 A. Chien,  K. D. Closser,  M. P. Coons,  S. Coriani,  S. Dasgupta,  
 A. L. Dempwolff,  M. Diedenhofen,  Hainam Do,  R. G. Edgar,  Po-Tung Fang,  
 S. Faraji,  S. Fatehi,  Qingguo Feng,  K. D. Fenk,  J. Fosso-Tande,  
 J. Gayvert,  Qinghui Ge,  A. Ghysels,  G. Gidofalvi,  J. Gomes,  
 J. Gonthier,  A. Gunina,  D. Hait,  M. W. D. Hanson-Heine,  
 P. H. P. Harbach,  A. W. Hauser,  M. F. Herbst,  J. E. Herr,  
 E. G. Hohenstein,  Z. C. Holden,  Kerwin Hui,  B. C. Huynh,  T.-C. Jagau,  
 Hyunjun Ji,  B. Kaduk,  K. Khistyaev,  Jaehoon Kim,  P. Klunzinger,  K. Koh,  
 D. Kosenkov,  L. Koulias,  T. Kowalczyk,  C. M. Krauter,  A. Kunitsa,  
 Ka Un Lao,  A. Laurent,  K. V. Lawler,  Joonho Lee,  D. Lefrancois,  
 S. Lehtola,  D. S. Levine,  Yi-Pei Li,  You-Sheng Lin,  Fenglai Liu,  
 E. Livshits,  A. Luenser,  P. Manohar,  E. Mansoor,  S. F. Manzer,  
 Shan-Ping Mao,  Yuezhi Mao,  N. Mardirossian,  A. V. Marenich,  
 T. Markovich,  L. A. Martinez-Martinez,  S. A. Maurer,  N. J. Mayhall,  
 S. C. McKenzie,  J.-M. Mewes,  P. Morgante,  A. F. Morrison,  
 J. W. Mullinax,  K. Nanda,  T. S. Nguyen-Beck,  R. Olivares-Amaya,  
 J. A. Parkhill,  Zheng Pei,  T. M. Perrine,  F. Plasser,  P. Pokhilko,  
 S. Prager,  A. Prociuk,  E. Ramos,  D. R. Rehn,  F. Rob,  M. Scheurer,  
 M. Schneider,  N. Sergueev,  S. M. Sharada,  S. Sharma,  D. W. Small,  
 T. Stauch,  T. Stein,  Yu-Chuan Su,  A. J. W. Thom,  A. Tkatchenko,  
 T. Tsuchimochi,  N. M. Tubman,  L. Vogt,  M. L. Vidal,  O. Vydrov,  
 M. A. Watson,  J. Wenzel,  M. de Wergifosse,  T. A. Wesolowski,  A. White,  
 J. Witte,  A. Yamada,  Jun Yang,  K. Yao,  S. Yeganeh,  S. R. Yost,  
 Zhi-Qiang You,  A. Zech,  Igor Ying Zhang,  Xing Zhang,  Yan Zhao,  
 Ying Zhu,  B. R. Brooks,  G. K. L. Chan,  C. J. Cramer,  M. S. Gordon,  
 W. J. Hehre,  A. Klamt,  M. W. Schmidt,  C. D. Sherrill,  D. G. Truhlar,  
 A. Aspuru-Guzik,  R. Baer,  A. T. Bell,  N. A. Besley,  Jeng-Da Chai,  
 A. E. DePrince, III,  R. A. DiStasio Jr.,  A. Dreuw,  B. D. Dunietz,  
 T. R. Furlani,  Chao-Ping Hsu,  Yousung Jung,  Jing Kong,  D. S. Lambrecht,  
 WanZhen Liang,  C. Ochsenfeld,  V. A. Rassolov,  L. V. Slipchenko,  
 J. E. Subotnik,  T. Van Voorhis,  J. M. Herbert,  A. I. Krylov,  
 P. M. W. Gill,  M. Head-Gordon

 Contributors to earlier versions of Q-Chem not listed above: 
 R. D. Adamson,  B. Austin,  J. Baker,  G. J. O. Beran,  K. Brandhorst,  
 S. T. Brown,  E. F. C. Byrd,  A. K. Chakraborty,  C.-L. Cheng,  
 Siu Hung Chien,  D. M. Chipman,  D. L. Crittenden,  H. Dachsel,  
 R. J. Doerksen,  A. D. Dutoi,  L. Fusti-Molnar,  W. A. Goddard III,  
 A. Golubeva-Zadorozhnaya,  S. R. Gwaltney,  G. Hawkins,  A. Heyden,  
 S. Hirata,  G. Kedziora,  F. J. Keil,  C. Kelley,  Jihan Kim,  R. A. King,  
 R. Z. Khaliullin,  P. P. Korambath,  W. Kurlancheek,  A. M. Lee,  M. S. Lee,  
 S. V. Levchenko,  Ching Yeh Lin,  D. Liotard,  R. C. Lochan,  I. Lotan,  
 P. E. Maslen,  N. Nair,  D. P. O'Neill,  D. Neuhauser,  E. Neuscamman,  
 C. M. Oana,  R. Olson,  B. Peters,  R. Peverati,  P. A. Pieniazek,  
 Y. M. Rhee,  J. Ritchie,  M. A. Rohrdanz,  E. Rosta,  N. J. Russ,  
 H. F. Schaefer III,  N. E. Schultz,  N. Shenvi,  A. C. Simmonett,  A. Sodt,  
 D. Stuck,  K. S. Thanthiriwatte,  V. Vanovschi,  Tao Wang,  A. Warshel,  
 C. F. Williams,  Q. Wu,  X. Xu,  W. Zhang

 Please cite Q-Chem as follows:
 Y. Shao et al., Mol. Phys. 113, 184-215 (2015)
 DOI: 10.1080/00268976.2014.952696

 Q-Chem 5.2.0 for Intel X86 EM64T Linux

 Parts of Q-Chem use Armadillo 8.300.2 (Tropical Shenanigans).
 http://arma.sourceforge.net/

 Q-Chem begins on Sun Sep 26 18:36:03 2021  

Host: cori01
0

     Scratch files written to /tmp/qchem46050//Frg2//
 May1019 |scratch|qcdevops|jenkins|workspace|build_RNUM -1
Processing $rem in /global/common/cori/software/qchem/5.2/config/preferences:
	 MEM_TOTAL  96000 
NAlpha2: 32
NElect   32
Mult     1
Symmetry turned off for PCM/SM12/SMD calculation

Checking the input file for inconsistencies... 	...done.

--------------------------------------------------------------
User input:
--------------------------------------------------------------
$molecule
-1 1
 6	2.2290141374	-1.4017909228	1.9701742614
 6	0.8850141374	-1.1367909228	2.6221742614
 8	-0.1029858626	-0.9527909228	1.8841742614
 8	0.8180141374	-1.0887909228	3.8701742614
 1	2.9170141374	-1.7127909228	2.7541742614
 1	2.6200141374	-0.4727909228	1.5501742614
 1	2.1924441374	-2.1563509228	1.1706092614
$end
$rem
EDA2		1
METHOD		WB97X-V
BASIS		DEF2-TZVPD
XC_GRID		000099000590
NL_GRID		1
UNRESTRICTED		FALSE
MAX_SCF_CYCLES		200
SYMMETRY		FALSE
SYM_IGNORE		TRUE
BASIS_LIN_DEP_THRESH		6
THRESH		14
SCF_CONVERGENCE		8
SCF_PRINT_FRGM		TRUE
SOLVENT_METHOD		PCM
!required keywords
JOBTYPE		SP
SYM_IGNORE		TRUE
SUBSYSTEM		TRUE
GEN_SCFMAN		TRUE
CHILD_INSTRUCTION		2
SYM_IGNORE		TRUE
SCFMI		0
RI_K 0		
PARI_K 0		
MIN_PARI_K 0		
IARI_K 0		
OCC_RI_K 0		
PURECART		1111
MEM_STATIC		2000
MEM_TOTAL		96000
GUI		0
CHILD_MP		1
CHILD_MP_ORDERS		232
FRZ_RELAX		0
FRZ_RELAX_METHOD		0
EDA_CLS_ELEC		1
EDA_CLS_DISP		0
FRZ_ORTHO_DECOMP		1
EDA2		FALSE
FRGM_METHOD		FALSE
CIS_N_ROOTS  0
LOCAL_CIS    0
CIS_RLX_DNS  1
$end
$pcm
THEORY                  CPCM
METHOD                  SWIG
SOLVER                  INVERSION
RADII                   UFF
HPOINTS                 302
HEAVYPOINTS             302
PRINTLEVEL              0
$end
$solvent
DIELECTRIC              78.390000 ! water
$end
--------------------------------------------------------------
 ----------------------------------------------------------------
             Standard Nuclear Orientation (Angstroms)
    I     Atom           X                Y                Z
 ----------------------------------------------------------------
    1      C       2.2290141374    -1.4017909228     1.9701742614
    2      C       0.8850141374    -1.1367909228     2.6221742614
    3      O      -0.1029858626    -0.9527909228     1.8841742614
    4      O       0.8180141374    -1.0887909228     3.8701742614
    5      H       2.9170141374    -1.7127909228     2.7541742614
    6      H       2.6200141374    -0.4727909228     1.5501742614
    7      H       2.1924441374    -2.1563509228     1.1706092614
 ----------------------------------------------------------------
 Nuclear Repulsion Energy =         112.88846103 hartrees
 There are       16 alpha and       16 beta electrons
 Requested basis set is def2-TZVPD
 There are 69 shells and 181 basis functions

 Total QAlloc Memory Limit  96000 MB
 Mega-Array Size      1956 MB
 MEM_STATIC part      2000 MB
 Discretize the solute cavity surface with Lebedev spheres
	Using 302 Lebedev grid points for each H atom
	Using 302 Lebedev grid points for other atoms
	Atomic van der Waals radii will be scaled by 1.20
 Remove points where switching function is < 1.0e-08
 Keep 1019 surface tesserae and discard 1095 interior tesserae
 Molecular Surface Area = 119.875 Angst**2

                       Distance Matrix (Angstroms)
             C (  1)   C (  2)   O (  3)   O (  4)   H (  5)   H (  6)
   C (  2)  1.517124
   O (  3)  2.376388  1.246854
   O (  4)  2.387235  1.250719  2.193384
   H (  5)  1.088449  2.116181  3.233404  2.457770
   H (  6)  1.091935  2.144832  2.785083  3.001510  1.753689
   H (  7)  1.100001  2.203614  2.688258  3.211914  1.797060  1.777993

 
 A cutoff of  1.0D-14 yielded   2391 shell pairs
 There are     16695 function pairs (     21491 Cartesian)
 Smallest overlap matrix eigenvalue = 1.62E-05

 Scale SEOQF with 1.000000e-01/1.000000e-01/1.000000e-01

 Standard Electronic Orientation quadrupole field applied
 Nucleus-field energy     =    -0.0000000187 hartrees
 Guess from superposition of atomic densities
 Warning:  Energy on first SCF cycle will be non-variational
 SAD guess density has 30.625312 electrons

 -----------------------------------------------------------------------
  General SCF calculation program by
  Eric Jon Sundstrom, Paul Horn, Yuezhi Mao, Dmitri Zuev, Alec White,
  David Stuck, Shaama M.S., Shane Yost, Joonho Lee, David Small,
  Daniel Levine, Susi Lehtola, Hugh Burton, Evgeny Epifanovsky
 -----------------------------------------------------------------------
 Exchange:     0.1670 Hartree-Fock + 1.0000 wB97X-V + LR-HF
 Correlation:  1.0000 wB97X-V
 Using Euler-Maclaurin-Lebedev (99,590) quadrature formula
 Nonlocal Correlation:  VV10 with C = 0.0100 and b = 6.00 and scale = 1.00000
 Grid used for NLC:  SG-1 standard quadrature
Energy prior to optimization (guess energy) = -227.763797223827
Begin Timing: Total SCF Calculation
begin iterations for algorithm: DIIS         
the SCF tolerance is set to 1.00e-08
    1    -227.7637972238      1.66e-02     00000 
    2    -225.5985968083      2.54e-02     00000 
    3    -228.5766068726      4.13e-03     00000 
    4    -228.6356319283      1.37e-03     00000 
    5    -228.6416927481      2.24e-04     00000 
    6    -228.6419164535      1.60e-04     00000 
    7    -228.6419845834      5.35e-05     00000 
    8    -228.6419959843      1.38e-05     00000 
    9    -228.6419972770      2.87e-06     00000 
   10    -228.6419973804      4.88e-07     00000 
   11    -228.6419973833      2.35e-07     00000 
   12    -228.6419973838      6.06e-08     00000 
   13    -228.6419973838      1.73e-08     00000 
   14    -228.6419973838      2.77e-09     00000 Convergence criterion met
Timing for Total SCF: 292.00s (wall), 571.49s (cpu)

************** Final PCM Free Energy Summary **************
 G_electrostatic  =      -0.10180865 hartree =     -63.88588926 kcal/mol
 G_cavitation     =       0.00000000 hartree =       0.00000000 kcal/mol
 G_dispersion     =       0.00000000 hartree =       0.00000000 kcal/mol
 G_repulsion      =       0.00000000 hartree =       0.00000000 kcal/mol
 --------------------------------------------------
 Non-electrostatic Free Energy =       0.00000000 hartree =       0.00000000 kcal/mol
 Total                         =      -0.10180865 hartree =     -63.88588926 kcal/mol
 --------------------------------------------------
 SCF Energy (H0 + V/2)                       =    -228.64199738 
 Solute Internal Energy (H0)                 =    -228.54018874 
 Total Free Energy (H0 + V/2 + non-elec)     =    -228.64199738 hartree
                                             = -143475.01882672 kcal/mol
***********************************************************

E_pcm = -0.1018086455
Multipole orders to be included
        2
        3
computing dipole RHS
computing quadrupole RHS
total number of RHS in solve_reponses: 8
RHS batch sizes
        8
Beginning Block Conjugate Gradient Iterations. Batch Number: 0
computing hessian-vector products by finite difference
              1      7.08e-01     00000 Conjugate Gradient Iteration
computing hessian-vector products by finite difference
              2      2.56e-01     00000 Conjugate Gradient Iteration
computing hessian-vector products by finite difference
              3      6.82e-02     00000 Conjugate Gradient Iteration
computing hessian-vector products by finite difference
              4      1.81e-02     00000 Conjugate Gradient Iteration
computing hessian-vector products by finite difference
              5      3.16e-03     00000 Conjugate Gradient Iteration
computing hessian-vector products by finite difference
              6      7.50e-04     00000 Conjugate Gradient Iteration
computing hessian-vector products by finite difference
              7      1.22e-04     00000 Conjugate Gradient Iteration
computing hessian-vector products by finite difference
              8      1.47e-05     00000 Conjugate Gradient Iteration
computing hessian-vector products by finite difference
              9      2.34e-06     00000 Conjugate Gradient Iteration
computing hessian-vector products by finite difference
             10      2.76e-07     00000 Conjugate Gradient Iteration
computing hessian-vector products by finite difference
             11      7.43e-08     00000 Conjugate Gradient Iteration
computing hessian-vector products by finite difference
             12      1.87e-08     00000 Conjugate Gradient Iteration
computing hessian-vector products by finite difference
             13      4.91e-09     00000 CG Converged
batch 0 complete
Done Calculating Responses
TESTING ORTHOGONALIZATION OF MULTIPOLE BASIS
Multipole virts passed orthogonality test
Virts Per Order
        48
        80
 
 --------------------------------------------------------------
 
                    Orbital Energies (a.u.)
 --------------------------------------------------------------
 
 Alpha MOs
 -- Occupied --
-19.1216 -19.1201 -10.3233 -10.2386  -1.1333  -1.0318  -0.8293  -0.5922
 -0.5286  -0.5200  -0.5148  -0.4627  -0.4430  -0.3288  -0.3261  -0.3078
 -- Virtual --
  0.0633   0.0954   0.0959   0.1052   0.1304   0.1410   0.1426   0.1454
  0.1685   0.1906   0.1993   0.2216   0.2323   0.2371   0.2638   0.2696
  0.2992   0.3123   0.3344   0.3471   0.3569   0.3600   0.3747   0.3834
  0.3916   0.4079   0.4258   0.4278   0.4328   0.4606   0.4735   0.4769
  0.4932   0.4979   0.5067   0.5215   0.5639   0.5820   0.5981   0.6126
  0.6218   0.6438   0.6479   0.6587   0.6726   0.6824   0.7006   0.7117
  0.7248   0.7359   0.7775   0.8023   0.8089   0.8204   0.8508   0.8594
  0.8681   0.9790   0.9884   0.9959   1.0070   1.0517   1.0640   1.1265
  1.1657   1.2234   1.2607   1.2870   1.2875   1.3157   1.3540   1.3653
  1.4498   1.5720   1.6116   1.7439   1.8279   1.8702   1.8747   1.9204
  1.9360   1.9538   1.9655   1.9751   2.0153   2.1191   2.1405   2.1909
  2.2067   2.2240   2.3142   2.3528   2.4164   2.4526   2.4899   2.5069
  2.5744   2.5918   2.6402   2.6550   2.7933   2.8184   2.8907   2.9107
  2.9603   3.0155   3.0546   3.1766   3.2175   3.2525   3.2873   3.3152
  3.3453   3.3544   3.3964   3.4179   3.4304   3.5439   3.5839   3.5970
  3.6154   3.6747   3.7109   3.7434   3.7805   3.8834   3.9560   4.0704
  4.1007   4.1989   4.3484   4.5405   4.6481   4.6708   4.8085   4.8501
  4.9935   5.3333   5.3607   5.3708   5.3777   5.5068   5.7213   5.7799
  5.8290   6.0350   6.2474   6.3493   6.3638   6.6320   6.6329   6.7247
  6.7496   6.7637   6.9690   6.9828   7.0478   7.2557   7.3634   7.3954
  7.4210  22.5976  23.7587  44.2249  44.3628
 --------------------------------------------------------------
 
          Ground-State Mulliken Net Atomic Charges

     Atom                 Charge (a.u.)
  ----------------------------------------
      1 C                    -0.408844
      2 C                     0.290830
      3 O                    -0.676019
      4 O                    -0.676068
      5 H                     0.156207
      6 H                     0.138603
      7 H                     0.175291
  ----------------------------------------
  Sum of atomic charges =    -1.000000

 -----------------------------------------------------------------
                    Cartesian Multipole Moments
 -----------------------------------------------------------------
    Charge (ESU x 10^10)
                -4.8032
    Dipole Moment (Debye)
         X      -0.2457      Y       4.6253      Z     -14.5200
       Tot      15.2409
    Quadrupole Moments (Debye-Ang)
        XX     -27.4359     XY       0.6187     YY     -30.0040
        XZ      -4.8970     YZ      14.6103     ZZ     -78.0267
    Octopole Moments (Debye-Ang^2)
       XXX     -83.8579    XXY      32.5721    XYY     -27.2000
       YYY      93.2579    XXZ     -73.3670    XYZ       6.0222
       YYZ     -80.5943    XZZ     -55.9269    YZZ      83.9052
       ZZZ    -401.0902
    Hexadecapole Moments (Debye-Ang^3)
      XXXX    -347.7210   XXXY     112.7785   XXYY    -100.2074
      XYYY     106.2461   YYYY    -250.8453   XXXZ    -205.2643
      XXYZ      84.0790   XYYZ     -72.7680   YYYZ     241.7141
      XXZZ    -281.4091   XYZZ      67.6234   YYZZ    -290.6871
      XZZZ    -336.5119   YZZZ     440.5373   ZZZZ   -1967.7062
 -----------------------------------------------------------------
Archival summary:
1\1\nid00558\SP\ProcedureUnspecified\BasisUnspecified\223(1-,1)\meili\SunSep2619:59:132021SunSep2619:59:132021\0\\#,ProcedureUnspecified,BasisUnspecified,\\-1,1\C\O,1,1.24685\O,1,1.25072,2,122.853\C,1,1.51712,2,118.254,3,-178.715,0\H,4,1.08845,1,107.477,2,-169.909,0\H,4,1.09193,1,109.506,2,74.0948,0\H,4,1.1,1,113.75,2,-47.3748,0\\\@

 Total job time:  4993.60s(wall), 9745.59s(cpu) 
 Sun Sep 26 19:59:17 2021

        *************************************************************
        *                                                           *
        *  Thank you very much for using Q-Chem.  Have a nice day.  *
        *                                                           *
        *************************************************************


Done Job For Fragment 1
calling putenv with: QCSCRATCH=/global/cscratch1/sd/meili 
calling putenv with: QCLOCALSCR=/tmp 
calling putenv with: QCTHREADS=32 
Doing General SCFMI
 Exchange:     0.1670 Hartree-Fock + 1.0000 wB97X-V + LR-HF
 Correlation:  1.0000 wB97X-V
 Using Euler-Maclaurin-Lebedev (99,590) quadrature formula
 Nonlocal Correlation:  VV10 with C = 0.0100 and b = 6.00 and scale = 1.00000
 Grid used for NLC:  SG-1 standard quadrature
performing fock build before subrot guess so that all methods have access
Printing subrot_rss_gen Method Specification:
Occupied Subspace Method is 0
Virtual Subspace Method is 0
Energy of the unrelaxed supersystem initial determinant -494.114988700980
performing fock build before subrot guess so that all methods have access
Printing subrot_rss_gen Method Specification:
Occupied Subspace Method is 0
Virtual Subspace Method is 0
Energy of the unrelaxed supersystem initial determinant w/ solvent -494.207270064622
write pseudocanon occs and virts to disk
write pseudocanon orbital energies to disk
Tolerance of ortho_decomp_scf: 1.00e-06
GDM subspace size: 20
Beginning the Orthogonal Decomposition of the Initial Supersystem Wavefunction
    1    -494.0087240318      9.92e-02     ortho_decomp Preconditoned Steepest Descent
    2    -494.0250066652      2.69e-03     ortho_decomp BFGS Step
    3    -494.0250740503      2.54e-04     ortho_decomp BFGS Step
    4    -494.0250742305      1.22e-05     ortho_decomp BFGS Step
    5    -494.0250742311      4.56e-07     ortho_decomp 00000 Convergence criterion met
 Hartree-Fock
 Hartree-Fock
 Hartree-Fock
Doing General SCFMI
 Exchange:     0.1670 Hartree-Fock + 1.0000 wB97X-V + LR-HF
 Correlation:  1.0000 wB97X-V
 Using Euler-Maclaurin-Lebedev (99,590) quadrature formula
 Nonlocal Correlation:  VV10 with C = 0.0100 and b = 6.00 and scale = 1.00000
 Grid used for NLC:  SG-1 standard quadrature
performing fock build at end of subrot_r(subrot) constructor so that all methods have access
<S^2> of initial wavefunction before polarization iterations 0.0000000000
Beginning iterations for the determination of the polarized wavefunction
Energy prior to optimization (guess energy) = -494.207270064622
Begin Timing: Total SCF Calculation
begin iterations for algorithm: DIIS         
the SCF tolerance is set to 1.00e-08
    1    -494.2072700646      2.96e-04     00000 
    2    -494.2124386439      1.19e-04     00000 
    3    -494.2129484916      8.86e-05     00000 
    4    -494.2132010656      2.16e-05     00000 
    5    -494.2132323551      1.07e-05     00000 
    6    -494.2132402094      4.93e-06     00000 
    7    -494.2132420282      2.31e-06     00000 
    8    -494.2132423576      1.15e-06     00000 
    9    -494.2132424211      4.69e-07     00000 
   10    -494.2132424295      1.57e-07     00000 
   11    -494.2132424309      6.28e-08     00000 
   12    -494.2132424310      3.77e-08     00000 
   13    -494.2132424311      1.31e-08     00000 
   14    -494.2132424311      6.08e-09     00000 Convergence criterion met
write pseudocanon occs and virts to disk
write pseudocanon orbital energies to disk
Timing for Total SCF: 3618.00s (wall), 7191.76s (cpu)
<S^2> of polarized wavefunction after polarization iterations 0.0000000000
relaxing scfmi constraint to allow all rotations in the entire AO span
Doing General SCFMI
 Exchange:     0.1670 Hartree-Fock + 1.0000 wB97X-V + LR-HF
 Correlation:  1.0000 wB97X-V
 Using Euler-Maclaurin-Lebedev (99,590) quadrature formula
 Nonlocal Correlation:  VV10 with C = 0.0100 and b = 6.00 and scale = 1.00000
 Grid used for NLC:  SG-1 standard quadrature
performing fock build at end of subrot_r(subrot) constructor so that all methods have access
<S^2> of polarized wavefunction before ct-allowed iterations 0.0000000000
Beginning iterations for the determination of the CT-Allowed wavefunction
Energy prior to optimization (guess energy) = -494.213242431100
Begin Timing: Total SCF Calculation
begin iterations for algorithm: DIIS         
the SCF tolerance is set to 1.00e-08
    1    -494.2132424311      2.60e-04     00000 
    2    -494.2214878235      4.52e-05     00000 
    3    -494.2218388593      2.73e-05     00000 
    4    -494.2218918593      1.00e-05     00000 
    5    -494.2219023073      3.16e-06     00000 
    6    -494.2219032454      1.01e-06     00000 
    7    -494.2219034014      4.17e-07     00000 
    8    -494.2219034276      1.00e-07     00000 
    9    -494.2219034302      5.07e-08     00000 
   10    -494.2219034307      1.75e-08     00000 
   11    -494.2219034308      5.56e-09     00000 Convergence criterion met
write pseudocanon occs and virts to disk
write pseudocanon orbital energies to disk
Timing for Total SCF: 2796.00s (wall), 5555.57s (cpu)
<S^2> of ct_allowed wavefunction after ct-allowed iterations 0.0000000000

================================
        Results of EDA2         
================================
Basic EDA Quantities
--------------------
Fragment Energies (Ha):
1 -265.5642729907
2 -228.6419973838
--------------------
  E_prp (kJ/mol) = -0.0000
  E_sol (kJ/mol) = 53.7125
  E_frz (kJ/mol) = -56.3373
  E_pol (kJ/mol) = -15.6806
  E_vct (kJ/mol) = -22.7397
  E_int (kJ/mol) = -41.0451
--------------------


Initial Wavefunction Decomposition
--------------------
  --------------------
  Orthogonal Fragment Subspace Decomposition:
  --------------------
     E_elec   (ELEC)   (kJ/mol) = -189.2838
     E_pauli  (PAULI)  (kJ/mol) = 150.9475
     E_disp   (DISP)   (kJ/mol) = -18.0010
     --------------------
     Terms summing to E_pauli:
     --------------------
        E_kep_pauli       (kJ/mol) = 179.7360
        E_disp_free_pauli (kJ/mol) = -28.7884
  --------------------
  Classical Frozen Decomposition:
  --------------------
     E_cls_elec  (CLS ELEC)  (kJ/mol) = -137.3491
     E_cls_pauli (CLS PAULI) (kJ/mol) = 81.0119
    [E_mod_pauli (MOD PAULI) (kJ/mol) = 99.0129 (CLS PAULI - DISP from orthogonal decomposition) ]
  --------------------
--------------------

Simplified EDA Summary (kJ/mol)
--------------------
 PREPARATION     -0.0000
 SOLVATION       53.7125
 FROZEN          -38.3362      (does not include dispersion)
[PAULI           150.9475]     (if this is negligible, then frozen describes electrostatics)
 DISPERSION      -18.0010
 POLARIZATION    -15.6806
 CHARGE TRANSFER -22.7397
 TOTAL           -41.0451     (PRP + SOL + FRZ + DISP + POL + CT)
--------------------
 
 --------------------------------------------------------------
 
                    Orbital Energies (a.u.)
 --------------------------------------------------------------
 
 Alpha MOs
 -- Occupied --
-19.1375 -19.1309 -14.4362 -14.3780 -10.3360 -10.3099 -10.2793 -10.2781
-10.2608 -10.2453  -1.1484  -1.1350  -1.0474  -0.9780  -0.8887  -0.8371
 -0.8182  -0.7129  -0.6745  -0.6574  -0.6025  -0.5543  -0.5512  -0.5377
 -0.5349  -0.5278  -0.5234  -0.5066  -0.4917  -0.4761  -0.4694  -0.4528
 -0.3671  -0.3639  -0.3418  -0.3394  -0.3217  -0.3152
 -- Virtual --
  0.0594   0.0730   0.0837   0.0927   0.0970   0.1089   0.1124   0.1176
  0.1245   0.1283   0.1363   0.1381   0.1423   0.1562   0.1597   0.1681
  0.1749   0.1762   0.1887   0.1924   0.2013   0.2069   0.2151   0.2195
  0.2264   0.2277   0.2358   0.2422   0.2532   0.2633   0.2660   0.2733
  0.2783   0.2880   0.2892   0.3008   0.3036   0.3067   0.3128   0.3153
  0.3200   0.3253   0.3280   0.3365   0.3396   0.3457   0.3530   0.3553
  0.3596   0.3630   0.3656   0.3696   0.3798   0.3841   0.3869   0.3900
  0.3942   0.4026   0.4113   0.4145   0.4168   0.4225   0.4269   0.4318
  0.4334   0.4449   0.4490   0.4504   0.4590   0.4698   0.4775   0.4792
  0.4874   0.4886   0.4965   0.4982   0.5005   0.5065   0.5106   0.5239
  0.5309   0.5331   0.5397   0.5490   0.5549   0.5605   0.5683   0.5721
  0.5751   0.5826   0.5915   0.5988   0.6035   0.6077   0.6096   0.6113
  0.6207   0.6299   0.6423   0.6493   0.6506   0.6565   0.6697   0.6722
  0.6773   0.6789   0.6844   0.6933   0.6992   0.7029   0.7083   0.7126
  0.7204   0.7253   0.7330   0.7422   0.7468   0.7472   0.7513   0.7622
  0.7721   0.7776   0.7844   0.7925   0.7946   0.8008   0.8099   0.8224
  0.8233   0.8317   0.8372   0.8458   0.8493   0.8576   0.8586   0.8661
  0.8705   0.9020   0.9041   0.9210   0.9316   0.9390   0.9445   0.9562
  0.9699   0.9818   0.9963   1.0075   1.0208   1.0224   1.0374   1.0458
  1.0595   1.0714   1.0915   1.0936   1.1029   1.1209   1.1225   1.1434
  1.1539   1.1565   1.1633   1.1878   1.1991   1.2300   1.2350   1.2523
  1.2573   1.2643   1.2699   1.2933   1.3187   1.3243   1.3341   1.3491
  1.3645   1.3786   1.3828   1.3995   1.4131   1.4301   1.4426   1.4606
  1.4727   1.4823   1.5426   1.5781   1.6049   1.6266   1.6362   1.6412
  1.6576   1.6766   1.6980   1.7300   1.7419   1.7836   1.8326   1.8350
  1.8496   1.8628   1.8777   1.8989   1.9083   1.9205   1.9239   1.9309
  1.9571   1.9603   1.9674   1.9716   1.9788   1.9833   1.9894   1.9998
  2.0080   2.0256   2.0441   2.0510   2.0830   2.0869   2.1048   2.1118
  2.1513   2.1631   2.1831   2.1963   2.2129   2.2385   2.2505   2.2742
  2.2870   2.3137   2.3397   2.3610   2.3860   2.4169   2.4305   2.4370
  2.4569   2.4804   2.4870   2.4994   2.5145   2.5287   2.5633   2.5811
  2.5938   2.5989   2.6180   2.6293   2.6418   2.6508   2.6665   2.6809
  2.6980   2.7077   2.7466   2.7715   2.7849   2.8192   2.8266   2.8464
  2.8521   2.8717   2.8791   2.9074   2.9196   2.9322   2.9543   2.9749
  3.0302   3.0478   3.0520   3.0800   3.0894   3.0994   3.1132   3.1283
  3.1534   3.1765   3.1910   3.1977   3.2102   3.2241   3.2306   3.2475
  3.2532   3.2832   3.2863   3.3162   3.3198   3.3321   3.3428   3.3510
  3.3593   3.3840   3.3888   3.3982   3.4050   3.4267   3.4298   3.4427
  3.4608   3.4703   3.4822   3.4946   3.5159   3.5373   3.5619   3.5746
  3.5921   3.6036   3.6227   3.6447   3.6521   3.6606   3.6829   3.6954
  3.7384   3.7486   3.7509   3.7606   3.7735   3.7906   3.8244   3.8314
  3.8480   3.8796   3.8984   3.9521   3.9617   3.9890   4.0663   4.0861
  4.0912   4.1034   4.1280   4.1547   4.2242   4.2598   4.3079   4.3558
  4.4230   4.4662   4.5054   4.5430   4.5500   4.5715   4.6164   4.6660
  4.6930   4.7082   4.7557   4.8337   4.8525   4.8645   4.8881   4.9033
  4.9660   5.0050   5.0102   5.0318   5.0417   5.0575   5.0766   5.1866
  5.2337   5.2714   5.3194   5.3358   5.3518   5.3727   5.3756   5.4240
  5.4587   5.4995   5.5137   5.5395   5.6083   5.6331   5.7035   5.7234
  5.7446   5.7849   5.8059   5.8182   5.8953   5.9169   6.0442   6.0547
  6.2497   6.2653   6.3126   6.3576   6.3860   6.6412   6.6632   6.7544
  6.7604   6.8219   6.9759   7.0305   7.0666   7.2684   7.3755   7.4330
  7.4684  22.6310  22.6669  22.9117  23.1922  23.3678  23.7812  32.8086
 32.8707  44.3902  44.4212
 --------------------------------------------------------------
 
          Ground-State Mulliken Net Atomic Charges

     Atom                 Charge (a.u.)
  ----------------------------------------
      1 C                    -0.786459
      2 C                    -0.227955
      3 C                    -0.286944
      4 C                     0.268066
      5 N                     0.335667
      6 N                    -0.523116
      7 H                     0.091377
      8 H                     0.292586
      9 H                     0.253145
     10 H                     0.194261
     11 H                     0.202914
     12 H                     0.217647
     13 C                    -0.448565
     14 C                     0.338989
     15 O                    -0.735056
     16 O                    -0.671374
     17 H                     0.155815
     18 H                     0.133145
     19 H                     0.195857
  ----------------------------------------
  Sum of atomic charges =    -1.000000

 -----------------------------------------------------------------
                    Cartesian Multipole Moments
 -----------------------------------------------------------------
    Charge (ESU x 10^10)
                -4.8032
    Dipole Moment (Debye)
         X      -0.7741      Y       1.6236      Z      -9.0216
       Tot       9.1992
    Quadrupole Moments (Debye-Ang)
        XX     -58.2786     XY      -1.3095     YY     -70.4838
        XZ      -0.6862     YZ      18.5761     ZZ    -123.6066
    Octopole Moments (Debye-Ang^2)
       XXX      -4.3352    XXY       1.7915    XYY      -1.9354
       YYY      -9.7422    XXZ      -6.0204    XYZ      12.2873
       YYZ       2.8169    XZZ     -39.4615    YZZ      33.4288
       ZZZ    -144.4044
    Hexadecapole Moments (Debye-Ang^3)
      XXXX    -749.3883   XXXY     208.8182   XXYY    -220.5987
      XYYY     194.3247   YYYY    -537.9867   XXXZ    -411.0273
      XXYZ     155.6125   XYYZ    -131.6964   YYYZ     494.9412
      XXZZ    -518.1443   XYZZ      73.6505   YYZZ    -537.5687
      XZZZ    -495.2179   YZZZ     713.7404   ZZZZ   -3061.1902
 -----------------------------------------------------------------
Archival summary:
1\1\nid00558\SP\ProcedureUnspecified\BasisUnspecified\2269(1-,1)\meili\SunSep2622:52:212021SunSep2622:52:212021\0\\#,ProcedureUnspecified,BasisUnspecified,\\-1,1\N\H,1,1.02095\C,1,1.33083,2,126.188\H,3,1.07515,1,125.141,2,1.7093,0\N,3,1.33741,1,109.345,2,-176.608,0\C,1,1.38308,2,125.136,3,-175.745,0\H,6,1.07856,1,126.83,2,-1.81027,0\C,6,1.36242,1,106.926,2,176.431,0\C,8,1.51727,6,129.836,1,179.876,0\H,9,1.083,8,106.674,6,0.56552,0\H,9,1.08381,8,107.622,6,116.703,0\H,9,1.1,8,114.681,6,-122.568,0\O,2,1.71243,1,163.188,3,134.843,0\C,13,1.24685,2,123.786,1,-138.359,0\O,14,1.25072,13,122.853,2,155.404,0\C,14,1.51712,13,118.254,2,-23.3114,0\H,16,1.08845,14,107.477,13,-169.909,0\H,16,1.09193,14,109.506,13,74.0948,0\H,16,1.1,14,113.75,13,-47.3748,0\\\@

 Total job time:  31389.34s(wall), 20665.41s(cpu) 
 Sun Sep 26 22:52:25 2021

        *************************************************************
        *                                                           *
        *  Thank you very much for using Q-Chem.  Have a nice day.  *
        *                                                           *
        *************************************************************


