
Running Job 1 of 1 SSI-040ASN-090ARG-1_SMD_TZVPD.in
qchem SSI-040ASN-090ARG-1_SMD_TZVPD.in_31627.0 /tmp/qchem31627/ 0
/global/common/cori/software/qchem/5.2/exe/qcprog.exe_s SSI-040ASN-090ARG-1_SMD_TZVPD.in_31627.0 /tmp/qchem31627/
                  Welcome to Q-Chem
     A Quantum Leap Into The Future Of Chemistry


 Q-Chem 5.2, Q-Chem, Inc., Pleasanton, CA (2019)

 License issued to: National Energy Research Scientific Computing Center

 Yihan Shao,  Zhengting Gan,  E. Epifanovsky,  A. T. B. Gilbert,  M. Wormit,  
 J. Kussmann,  A. W. Lange,  A. Behn,  Jia Deng,  Xintian Feng,  D. Ghosh,  
 M. Goldey,  P. R. Horn,  L. D. Jacobson,  I. Kaliman,  T. Kus,  A. Landau,  
 Jie Liu,  E. I. Proynov,  R. M. Richard,  R. P. Steele,  E. J. Sundstrom,  
 H. L. Woodcock III,  P. M. Zimmerman,  D. Zuev,  B. Albrecht,  E. Alguire,  
 S. A. Baeppler,  D. Barton,  Z. Benda,  Y. A. Bernard,  E. J. Berquist,  
 K. B. Bravaya,  H. Burton,  D. Casanova,  Chun-Min Chang,  Yunqing Chen,  
 A. Chien,  K. D. Closser,  M. P. Coons,  S. Coriani,  S. Dasgupta,  
 A. L. Dempwolff,  M. Diedenhofen,  Hainam Do,  R. G. Edgar,  Po-Tung Fang,  
 S. Faraji,  S. Fatehi,  Qingguo Feng,  K. D. Fenk,  J. Fosso-Tande,  
 J. Gayvert,  Qinghui Ge,  A. Ghysels,  G. Gidofalvi,  J. Gomes,  
 J. Gonthier,  A. Gunina,  D. Hait,  M. W. D. Hanson-Heine,  
 P. H. P. Harbach,  A. W. Hauser,  M. F. Herbst,  J. E. Herr,  
 E. G. Hohenstein,  Z. C. Holden,  Kerwin Hui,  B. C. Huynh,  T.-C. Jagau,  
 Hyunjun Ji,  B. Kaduk,  K. Khistyaev,  Jaehoon Kim,  P. Klunzinger,  K. Koh,  
 D. Kosenkov,  L. Koulias,  T. Kowalczyk,  C. M. Krauter,  A. Kunitsa,  
 Ka Un Lao,  A. Laurent,  K. V. Lawler,  Joonho Lee,  D. Lefrancois,  
 S. Lehtola,  D. S. Levine,  Yi-Pei Li,  You-Sheng Lin,  Fenglai Liu,  
 E. Livshits,  A. Luenser,  P. Manohar,  E. Mansoor,  S. F. Manzer,  
 Shan-Ping Mao,  Yuezhi Mao,  N. Mardirossian,  A. V. Marenich,  
 T. Markovich,  L. A. Martinez-Martinez,  S. A. Maurer,  N. J. Mayhall,  
 S. C. McKenzie,  J.-M. Mewes,  P. Morgante,  A. F. Morrison,  
 J. W. Mullinax,  K. Nanda,  T. S. Nguyen-Beck,  R. Olivares-Amaya,  
 J. A. Parkhill,  Zheng Pei,  T. M. Perrine,  F. Plasser,  P. Pokhilko,  
 S. Prager,  A. Prociuk,  E. Ramos,  D. R. Rehn,  F. Rob,  M. Scheurer,  
 M. Schneider,  N. Sergueev,  S. M. Sharada,  S. Sharma,  D. W. Small,  
 T. Stauch,  T. Stein,  Yu-Chuan Su,  A. J. W. Thom,  A. Tkatchenko,  
 T. Tsuchimochi,  N. M. Tubman,  L. Vogt,  M. L. Vidal,  O. Vydrov,  
 M. A. Watson,  J. Wenzel,  M. de Wergifosse,  T. A. Wesolowski,  A. White,  
 J. Witte,  A. Yamada,  Jun Yang,  K. Yao,  S. Yeganeh,  S. R. Yost,  
 Zhi-Qiang You,  A. Zech,  Igor Ying Zhang,  Xing Zhang,  Yan Zhao,  
 Ying Zhu,  B. R. Brooks,  G. K. L. Chan,  C. J. Cramer,  M. S. Gordon,  
 W. J. Hehre,  A. Klamt,  M. W. Schmidt,  C. D. Sherrill,  D. G. Truhlar,  
 A. Aspuru-Guzik,  R. Baer,  A. T. Bell,  N. A. Besley,  Jeng-Da Chai,  
 A. E. DePrince, III,  R. A. DiStasio Jr.,  A. Dreuw,  B. D. Dunietz,  
 T. R. Furlani,  Chao-Ping Hsu,  Yousung Jung,  Jing Kong,  D. S. Lambrecht,  
 WanZhen Liang,  C. Ochsenfeld,  V. A. Rassolov,  L. V. Slipchenko,  
 J. E. Subotnik,  T. Van Voorhis,  J. M. Herbert,  A. I. Krylov,  
 P. M. W. Gill,  M. Head-Gordon

 Contributors to earlier versions of Q-Chem not listed above: 
 R. D. Adamson,  B. Austin,  J. Baker,  G. J. O. Beran,  K. Brandhorst,  
 S. T. Brown,  E. F. C. Byrd,  A. K. Chakraborty,  C.-L. Cheng,  
 Siu Hung Chien,  D. M. Chipman,  D. L. Crittenden,  H. Dachsel,  
 R. J. Doerksen,  A. D. Dutoi,  L. Fusti-Molnar,  W. A. Goddard III,  
 A. Golubeva-Zadorozhnaya,  S. R. Gwaltney,  G. Hawkins,  A. Heyden,  
 S. Hirata,  G. Kedziora,  F. J. Keil,  C. Kelley,  Jihan Kim,  R. A. King,  
 R. Z. Khaliullin,  P. P. Korambath,  W. Kurlancheek,  A. M. Lee,  M. S. Lee,  
 S. V. Levchenko,  Ching Yeh Lin,  D. Liotard,  R. C. Lochan,  I. Lotan,  
 P. E. Maslen,  N. Nair,  D. P. O'Neill,  D. Neuhauser,  E. Neuscamman,  
 C. M. Oana,  R. Olson,  B. Peters,  R. Peverati,  P. A. Pieniazek,  
 Y. M. Rhee,  J. Ritchie,  M. A. Rohrdanz,  E. Rosta,  N. J. Russ,  
 H. F. Schaefer III,  N. E. Schultz,  N. Shenvi,  A. C. Simmonett,  A. Sodt,  
 D. Stuck,  K. S. Thanthiriwatte,  V. Vanovschi,  Tao Wang,  A. Warshel,  
 C. F. Williams,  Q. Wu,  X. Xu,  W. Zhang

 Please cite Q-Chem as follows:
 Y. Shao et al., Mol. Phys. 113, 184-215 (2015)
 DOI: 10.1080/00268976.2014.952696

 Q-Chem 5.2.0 for Intel X86 EM64T Linux

 Parts of Q-Chem use Armadillo 8.300.2 (Tropical Shenanigans).
 http://arma.sourceforge.net/

 Q-Chem begins on Sun Sep 26 06:29:50 2021  

Host: cori01
0

     Scratch files written to /tmp/qchem31627//
 May1019 |scratch|qcdevops|jenkins|workspace|build_RNUM -1
Processing $rem in /global/common/cori/software/qchem/5.2/config/preferences:
	 MEM_TOTAL  96000 
NAlpha2: 80
NElect   80
Mult     1
Symmetry turned off for PCM/SM12/SMD calculation

 Q-Chem warning in module libgen/rem_setup.C, line 2803:

 Neither GIA nor STOLL is specified by user. Use STOLL as the default


Checking the input file for inconsistencies... 	...done.

--------------------------------------------------------------
User input:
--------------------------------------------------------------
$comment
SSI-040ASN-090ARG-1.pdb
$end

$molecule
1 1
--
0 1
C   -0.226769957650    0.620536490981    3.632376770613
C    0.522230042350    0.295536490981    2.385376770613
O    0.480230042350    1.027536490981    1.403376770613
N    1.209230042350   -0.830463509019    2.403376770613
H    0.441230042350    0.576536490981    4.487376770613
H   -0.922769957650   -0.208463509019    3.765376770613
H    1.912230042350   -0.973463509019    1.694376770613
H    1.225230042350   -1.399463509019    3.240376770613
H   -0.811279957650    1.548866490981    3.551436770613
--
1 1
C   -1.317769957650    0.739536490981   -1.014623229387
C   -2.310769957650    1.721536490981   -1.584623229387
C    0.379230042350   -0.858463509019   -1.819623229387
N   -0.518769957650    0.084536490981   -2.056623229387
N    0.601230042350   -1.262463509019   -0.584623229387
N    1.051230042350   -1.399463509019   -2.813623229387
H   -0.662769957650    1.335536490981   -0.403623229387
H   -1.853769957650   -0.001463509019   -0.415623229387
H   -3.039769957650    1.965536490981   -0.812623229387
H   -2.841769957650    1.249536490981   -2.413623229387
H   -0.677769957650    0.346536490981   -3.023623229387
H    0.140230042350   -0.791463509019    0.175376770613
H    1.211230042350   -2.049463509019   -0.415623229387
H    0.955230042350   -1.039463509019   -3.752623229387
H    1.721230042350   -2.134463509019   -2.645623229387
H   -1.800679957650    2.627806490981   -1.943067229387
$end

$rem
JOBTYPE			EDA
EDA2			1
method			wB97X-V
BASIS			def2-TZVPD
XC_GRID			000099000590
NL_GRID			1
UNRESTRICTED		FALSE
MAX_SCF_CYCLES		200
SYMMETRY		FALSE
SYM_IGNORE		TRUE
MEM_STATIC		2000
BASIS_LIN_DEP_THRESH 	6
THRESH 			14
SCF_CONVERGENCE 	8
SCF_PRINT_FRGM 		TRUE
SOLVENT_METHOD          SMD
$end

$SMX
SOLVENT			WATER
$END
--------------------------------------------------------------
 ----------------------------------------------------------------
             Standard Nuclear Orientation (Angstroms)
    I     Atom           X                Y                Z
 ----------------------------------------------------------------
    1      C      -0.2267699576     0.6205364910     3.6323767706
    2      C       0.5222300424     0.2955364910     2.3853767706
    3      O       0.4802300423     1.0275364910     1.4033767706
    4      N       1.2092300423    -0.8304635090     2.4033767706
    5      H       0.4412300424     0.5765364910     4.4873767706
    6      H      -0.9227699577    -0.2084635090     3.7653767706
    7      H       1.9122300424    -0.9734635090     1.6943767706
    8      H       1.2252300423    -1.3994635090     3.2403767706
    9      H      -0.8112799577     1.5488664910     3.5514367706
   10      C      -1.3177699576     0.7395364910    -1.0146232294
   11      C      -2.3107699576     1.7215364910    -1.5846232294
   12      C       0.3792300424    -0.8584635090    -1.8196232294
   13      N      -0.5187699577     0.0845364910    -2.0566232294
   14      N       0.6012300423    -1.2624635090    -0.5846232294
   15      N       1.0512300424    -1.3994635090    -2.8136232294
   16      H      -0.6627699577     1.3355364910    -0.4036232294
   17      H      -1.8537699576    -0.0014635090    -0.4156232294
   18      H      -3.0397699576     1.9655364910    -0.8126232294
   19      H      -2.8417699576     1.2495364910    -2.4136232294
   20      H      -0.6777699577     0.3465364910    -3.0236232294
   21      H       0.1402300424    -0.7914635090     0.1753767706
   22      H       1.2112300423    -2.0494635090    -0.4156232294
   23      H       0.9552300423    -1.0394635090    -3.7526232294
   24      H       1.7212300423    -2.1344635090    -2.6456232294
   25      H      -1.8006799577     2.6278064910    -1.9430672294
 ----------------------------------------------------------------
 Nuclear Repulsion Energy =         566.59748303 hartrees
 There are       40 alpha and       40 beta electrons
 Requested basis set is def2-TZVPD
 There are 206 shells and 508 basis functions

 Total QAlloc Memory Limit  96000 MB
 Mega-Array Size      1956 MB
 MEM_STATIC part      2000 MB
 
 Citation of the SMD model:
 Marenich, A.V.; Cramer, C.J.; Truhlar, D.G.
 J. Phys. Chem. B 2009, 113, 6378-6396.
 iSolventCode=           1
 Solvent: water                                                           
 
 vradii
            1           2           3           4           5           6
    1   1.8500000   1.8500000   1.5200000   1.8900000   1.2000000   1.2000000
            7           8           9          10          11          12
    1   1.2000000   1.2000000   1.2000000   1.8500000   1.8500000   1.8500000
           13          14          15          16          17          18
    1   1.8900000   1.8900000   1.8900000   1.2000000   1.2000000   1.2000000
           19          20          21          22          23          24
    1   1.2000000   1.2000000   1.2000000   1.2000000   1.2000000   1.2000000
           25
    1   1.2000000
 Changing PCM_VDW_RADII to SMD_RADIUS
 Discretize the solute cavity surface with Lebedev spheres
	Using 110 Lebedev grid points for each H atom
	Using 194 Lebedev grid points for other atoms
	Atomic van der Waals radii will be scaled by 1.20
 Remove points where switching function is < 1.0e-08
 Keep 1766 surface tesserae and discard 1824 interior tesserae
 Molecular Surface Area = 205.141 Angst**2
 A cutoff of  1.0D-14 yielded  18919 shell pairs
 There are    115747 function pairs (    144040 Cartesian)
 Smallest overlap matrix eigenvalue = 5.63E-06

 Scale SEOQF with 1.000000e-01/1.000000e-01/1.000000e-01

 Standard Electronic Orientation quadrupole field applied
 Nucleus-field energy     =    -0.0000000321 hartrees

 -----------------------------------------------------------------------
  General SCF calculation program by
  Eric Jon Sundstrom, Paul Horn, Yuezhi Mao, Dmitri Zuev, Alec White,
  David Stuck, Shaama M.S., Shane Yost, Joonho Lee, David Small,
  Daniel Levine, Susi Lehtola, Hugh Burton, Evgeny Epifanovsky
 -----------------------------------------------------------------------
================================================================
                 ALMO-EDA with the EDA2 driver                  
================================================================
 The second-generation ALMO-EDA (for DFT):                      
 P. R. Horn, Y. Mao and M. Head-Gordon, PCCP, 18, 23067 (2016)  
 Decomposition of the frozen energy:                            
 P. R. Horn, Y. Mao and M. Head-Gordon, JCP, 144, 114107 (2016) 
 FERF model for polarization:                                   
 P. R. Horn and M. Head-Gordon, JCP, 143, 114111 (2015)         
Using eda2 option set 1
Option set summary: Frozen orbital wavefunction, initial wavefunction decomposition, and nDQ polarization.
--------------------------------
Printing EDA Options
--------------------------------
eda_child_super_basis      0
fragmo_guess_mode          0
child_mp                   1
child_mp_orders            232
cls_elec                   1
cls_disp                   0
scfmi_mode                 1
scfmi_occs                 0
scfmi_virts                0
frz_relax                  0
frz_relax_method           0
dc_pen_start               0
dc_pen_conv                0
dc_pen_increment           0
dc_pen_steps               0
dc_pen_thresh_factor       0
dc_pen_pre_newton_thresh   0
frz_ortho_decomp           1
frz_ortho_decomp_conv      6
frgm_method                2
scfmi_freeze_ss            0
separate_rehyb             0
plot_diff_den              0
eda_nocv                   0
eda_vct_relax              1
disp_free_x                0
disp_free_c                0
eda_bsse                   0
eda_pct_a                  0
eda_covp                   0
--------------------------------
Attempting to make child job directory: /tmp/qchem31627//Frg1/
Attempting to make child job directory: /tmp/qchem31627//Frg2/
Creating input file /tmp/qchem31627/Frg1.input
using default PutDataFrgm: nothing
calling putenv with: QCSCRATCH=/tmp/qchem31627/ 
calling putenv with: QCLOCALSCR=/tmp/qchem31627/ 
Spawning Job For Fragment 0
                  Welcome to Q-Chem
     A Quantum Leap Into The Future Of Chemistry


 Q-Chem 5.2, Q-Chem, Inc., Pleasanton, CA (2019)

 License issued to: National Energy Research Scientific Computing Center

 Yihan Shao,  Zhengting Gan,  E. Epifanovsky,  A. T. B. Gilbert,  M. Wormit,  
 J. Kussmann,  A. W. Lange,  A. Behn,  Jia Deng,  Xintian Feng,  D. Ghosh,  
 M. Goldey,  P. R. Horn,  L. D. Jacobson,  I. Kaliman,  T. Kus,  A. Landau,  
 Jie Liu,  E. I. Proynov,  R. M. Richard,  R. P. Steele,  E. J. Sundstrom,  
 H. L. Woodcock III,  P. M. Zimmerman,  D. Zuev,  B. Albrecht,  E. Alguire,  
 S. A. Baeppler,  D. Barton,  Z. Benda,  Y. A. Bernard,  E. J. Berquist,  
 K. B. Bravaya,  H. Burton,  D. Casanova,  Chun-Min Chang,  Yunqing Chen,  
 A. Chien,  K. D. Closser,  M. P. Coons,  S. Coriani,  S. Dasgupta,  
 A. L. Dempwolff,  M. Diedenhofen,  Hainam Do,  R. G. Edgar,  Po-Tung Fang,  
 S. Faraji,  S. Fatehi,  Qingguo Feng,  K. D. Fenk,  J. Fosso-Tande,  
 J. Gayvert,  Qinghui Ge,  A. Ghysels,  G. Gidofalvi,  J. Gomes,  
 J. Gonthier,  A. Gunina,  D. Hait,  M. W. D. Hanson-Heine,  
 P. H. P. Harbach,  A. W. Hauser,  M. F. Herbst,  J. E. Herr,  
 E. G. Hohenstein,  Z. C. Holden,  Kerwin Hui,  B. C. Huynh,  T.-C. Jagau,  
 Hyunjun Ji,  B. Kaduk,  K. Khistyaev,  Jaehoon Kim,  P. Klunzinger,  K. Koh,  
 D. Kosenkov,  L. Koulias,  T. Kowalczyk,  C. M. Krauter,  A. Kunitsa,  
 Ka Un Lao,  A. Laurent,  K. V. Lawler,  Joonho Lee,  D. Lefrancois,  
 S. Lehtola,  D. S. Levine,  Yi-Pei Li,  You-Sheng Lin,  Fenglai Liu,  
 E. Livshits,  A. Luenser,  P. Manohar,  E. Mansoor,  S. F. Manzer,  
 Shan-Ping Mao,  Yuezhi Mao,  N. Mardirossian,  A. V. Marenich,  
 T. Markovich,  L. A. Martinez-Martinez,  S. A. Maurer,  N. J. Mayhall,  
 S. C. McKenzie,  J.-M. Mewes,  P. Morgante,  A. F. Morrison,  
 J. W. Mullinax,  K. Nanda,  T. S. Nguyen-Beck,  R. Olivares-Amaya,  
 J. A. Parkhill,  Zheng Pei,  T. M. Perrine,  F. Plasser,  P. Pokhilko,  
 S. Prager,  A. Prociuk,  E. Ramos,  D. R. Rehn,  F. Rob,  M. Scheurer,  
 M. Schneider,  N. Sergueev,  S. M. Sharada,  S. Sharma,  D. W. Small,  
 T. Stauch,  T. Stein,  Yu-Chuan Su,  A. J. W. Thom,  A. Tkatchenko,  
 T. Tsuchimochi,  N. M. Tubman,  L. Vogt,  M. L. Vidal,  O. Vydrov,  
 M. A. Watson,  J. Wenzel,  M. de Wergifosse,  T. A. Wesolowski,  A. White,  
 J. Witte,  A. Yamada,  Jun Yang,  K. Yao,  S. Yeganeh,  S. R. Yost,  
 Zhi-Qiang You,  A. Zech,  Igor Ying Zhang,  Xing Zhang,  Yan Zhao,  
 Ying Zhu,  B. R. Brooks,  G. K. L. Chan,  C. J. Cramer,  M. S. Gordon,  
 W. J. Hehre,  A. Klamt,  M. W. Schmidt,  C. D. Sherrill,  D. G. Truhlar,  
 A. Aspuru-Guzik,  R. Baer,  A. T. Bell,  N. A. Besley,  Jeng-Da Chai,  
 A. E. DePrince, III,  R. A. DiStasio Jr.,  A. Dreuw,  B. D. Dunietz,  
 T. R. Furlani,  Chao-Ping Hsu,  Yousung Jung,  Jing Kong,  D. S. Lambrecht,  
 WanZhen Liang,  C. Ochsenfeld,  V. A. Rassolov,  L. V. Slipchenko,  
 J. E. Subotnik,  T. Van Voorhis,  J. M. Herbert,  A. I. Krylov,  
 P. M. W. Gill,  M. Head-Gordon

 Contributors to earlier versions of Q-Chem not listed above: 
 R. D. Adamson,  B. Austin,  J. Baker,  G. J. O. Beran,  K. Brandhorst,  
 S. T. Brown,  E. F. C. Byrd,  A. K. Chakraborty,  C.-L. Cheng,  
 Siu Hung Chien,  D. M. Chipman,  D. L. Crittenden,  H. Dachsel,  
 R. J. Doerksen,  A. D. Dutoi,  L. Fusti-Molnar,  W. A. Goddard III,  
 A. Golubeva-Zadorozhnaya,  S. R. Gwaltney,  G. Hawkins,  A. Heyden,  
 S. Hirata,  G. Kedziora,  F. J. Keil,  C. Kelley,  Jihan Kim,  R. A. King,  
 R. Z. Khaliullin,  P. P. Korambath,  W. Kurlancheek,  A. M. Lee,  M. S. Lee,  
 S. V. Levchenko,  Ching Yeh Lin,  D. Liotard,  R. C. Lochan,  I. Lotan,  
 P. E. Maslen,  N. Nair,  D. P. O'Neill,  D. Neuhauser,  E. Neuscamman,  
 C. M. Oana,  R. Olson,  B. Peters,  R. Peverati,  P. A. Pieniazek,  
 Y. M. Rhee,  J. Ritchie,  M. A. Rohrdanz,  E. Rosta,  N. J. Russ,  
 H. F. Schaefer III,  N. E. Schultz,  N. Shenvi,  A. C. Simmonett,  A. Sodt,  
 D. Stuck,  K. S. Thanthiriwatte,  V. Vanovschi,  Tao Wang,  A. Warshel,  
 C. F. Williams,  Q. Wu,  X. Xu,  W. Zhang

 Please cite Q-Chem as follows:
 Y. Shao et al., Mol. Phys. 113, 184-215 (2015)
 DOI: 10.1080/00268976.2014.952696

 Q-Chem 5.2.0 for Intel X86 EM64T Linux

 Parts of Q-Chem use Armadillo 8.300.2 (Tropical Shenanigans).
 http://arma.sourceforge.net/

 Q-Chem begins on Sun Sep 26 06:29:54 2021  

Host: cori01
0

     Scratch files written to /tmp/qchem31627//Frg1//
 May1019 |scratch|qcdevops|jenkins|workspace|build_RNUM -1
Processing $rem in /global/common/cori/software/qchem/5.2/config/preferences:
	 MEM_TOTAL  96000 
NAlpha2: 32
NElect   32
Mult     1
Symmetry turned off for PCM/SM12/SMD calculation

Checking the input file for inconsistencies... 	...done.

--------------------------------------------------------------
User input:
--------------------------------------------------------------
$molecule
0 1
 6	-0.2267699576	0.6205364910	3.6323767706
 6	0.5222300424	0.2955364910	2.3853767706
 8	0.4802300423	1.0275364910	1.4033767706
 7	1.2092300423	-0.8304635090	2.4033767706
 1	0.4412300424	0.5765364910	4.4873767706
 1	-0.9227699577	-0.2084635090	3.7653767706
 1	1.9122300424	-0.9734635090	1.6943767706
 1	1.2252300423	-1.3994635090	3.2403767706
 1	-0.8112799577	1.5488664910	3.5514367706
$end
$rem
EDA2		1
METHOD		WB97X-V
BASIS		DEF2-TZVPD
XC_GRID		000099000590
NL_GRID		1
UNRESTRICTED		FALSE
MAX_SCF_CYCLES		200
SYMMETRY		FALSE
SYM_IGNORE		TRUE
BASIS_LIN_DEP_THRESH		6
THRESH		14
SCF_CONVERGENCE		8
SCF_PRINT_FRGM		TRUE
SOLVENT_METHOD		SMD
!required keywords
JOBTYPE		SP
SYM_IGNORE		TRUE
SUBSYSTEM		TRUE
GEN_SCFMAN		TRUE
CHILD_INSTRUCTION		2
SYM_IGNORE		TRUE
SCFMI		0
RI_K 0		
PARI_K 0		
MIN_PARI_K 0		
IARI_K 0		
OCC_RI_K 0		
PURECART		1111
MEM_STATIC		2000
MEM_TOTAL		96000
GUI		0
CHILD_MP		1
CHILD_MP_ORDERS		232
FRZ_RELAX		0
FRZ_RELAX_METHOD		0
EDA_CLS_ELEC		1
EDA_CLS_DISP		0
FRZ_ORTHO_DECOMP		1
EDA2		FALSE
FRGM_METHOD		FALSE
CIS_N_ROOTS  0
LOCAL_CIS    0
CIS_RLX_DNS  1
$end
$smx
SOLVENT			WATER
$end
--------------------------------------------------------------
 ----------------------------------------------------------------
             Standard Nuclear Orientation (Angstroms)
    I     Atom           X                Y                Z
 ----------------------------------------------------------------
    1      C      -0.2267699576     0.6205364910     3.6323767706
    2      C       0.5222300424     0.2955364910     2.3853767706
    3      O       0.4802300423     1.0275364910     1.4033767706
    4      N       1.2092300423    -0.8304635090     2.4033767706
    5      H       0.4412300424     0.5765364910     4.4873767706
    6      H      -0.9227699577    -0.2084635090     3.7653767706
    7      H       1.9122300424    -0.9734635090     1.6943767706
    8      H       1.2252300423    -1.3994635090     3.2403767706
    9      H      -0.8112799577     1.5488664910     3.5514367706
 ----------------------------------------------------------------
 Nuclear Repulsion Energy =         123.20155546 hartrees
 There are       16 alpha and       16 beta electrons
 Requested basis set is def2-TZVPD
 There are 78 shells and 196 basis functions

 Total QAlloc Memory Limit  96000 MB
 Mega-Array Size      1956 MB
 MEM_STATIC part      2000 MB
 
 Citation of the SMD model:
 Marenich, A.V.; Cramer, C.J.; Truhlar, D.G.
 J. Phys. Chem. B 2009, 113, 6378-6396.
 iSolventCode=           1
 Solvent: water                                                           
 
 vradii
            1           2           3           4           5           6
    1   1.8500000   1.8500000   1.5200000   1.8900000   1.2000000   1.2000000
            7           8           9
    1   1.2000000   1.2000000   1.2000000
 Changing PCM_VDW_RADII to SMD_RADIUS
 Discretize the solute cavity surface with Lebedev spheres
	Using 110 Lebedev grid points for each H atom
	Using 194 Lebedev grid points for other atoms
	Atomic van der Waals radii will be scaled by 1.20
 Remove points where switching function is < 1.0e-08
 Keep 722 surface tesserae and discard 604 interior tesserae
 Molecular Surface Area = 89.338 Angst**2

                       Distance Matrix (Angstroms)
             C (  1)   C (  2)   O (  3)   N (  4)   H (  5)   H (  6)
   C (  2)  1.490515
   O (  3)  2.373592  1.225525
   N (  4)  2.382842  1.319155  2.232399
   H (  5)  1.085903  2.122246  3.117046  2.629169
   H (  6)  1.090571  2.060689  3.012499  2.605255  1.731475
   H (  7)  3.297272  2.004979  2.477762  1.008632  3.516702  3.593256
   H (  8)  2.518406  2.024416  3.133676  1.012218  2.464598  2.511575
   H (  9)  1.100000  2.169973  2.560067  3.325915  1.841247  1.773812
             H (  7)   H (  8)
   H (  8)  1.744580
   H (  9)  4.150702  3.596774
 
 A cutoff of  1.0D-14 yielded   3056 shell pairs
 There are     19546 function pairs (     24704 Cartesian)
 Smallest overlap matrix eigenvalue = 9.23E-06

 Scale SEOQF with 1.000000e-01/1.000000e-01/1.000000e-01

 Standard Electronic Orientation quadrupole field applied
 Nucleus-field energy     =    -0.0000000223 hartrees
 Guess from superposition of atomic densities
 Warning:  Energy on first SCF cycle will be non-variational
 SAD guess density has 31.604610 electrons

 -----------------------------------------------------------------------
  General SCF calculation program by
  Eric Jon Sundstrom, Paul Horn, Yuezhi Mao, Dmitri Zuev, Alec White,
  David Stuck, Shaama M.S., Shane Yost, Joonho Lee, David Small,
  Daniel Levine, Susi Lehtola, Hugh Burton, Evgeny Epifanovsky
 -----------------------------------------------------------------------
 Exchange:     0.1670 Hartree-Fock + 1.0000 wB97X-V + LR-HF
 Correlation:  1.0000 wB97X-V
 Using Euler-Maclaurin-Lebedev (99,590) quadrature formula
 Nonlocal Correlation:  VV10 with C = 0.0100 and b = 6.00 and scale = 1.00000
 Grid used for NLC:  SG-1 standard quadrature
Energy prior to optimization (guess energy) = -208.699874508690
Begin Timing: Total SCF Calculation
begin iterations for algorithm: DIIS         
the SCF tolerance is set to 1.00e-08
    1    -208.6998745087      1.26e-02     00000 
    2    -208.3247254523      1.53e-02     00000 
    3    -209.2339524898      2.36e-03     00000 
    4    -209.2525845252      7.80e-04     00000 
    5    -209.2557354205      1.96e-04     00000 
    6    -209.2560074027      6.63e-05     00000 
    7    -209.2560473152      2.10e-05     00000 
    8    -209.2560524275      5.93e-06     00000 
    9    -209.2560531873      2.03e-06     00000 
   10    -209.2560532389      4.12e-07     00000 
   11    -209.2560532404      1.52e-07     00000 
   12    -209.2560532406      1.90e-08     00000 
   13    -209.2560532406      4.64e-09     00000 Convergence criterion met
Timing for Total SCF: 372.00s (wall), 735.18s (cpu)
(3)  G-ENP(liq) elect-nuc-pol free energy of system     -209.256053241 a.u.
(4)  G-CDS(liq) cavity-dispersion-solvent structure 
     free energy                                                3.4739 kcal/mol
(6)  G-S(liq) free energy of system                     -209.250517275 a.u.
E_pcm = -0.0303551873
E_cds = 0.0055359654
Multipole orders to be included
        2
        3
computing dipole RHS
computing quadrupole RHS
total number of RHS in solve_reponses: 8
RHS batch sizes
        8
Beginning Block Conjugate Gradient Iterations. Batch Number: 0
computing hessian-vector products by finite difference
              1      6.15e-01     00000 Conjugate Gradient Iteration
computing hessian-vector products by finite difference
              2      2.01e-01     00000 Conjugate Gradient Iteration
computing hessian-vector products by finite difference
              3      5.60e-02     00000 Conjugate Gradient Iteration
computing hessian-vector products by finite difference
              4      1.39e-02     00000 Conjugate Gradient Iteration
computing hessian-vector products by finite difference
              5      1.89e-03     00000 Conjugate Gradient Iteration
computing hessian-vector products by finite difference
              6      4.22e-04     00000 Conjugate Gradient Iteration
computing hessian-vector products by finite difference
              7      5.89e-05     00000 Conjugate Gradient Iteration
computing hessian-vector products by finite difference
              8      7.41e-06     00000 Conjugate Gradient Iteration
computing hessian-vector products by finite difference
              9      1.09e-06     00000 Conjugate Gradient Iteration
computing hessian-vector products by finite difference
             10      1.10e-07     00000 Conjugate Gradient Iteration
computing hessian-vector products by finite difference
             11      1.09e-08     00000 Conjugate Gradient Iteration
computing hessian-vector products by finite difference
             12      2.76e-09     00000 CG Converged
batch 0 complete
Done Calculating Responses
TESTING ORTHOGONALIZATION OF MULTIPOLE BASIS
Multipole virts passed orthogonality test
Virts Per Order
        48
        80
 
 --------------------------------------------------------------
 
                    Orbital Energies (a.u.)
 --------------------------------------------------------------
 
 Alpha MOs
 -- Occupied --
-19.1830 -14.4237 -10.3740 -10.2596  -1.1785  -1.0439  -0.8678  -0.7065
 -0.6489  -0.5936  -0.5678  -0.5208  -0.5045  -0.4722  -0.3844  -0.3744
 -- Virtual --
  0.0638   0.0956   0.0966   0.1036   0.1299   0.1344   0.1407   0.1466
  0.1739   0.1936   0.2077   0.2125   0.2349   0.2430   0.2461   0.2573
  0.2637   0.2848   0.3104   0.3154   0.3350   0.3367   0.3468   0.3560
  0.3606   0.3753   0.3811   0.3889   0.3931   0.4080   0.4202   0.4251
  0.4294   0.4572   0.4660   0.4782   0.4894   0.4914   0.4936   0.5073
  0.5259   0.5381   0.5436   0.5705   0.5840   0.5886   0.6326   0.6422
  0.6544   0.6593   0.6669   0.6901   0.6989   0.7132   0.7286   0.7683
  0.7840   0.7864   0.8068   0.8122   0.8183   0.8436   0.8566   0.8782
  0.9267   0.9463   0.9613   0.9944   1.0039   1.0400   1.0556   1.1084
  1.1401   1.1737   1.2324   1.2725   1.2948   1.3198   1.3285   1.4007
  1.4721   1.4917   1.5175   1.6126   1.6910   1.7351   1.7634   1.8131
  1.8487   1.8699   1.8845   1.9205   1.9378   1.9494   1.9937   2.0297
  2.0475   2.1027   2.1587   2.1933   2.2630   2.2960   2.3169   2.3287
  2.3876   2.4136   2.4425   2.4715   2.5345   2.5586   2.6304   2.6659
  2.6888   2.7355   2.7701   2.8341   2.8921   2.9262   2.9330   2.9961
  3.0164   3.1120   3.1400   3.1864   3.2024   3.2405   3.2698   3.2944
  3.3160   3.3387   3.3580   3.4311   3.4721   3.5270   3.5359   3.5744
  3.6310   3.6837   3.7100   3.7498   3.9168   3.9453   4.0190   4.0623
  4.1045   4.1959   4.2538   4.4877   4.5292   4.6222   4.6414   4.6958
  4.7988   4.8999   4.9195   4.9257   5.1381   5.1826   5.2589   5.3534
  5.3812   5.4221   5.4264   5.4804   5.5425   5.7861   5.9214   6.1293
  6.2858   6.5314   6.6318   6.7433   6.8544   6.9759   7.2364   7.3204
 22.6466  23.6478  32.4288  44.3037
 --------------------------------------------------------------
 
          Ground-State Mulliken Net Atomic Charges

     Atom                 Charge (a.u.)
  ----------------------------------------
      1 C                    -0.644987
      2 C                     0.443644
      3 O                    -0.693450
      4 N                    -0.321074
      5 H                     0.257760
      6 H                     0.222251
      7 H                     0.263270
      8 H                     0.241257
      9 H                     0.231328
  ----------------------------------------
  Sum of atomic charges =     0.000000

 -----------------------------------------------------------------
                    Cartesian Multipole Moments
 -----------------------------------------------------------------
    Charge (ESU x 10^10)
                 0.0000
    Dipole Moment (Debye)
         X       1.2102      Y      -4.0481      Z       4.3494
       Tot       6.0637
    Quadrupole Moments (Debye-Ang)
        XX     -20.4909     XY      -4.5536     YY     -25.7395
        XZ       3.7589     YZ      -6.8175     ZZ      -4.6694
    Octopole Moments (Debye-Ang^2)
       XXX     -26.9362    XXY     -13.0112    XYY      -9.7144
       YYY     -26.5647    XXZ     -53.9256    XYZ      -9.4502
       YYZ     -58.4872    XZZ       1.0114    YZZ     -21.8288
       ZZZ    -111.8927
    Hexadecapole Moments (Debye-Ang^3)
      XXXX     -98.2682   XXXY       3.1926   XXYY     -31.3536
      XYYY       4.8670   YYYY    -123.3266   XXXZ     -55.0040
      XXYZ     -27.2825   XYYZ     -15.5367   YYYZ     -60.1350
      XXZZ    -180.0029   XYZZ     -19.3292   YYZZ    -177.9683
      XZZZ     -18.2098   YZZZ     -89.8665   ZZZZ    -818.6147
 -----------------------------------------------------------------
Archival summary:
1\1\nid00539\SP\ProcedureUnspecified\BasisUnspecified\1125\meili\SunSep2608:14:122021SunSep2608:14:122021\0\\#,ProcedureUnspecified,BasisUnspecified,\\0,1\C\O,1,1.22553\N,1,1.31915,2,122.59\H,3,1.00863,1,118.321,2,16.7567,0\H,3,1.01222,1,119.956,2,179.263,0\C,1,1.49052,2,121.528,3,-178.967,0\H,6,1.0859,1,109.924,2,-128.421,0\H,6,1.09057,1,104.891,2,118.693,0\H,6,1.1,1,112.922,2,1.16009,0\\\@

 Total job time:  6258.31s(wall), 12334.39s(cpu) 
 Sun Sep 26 08:14:12 2021

        *************************************************************
        *                                                           *
        *  Thank you very much for using Q-Chem.  Have a nice day.  *
        *                                                           *
        *************************************************************


Done Job For Fragment 0
calling putenv with: QCSCRATCH=/global/cscratch1/sd/meili 
calling putenv with: QCLOCALSCR=/tmp 
calling putenv with: QCTHREADS=32 
Creating input file /tmp/qchem31627/Frg2.input
using default PutDataFrgm: nothing
calling putenv with: QCSCRATCH=/tmp/qchem31627/ 
calling putenv with: QCLOCALSCR=/tmp/qchem31627/ 
Spawning Job For Fragment 1
                  Welcome to Q-Chem
     A Quantum Leap Into The Future Of Chemistry


 Q-Chem 5.2, Q-Chem, Inc., Pleasanton, CA (2019)

 License issued to: National Energy Research Scientific Computing Center

 Yihan Shao,  Zhengting Gan,  E. Epifanovsky,  A. T. B. Gilbert,  M. Wormit,  
 J. Kussmann,  A. W. Lange,  A. Behn,  Jia Deng,  Xintian Feng,  D. Ghosh,  
 M. Goldey,  P. R. Horn,  L. D. Jacobson,  I. Kaliman,  T. Kus,  A. Landau,  
 Jie Liu,  E. I. Proynov,  R. M. Richard,  R. P. Steele,  E. J. Sundstrom,  
 H. L. Woodcock III,  P. M. Zimmerman,  D. Zuev,  B. Albrecht,  E. Alguire,  
 S. A. Baeppler,  D. Barton,  Z. Benda,  Y. A. Bernard,  E. J. Berquist,  
 K. B. Bravaya,  H. Burton,  D. Casanova,  Chun-Min Chang,  Yunqing Chen,  
 A. Chien,  K. D. Closser,  M. P. Coons,  S. Coriani,  S. Dasgupta,  
 A. L. Dempwolff,  M. Diedenhofen,  Hainam Do,  R. G. Edgar,  Po-Tung Fang,  
 S. Faraji,  S. Fatehi,  Qingguo Feng,  K. D. Fenk,  J. Fosso-Tande,  
 J. Gayvert,  Qinghui Ge,  A. Ghysels,  G. Gidofalvi,  J. Gomes,  
 J. Gonthier,  A. Gunina,  D. Hait,  M. W. D. Hanson-Heine,  
 P. H. P. Harbach,  A. W. Hauser,  M. F. Herbst,  J. E. Herr,  
 E. G. Hohenstein,  Z. C. Holden,  Kerwin Hui,  B. C. Huynh,  T.-C. Jagau,  
 Hyunjun Ji,  B. Kaduk,  K. Khistyaev,  Jaehoon Kim,  P. Klunzinger,  K. Koh,  
 D. Kosenkov,  L. Koulias,  T. Kowalczyk,  C. M. Krauter,  A. Kunitsa,  
 Ka Un Lao,  A. Laurent,  K. V. Lawler,  Joonho Lee,  D. Lefrancois,  
 S. Lehtola,  D. S. Levine,  Yi-Pei Li,  You-Sheng Lin,  Fenglai Liu,  
 E. Livshits,  A. Luenser,  P. Manohar,  E. Mansoor,  S. F. Manzer,  
 Shan-Ping Mao,  Yuezhi Mao,  N. Mardirossian,  A. V. Marenich,  
 T. Markovich,  L. A. Martinez-Martinez,  S. A. Maurer,  N. J. Mayhall,  
 S. C. McKenzie,  J.-M. Mewes,  P. Morgante,  A. F. Morrison,  
 J. W. Mullinax,  K. Nanda,  T. S. Nguyen-Beck,  R. Olivares-Amaya,  
 J. A. Parkhill,  Zheng Pei,  T. M. Perrine,  F. Plasser,  P. Pokhilko,  
 S. Prager,  A. Prociuk,  E. Ramos,  D. R. Rehn,  F. Rob,  M. Scheurer,  
 M. Schneider,  N. Sergueev,  S. M. Sharada,  S. Sharma,  D. W. Small,  
 T. Stauch,  T. Stein,  Yu-Chuan Su,  A. J. W. Thom,  A. Tkatchenko,  
 T. Tsuchimochi,  N. M. Tubman,  L. Vogt,  M. L. Vidal,  O. Vydrov,  
 M. A. Watson,  J. Wenzel,  M. de Wergifosse,  T. A. Wesolowski,  A. White,  
 J. Witte,  A. Yamada,  Jun Yang,  K. Yao,  S. Yeganeh,  S. R. Yost,  
 Zhi-Qiang You,  A. Zech,  Igor Ying Zhang,  Xing Zhang,  Yan Zhao,  
 Ying Zhu,  B. R. Brooks,  G. K. L. Chan,  C. J. Cramer,  M. S. Gordon,  
 W. J. Hehre,  A. Klamt,  M. W. Schmidt,  C. D. Sherrill,  D. G. Truhlar,  
 A. Aspuru-Guzik,  R. Baer,  A. T. Bell,  N. A. Besley,  Jeng-Da Chai,  
 A. E. DePrince, III,  R. A. DiStasio Jr.,  A. Dreuw,  B. D. Dunietz,  
 T. R. Furlani,  Chao-Ping Hsu,  Yousung Jung,  Jing Kong,  D. S. Lambrecht,  
 WanZhen Liang,  C. Ochsenfeld,  V. A. Rassolov,  L. V. Slipchenko,  
 J. E. Subotnik,  T. Van Voorhis,  J. M. Herbert,  A. I. Krylov,  
 P. M. W. Gill,  M. Head-Gordon

 Contributors to earlier versions of Q-Chem not listed above: 
 R. D. Adamson,  B. Austin,  J. Baker,  G. J. O. Beran,  K. Brandhorst,  
 S. T. Brown,  E. F. C. Byrd,  A. K. Chakraborty,  C.-L. Cheng,  
 Siu Hung Chien,  D. M. Chipman,  D. L. Crittenden,  H. Dachsel,  
 R. J. Doerksen,  A. D. Dutoi,  L. Fusti-Molnar,  W. A. Goddard III,  
 A. Golubeva-Zadorozhnaya,  S. R. Gwaltney,  G. Hawkins,  A. Heyden,  
 S. Hirata,  G. Kedziora,  F. J. Keil,  C. Kelley,  Jihan Kim,  R. A. King,  
 R. Z. Khaliullin,  P. P. Korambath,  W. Kurlancheek,  A. M. Lee,  M. S. Lee,  
 S. V. Levchenko,  Ching Yeh Lin,  D. Liotard,  R. C. Lochan,  I. Lotan,  
 P. E. Maslen,  N. Nair,  D. P. O'Neill,  D. Neuhauser,  E. Neuscamman,  
 C. M. Oana,  R. Olson,  B. Peters,  R. Peverati,  P. A. Pieniazek,  
 Y. M. Rhee,  J. Ritchie,  M. A. Rohrdanz,  E. Rosta,  N. J. Russ,  
 H. F. Schaefer III,  N. E. Schultz,  N. Shenvi,  A. C. Simmonett,  A. Sodt,  
 D. Stuck,  K. S. Thanthiriwatte,  V. Vanovschi,  Tao Wang,  A. Warshel,  
 C. F. Williams,  Q. Wu,  X. Xu,  W. Zhang

 Please cite Q-Chem as follows:
 Y. Shao et al., Mol. Phys. 113, 184-215 (2015)
 DOI: 10.1080/00268976.2014.952696

 Q-Chem 5.2.0 for Intel X86 EM64T Linux

 Parts of Q-Chem use Armadillo 8.300.2 (Tropical Shenanigans).
 http://arma.sourceforge.net/

 Q-Chem begins on Sun Sep 26 08:14:12 2021  

Host: cori01
0

     Scratch files written to /tmp/qchem31627//Frg2//
 May1019 |scratch|qcdevops|jenkins|workspace|build_RNUM -1
Processing $rem in /global/common/cori/software/qchem/5.2/config/preferences:
	 MEM_TOTAL  96000 
NAlpha2: 48
NElect   48
Mult     1
Symmetry turned off for PCM/SM12/SMD calculation

Checking the input file for inconsistencies... 	...done.

--------------------------------------------------------------
User input:
--------------------------------------------------------------
$molecule
1 1
 6	-1.3177699576	0.7395364910	-1.0146232294
 6	-2.3107699576	1.7215364910	-1.5846232294
 6	0.3792300424	-0.8584635090	-1.8196232294
 7	-0.5187699577	0.0845364910	-2.0566232294
 7	0.6012300423	-1.2624635090	-0.5846232294
 7	1.0512300424	-1.3994635090	-2.8136232294
 1	-0.6627699577	1.3355364910	-0.4036232294
 1	-1.8537699576	-0.0014635090	-0.4156232294
 1	-3.0397699576	1.9655364910	-0.8126232294
 1	-2.8417699576	1.2495364910	-2.4136232294
 1	-0.6777699577	0.3465364910	-3.0236232294
 1	0.1402300424	-0.7914635090	0.1753767706
 1	1.2112300423	-2.0494635090	-0.4156232294
 1	0.9552300423	-1.0394635090	-3.7526232294
 1	1.7212300423	-2.1344635090	-2.6456232294
 1	-1.8006799577	2.6278064910	-1.9430672294
$end
$rem
EDA2		1
METHOD		WB97X-V
BASIS		DEF2-TZVPD
XC_GRID		000099000590
NL_GRID		1
UNRESTRICTED		FALSE
MAX_SCF_CYCLES		200
SYMMETRY		FALSE
SYM_IGNORE		TRUE
BASIS_LIN_DEP_THRESH		6
THRESH		14
SCF_CONVERGENCE		8
SCF_PRINT_FRGM		TRUE
SOLVENT_METHOD		SMD
!required keywords
JOBTYPE		SP
SYM_IGNORE		TRUE
SUBSYSTEM		TRUE
GEN_SCFMAN		TRUE
CHILD_INSTRUCTION		2
SYM_IGNORE		TRUE
SCFMI		0
RI_K 0		
PARI_K 0		
MIN_PARI_K 0		
IARI_K 0		
OCC_RI_K 0		
PURECART		1111
MEM_STATIC		2000
MEM_TOTAL		96000
GUI		0
CHILD_MP		1
CHILD_MP_ORDERS		232
FRZ_RELAX		0
FRZ_RELAX_METHOD		0
EDA_CLS_ELEC		1
EDA_CLS_DISP		0
FRZ_ORTHO_DECOMP		1
EDA2		FALSE
FRGM_METHOD		FALSE
CIS_N_ROOTS  0
LOCAL_CIS    0
CIS_RLX_DNS  1
$end
$smx
SOLVENT			WATER
$end
--------------------------------------------------------------
 ----------------------------------------------------------------
             Standard Nuclear Orientation (Angstroms)
    I     Atom           X                Y                Z
 ----------------------------------------------------------------
    1      C      -1.3177699576     0.7395364910    -1.0146232294
    2      C      -2.3107699576     1.7215364910    -1.5846232294
    3      C       0.3792300424    -0.8584635090    -1.8196232294
    4      N      -0.5187699577     0.0845364910    -2.0566232294
    5      N       0.6012300423    -1.2624635090    -0.5846232294
    6      N       1.0512300424    -1.3994635090    -2.8136232294
    7      H      -0.6627699577     1.3355364910    -0.4036232294
    8      H      -1.8537699576    -0.0014635090    -0.4156232294
    9      H      -3.0397699576     1.9655364910    -0.8126232294
   10      H      -2.8417699576     1.2495364910    -2.4136232294
   11      H      -0.6777699577     0.3465364910    -3.0236232294
   12      H       0.1402300424    -0.7914635090     0.1753767706
   13      H       1.2112300423    -2.0494635090    -0.4156232294
   14      H       0.9552300423    -1.0394635090    -3.7526232294
   15      H       1.7212300423    -2.1344635090    -2.6456232294
   16      H      -1.8006799577     2.6278064910    -1.9430672294
 ----------------------------------------------------------------
 Nuclear Repulsion Energy =         257.07016607 hartrees
 There are       24 alpha and       24 beta electrons
 Requested basis set is def2-TZVPD
 There are 128 shells and 312 basis functions

 Total QAlloc Memory Limit  96000 MB
 Mega-Array Size      1956 MB
 MEM_STATIC part      2000 MB
 
 Citation of the SMD model:
 Marenich, A.V.; Cramer, C.J.; Truhlar, D.G.
 J. Phys. Chem. B 2009, 113, 6378-6396.
 iSolventCode=           1
 Solvent: water                                                           
 
 vradii
            1           2           3           4           5           6
    1   1.8500000   1.8500000   1.8500000   1.8900000   1.8900000   1.8900000
            7           8           9          10          11          12
    1   1.2000000   1.2000000   1.2000000   1.2000000   1.2000000   1.2000000
           13          14          15          16
    1   1.2000000   1.2000000   1.2000000   1.2000000
 Changing PCM_VDW_RADII to SMD_RADIUS
 Discretize the solute cavity surface with Lebedev spheres
	Using 110 Lebedev grid points for each H atom
	Using 194 Lebedev grid points for other atoms
	Atomic van der Waals radii will be scaled by 1.20
 Remove points where switching function is < 1.0e-08
 Keep 1123 surface tesserae and discard 1141 interior tesserae
 Molecular Surface Area = 133.496 Angst**2
 A cutoff of  1.0D-14 yielded   7898 shell pairs
 There are     47570 function pairs (     59274 Cartesian)
 Smallest overlap matrix eigenvalue = 7.53E-06

 Scale SEOQF with 1.000000e-01/1.000000e-01/1.000000e-01

 Standard Electronic Orientation quadrupole field applied
 Nucleus-field energy     =    -0.0000000097 hartrees
 Guess from superposition of atomic densities
 Warning:  Energy on first SCF cycle will be non-variational
 SAD guess density has 48.375862 electrons

 -----------------------------------------------------------------------
  General SCF calculation program by
  Eric Jon Sundstrom, Paul Horn, Yuezhi Mao, Dmitri Zuev, Alec White,
  David Stuck, Shaama M.S., Shane Yost, Joonho Lee, David Small,
  Daniel Levine, Susi Lehtola, Hugh Burton, Evgeny Epifanovsky
 -----------------------------------------------------------------------
 Exchange:     0.1670 Hartree-Fock + 1.0000 wB97X-V + LR-HF
 Correlation:  1.0000 wB97X-V
 Using Euler-Maclaurin-Lebedev (99,590) quadrature formula
 Nonlocal Correlation:  VV10 with C = 0.0100 and b = 6.00 and scale = 1.00000
 Grid used for NLC:  SG-1 standard quadrature
Energy prior to optimization (guess energy) = -284.033894057394
Begin Timing: Total SCF Calculation
begin iterations for algorithm: DIIS         
the SCF tolerance is set to 1.00e-08
    1    -284.0338940574      6.61e-03     00000 
    2    -284.2773554465      5.19e-03     00000 
    3    -284.5226018150      3.09e-04     00000 
    4    -284.5238683691      1.63e-04     00000 
    5    -284.5241910909      4.54e-05     00000 
    6    -284.5242185994      1.83e-05     00000 
    7    -284.5242230424      3.20e-06     00000 
    8    -284.5242233389      8.76e-07     00000 
    9    -284.5242233586      4.29e-07     00000 
   10    -284.5242233630      1.05e-07     00000 
   11    -284.5242233634      4.97e-08     00000 
   12    -284.5242233634      1.24e-08     00000 
   13    -284.5242233634      2.01e-09     00000 Convergence criterion met
Timing for Total SCF: 1311.00s (wall), 2606.23s (cpu)
(3)  G-ENP(liq) elect-nuc-pol free energy of system     -284.524223363 a.u.
(4)  G-CDS(liq) cavity-dispersion-solvent structure 
     free energy                                                2.7045 kcal/mol
(6)  G-S(liq) free energy of system                     -284.519913526 a.u.
E_pcm = -0.1063464653
E_cds = 0.0043098379
Multipole orders to be included
        2
        3
computing dipole RHS
computing quadrupole RHS
total number of RHS in solve_reponses: 8
RHS batch sizes
        8
Beginning Block Conjugate Gradient Iterations. Batch Number: 0
computing hessian-vector products by finite difference
              1      4.81e-01     00000 Conjugate Gradient Iteration
computing hessian-vector products by finite difference
              2      1.82e-01     00000 Conjugate Gradient Iteration
computing hessian-vector products by finite difference
              3      4.93e-02     00000 Conjugate Gradient Iteration
computing hessian-vector products by finite difference
              4      1.27e-02     00000 Conjugate Gradient Iteration
computing hessian-vector products by finite difference
              5      1.85e-03     00000 Conjugate Gradient Iteration
computing hessian-vector products by finite difference
              6      3.64e-04     00000 Conjugate Gradient Iteration
computing hessian-vector products by finite difference
              7      5.41e-05     00000 Conjugate Gradient Iteration
computing hessian-vector products by finite difference
              8      1.02e-05     00000 Conjugate Gradient Iteration
computing hessian-vector products by finite difference
              9      1.64e-06     00000 Conjugate Gradient Iteration
computing hessian-vector products by finite difference
             10      2.31e-07     00000 Conjugate Gradient Iteration
computing hessian-vector products by finite difference
             11      2.78e-08     00000 Conjugate Gradient Iteration
computing hessian-vector products by finite difference
             12      3.40e-09     00000 CG Converged
batch 0 complete
Done Calculating Responses
TESTING ORTHOGONALIZATION OF MULTIPOLE BASIS
Multipole virts passed orthogonality test
Virts Per Order
           72
          120
 
 --------------------------------------------------------------
 
                    Orbital Energies (a.u.)
 --------------------------------------------------------------
 
 Alpha MOs
 -- Occupied --
-14.4520 -14.4471 -14.4449 -10.4205 -10.3068 -10.2590  -1.1739  -1.0568
 -1.0426  -0.9021  -0.7823  -0.7554  -0.7201  -0.6823  -0.6163  -0.6106
 -0.6070  -0.5756  -0.5553  -0.4943  -0.4714  -0.4654  -0.3991  -0.3751
 -- Virtual --
  0.0595   0.0824   0.0878   0.1031   0.1137   0.1217   0.1274   0.1321
  0.1558   0.1656   0.1683   0.1875   0.1944   0.1977   0.2105   0.2106
  0.2198   0.2269   0.2326   0.2470   0.2556   0.2592   0.2706   0.2731
  0.2752   0.2847   0.2919   0.2980   0.3093   0.3240   0.3284   0.3293
  0.3364   0.3462   0.3488   0.3512   0.3577   0.3645   0.3723   0.3794
  0.3854   0.3881   0.3947   0.4004   0.4057   0.4131   0.4262   0.4337
  0.4387   0.4460   0.4572   0.4634   0.4708   0.4756   0.4825   0.4868
  0.4907   0.5020   0.5080   0.5137   0.5210   0.5282   0.5324   0.5386
  0.5415   0.5525   0.5591   0.5663   0.5721   0.5791   0.5864   0.6012
  0.6061   0.6195   0.6319   0.6579   0.6640   0.6695   0.6759   0.6829
  0.6932   0.7108   0.7140   0.7355   0.7493   0.7621   0.7644   0.7756
  0.7898   0.7977   0.7987   0.8104   0.8191   0.8349   0.8488   0.8536
  0.8691   0.8731   0.8886   0.9036   0.9149   0.9228   0.9353   0.9454
  0.9589   0.9918   1.0025   1.0132   1.0367   1.0458   1.0718   1.0865
  1.0975   1.1189   1.1337   1.1483   1.1679   1.1743   1.1872   1.1948
  1.2144   1.2790   1.2831   1.3207   1.3360   1.3744   1.3997   1.4153
  1.4427   1.4556   1.4657   1.5088   1.5150   1.5505   1.5845   1.6015
  1.6772   1.6848   1.7047   1.7177   1.7643   1.8290   1.8436   1.8780
  1.8884   1.9039   1.9149   1.9322   1.9452   1.9587   1.9709   1.9822
  1.9941   2.0098   2.0443   2.0603   2.0905   2.1224   2.1431   2.1447
  2.1944   2.2023   2.2247   2.2511   2.2630   2.2806   2.3201   2.3394
  2.4036   2.4100   2.4193   2.4480   2.4619   2.5125   2.5468   2.5581
  2.5898   2.5987   2.6180   2.6338   2.6545   2.6742   2.6792   2.6993
  2.7288   2.7785   2.8126   2.8343   2.8427   2.8659   2.8857   2.9008
  2.9154   2.9312   2.9572   3.0078   3.0127   3.0734   3.1239   3.1508
  3.1587   3.1749   3.1838   3.2071   3.2478   3.2582   3.2639   3.3039
  3.3130   3.3336   3.3428   3.3611   3.3927   3.4106   3.4305   3.4450
  3.4855   3.5106   3.5370   3.5615   3.5694   3.5990   3.6271   3.6541
  3.6886   3.7378   3.7391   3.8363   3.9070   3.9227   3.9537   3.9816
  4.0180   4.0793   4.1201   4.1857   4.1953   4.2903   4.3164   4.3307
  4.3461   4.3683   4.3817   4.4288   4.5498   4.6066   4.6308   4.6770
  4.7180   4.8279   4.8525   4.8728   4.8780   4.9691   4.9995   5.0274
  5.0624   5.0802   5.1273   5.1458   5.1542   5.2222   5.2295   5.2329
  5.3053   5.3918   5.4070   5.4305   5.4525   5.4728   5.4985   5.5501
  5.6084   5.6833   5.7315   5.8284   5.8717   5.9380   6.1697   6.2104
  6.4100   6.5080  22.6332  22.8877  23.7067  32.3485  32.5131  32.9263
 --------------------------------------------------------------
 
          Ground-State Mulliken Net Atomic Charges

     Atom                 Charge (a.u.)
  ----------------------------------------
      1 C                    -0.296469
      2 C                    -1.131357
      3 C                     0.386040
      4 N                    -0.094043
      5 N                    -0.271804
      6 N                    -0.301396
      7 H                     0.283336
      8 H                     0.333885
      9 H                     0.278000
     10 H                     0.295628
     11 H                     0.284053
     12 H                     0.226205
     13 H                     0.239715
     14 H                     0.251455
     15 H                     0.244294
     16 H                     0.272460
  ----------------------------------------
  Sum of atomic charges =     1.000000

 -----------------------------------------------------------------
                    Cartesian Multipole Moments
 -----------------------------------------------------------------
    Charge (ESU x 10^10)
                 4.8032
    Dipole Moment (Debye)
         X       1.2598      Y      -3.5583      Z      -8.5803
       Tot       9.3739
    Quadrupole Moments (Debye-Ang)
        XX     -28.9608     XY     -10.2541     YY     -26.0847
        XZ      -4.4321     YZ       5.7460     ZZ      -7.9833
    Octopole Moments (Debye-Ang^2)
       XXX      48.3843    XXY      -6.7505    XYY      33.2863
       YYY      -8.1501    XXZ      46.7799    XYZ      17.9440
       YYZ      44.7142    XZZ      31.7274    YZZ     -15.6537
       ZZZ      78.4438
    Hexadecapole Moments (Debye-Ang^3)
      XXXX    -410.2082   XXXY     133.5467   XXYY    -101.5853
      XYYY     117.0782   YYYY    -323.0531   XXXZ     -63.6659
      XXYZ      13.7642   XYYZ     -49.2936   YYYZ      -8.2295
      XXZZ    -164.4501   XYZZ       6.5346   YYZZ    -154.2377
      XZZZ    -107.3645   YZZZ      30.4549   ZZZZ    -399.9375
 -----------------------------------------------------------------
Archival summary:
1\1\nid00539\SP\ProcedureUnspecified\BasisUnspecified\3310(1+,1)\meili\SunSep2614:43:022021SunSep2614:43:022021\0\\#,ProcedureUnspecified,BasisUnspecified,\\1,1\N\H,1,1.0144\C,1,1.32356,2,117.455\N,3,1.31617,1,120.267,2,1.55831,0\H,4,1.00864,3,120.857,1,-178.489,0\H,4,1.01022,3,120.463,1,6.02548,0\N,3,1.31823,1,120.024,2,-178.249,0\H,7,1.00596,3,119.152,1,-5.25049,0\H,7,1.00997,3,119.821,1,173.342,0\C,1,1.46738,2,118.443,3,-178.287,0\H,10,1.0759,1,108.605,2,-114.211,0\H,10,1.09324,1,110.701,2,123.348,0\C,10,1.5084,1,112.378,2,1.21103,0\H,13,1.08948,10,108.574,1,164.892,0\H,13,1.09178,10,109.005,1,47.4404,0\H,13,1.1,10,110.746,1,-73.1266,0\\\@

 Total job time:  23332.41s(wall), 46380.86s(cpu) 
 Sun Sep 26 14:43:05 2021

        *************************************************************
        *                                                           *
        *  Thank you very much for using Q-Chem.  Have a nice day.  *
        *                                                           *
        *************************************************************


Done Job For Fragment 1
calling putenv with: QCSCRATCH=/global/cscratch1/sd/meili 
calling putenv with: QCLOCALSCR=/tmp 
calling putenv with: QCTHREADS=32 
Doing General SCFMI
 Exchange:     0.1670 Hartree-Fock + 1.0000 wB97X-V + LR-HF
 Correlation:  1.0000 wB97X-V
 Using Euler-Maclaurin-Lebedev (99,590) quadrature formula
 Nonlocal Correlation:  VV10 with C = 0.0100 and b = 6.00 and scale = 1.00000
 Grid used for NLC:  SG-1 standard quadrature
performing fock build before subrot guess so that all methods have access
Printing subrot_rss_gen Method Specification:
Occupied Subspace Method is 0
Virtual Subspace Method is 0
Energy of the unrelaxed supersystem initial determinant -493.655471297184
performing fock build before subrot guess so that all methods have access
Printing subrot_rss_gen Method Specification:
Occupied Subspace Method is 0
Virtual Subspace Method is 0
Energy of the unrelaxed supersystem initial determinant w/ solvent -493.774113140305
write pseudocanon occs and virts to disk
write pseudocanon orbital energies to disk
Tolerance of ortho_decomp_scf: 1.00e-06
GDM subspace size: 20
Beginning the Orthogonal Decomposition of the Initial Supersystem Wavefunction
    1    -493.5822764376      7.87e-02     ortho_decomp Preconditoned Steepest Descent
    2    -493.5936139474      1.99e-03     ortho_decomp BFGS Step
    3    -493.5936570444      1.82e-04     ortho_decomp BFGS Step
    4    -493.5936571449      8.03e-06     ortho_decomp BFGS Step
    5    -493.5936571454      3.14e-07     ortho_decomp 00000 Convergence criterion met
 Hartree-Fock
 Hartree-Fock
 Hartree-Fock
Doing General SCFMI
 Exchange:     0.1670 Hartree-Fock + 1.0000 wB97X-V + LR-HF
 Correlation:  1.0000 wB97X-V
 Using Euler-Maclaurin-Lebedev (99,590) quadrature formula
 Nonlocal Correlation:  VV10 with C = 0.0100 and b = 6.00 and scale = 1.00000
 Grid used for NLC:  SG-1 standard quadrature
performing fock build at end of subrot_r(subrot) constructor so that all methods have access
<S^2> of initial wavefunction before polarization iterations 0.0000000000
Beginning iterations for the determination of the polarized wavefunction
Energy prior to optimization (guess energy) = -493.774113140305
Begin Timing: Total SCF Calculation
begin iterations for algorithm: DIIS         
the SCF tolerance is set to 1.00e-08
    1    -493.7741131403      1.30e-04     00000 
    2    -493.7750186511      8.57e-05     00000 
    3    -493.7751962770      3.83e-05     00000 
    4    -493.7752547553      1.08e-05     00000 
    5    -493.7752628347      4.56e-06     00000 
    6    -493.7752649415      2.05e-06     00000 
    7    -493.7752653378      8.22e-07     00000 
    8    -493.7752653956      2.93e-07     00000 
    9    -493.7752654029      9.34e-08     00000 
   10    -493.7752654035      5.17e-08     00000 
   11    -493.7752654036      1.88e-08     00000 
   12    -493.7752654036      8.30e-09     00000 Convergence criterion met
write pseudocanon occs and virts to disk
write pseudocanon orbital energies to disk
Timing for Total SCF: 4767.00s (wall), 9484.04s (cpu)
<S^2> of polarized wavefunction after polarization iterations 0.0000000000
relaxing scfmi constraint to allow all rotations in the entire AO span
Doing General SCFMI
 Exchange:     0.1670 Hartree-Fock + 1.0000 wB97X-V + LR-HF
 Correlation:  1.0000 wB97X-V
 Using Euler-Maclaurin-Lebedev (99,590) quadrature formula
 Nonlocal Correlation:  VV10 with C = 0.0100 and b = 6.00 and scale = 1.00000
 Grid used for NLC:  SG-1 standard quadrature
performing fock build at end of subrot_r(subrot) constructor so that all methods have access
<S^2> of polarized wavefunction before ct-allowed iterations 0.0000000000
Beginning iterations for the determination of the CT-Allowed wavefunction
Energy prior to optimization (guess energy) = -493.775265403606
Begin Timing: Total SCF Calculation
begin iterations for algorithm: DIIS         
the SCF tolerance is set to 1.00e-08
    1    -493.7752654036      1.30e-04     00000 
    2    -493.7778088766      1.75e-05     00000 
    3    -493.7778958030      6.11e-06     00000 
    4    -493.7778991011      4.35e-06     00000 
    5    -493.7779009672      4.77e-07     00000 
    6    -493.7779010103      2.28e-07     00000 
    7    -493.7779010195      5.56e-08     00000 
    8    -493.7779010201      2.13e-08     00000 
    9    -493.7779010202      5.70e-09     00000 Convergence criterion met
write pseudocanon occs and virts to disk
write pseudocanon orbital energies to disk
Timing for Total SCF: 3447.00s (wall), 6857.50s (cpu)
<S^2> of ct_allowed wavefunction after ct-allowed iterations 0.0000000000

================================
        Results of EDA2         
================================
Basic EDA Quantities
--------------------
Fragment Energies (Ha):
1 -209.2505172752
2 -284.5199135255
--------------------
  E_prp (kJ/mol) = 0.0000
  E_sol (kJ/mol) = 43.6018
  E_frz (kJ/mol) = -31.2342
  E_pol (kJ/mol) = -3.0253
  E_vct (kJ/mol) = -6.9199
  E_int (kJ/mol) = 2.4224
--------------------


Initial Wavefunction Decomposition
--------------------
  --------------------
  Orthogonal Fragment Subspace Decomposition:
  --------------------
     E_elec   (ELEC)   (kJ/mol) = -112.7606
     E_pauli  (PAULI)  (kJ/mol) = 105.4977
     E_disp   (DISP)   (kJ/mol) = -23.9714
     --------------------
     Terms summing to E_pauli:
     --------------------
        E_kep_pauli       (kJ/mol) = 131.0608
        E_disp_free_pauli (kJ/mol) = -25.5630
  --------------------
  Classical Frozen Decomposition:
  --------------------
     E_cls_elec  (CLS ELEC)  (kJ/mol) = -71.6093
     E_cls_pauli (CLS PAULI) (kJ/mol) = 40.3751
    [E_mod_pauli (MOD PAULI) (kJ/mol) = 64.3464 (CLS PAULI - DISP from orthogonal decomposition) ]
  --------------------
--------------------

Simplified EDA Summary (kJ/mol)
--------------------
 PREPARATION     0.0000
 SOLVATION       43.6018
 FROZEN          -7.2628      (does not include dispersion)
[PAULI           105.4977]     (if this is negligible, then frozen describes electrostatics)
 DISPERSION      -23.9714
 POLARIZATION    -3.0253
 CHARGE TRANSFER -6.9199
 TOTAL           2.4224     (PRP + SOL + FRZ + DISP + POL + CT)
--------------------
 
 --------------------------------------------------------------
 
                    Orbital Energies (a.u.)
 --------------------------------------------------------------
 
 Alpha MOs
 -- Occupied --
-19.1871 -14.4498 -14.4437 -14.4435 -14.4286 -10.4184 -10.3781 -10.2997
-10.2617 -10.2570  -1.1852  -1.1717  -1.0548  -1.0494  -1.0408  -0.8992
 -0.8708  -0.7810  -0.7536  -0.7192  -0.7117  -0.6811  -0.6544  -0.6183
 -0.6117  -0.6067  -0.5932  -0.5727  -0.5695  -0.5532  -0.5252  -0.5068
 -0.4922  -0.4775  -0.4682  -0.4584  -0.4003  -0.3898  -0.3764  -0.3702
 -- Virtual --
  0.0562   0.0731   0.0807   0.0876   0.1011   0.1033   0.1044   0.1075
  0.1140   0.1234   0.1313   0.1343   0.1456   0.1498   0.1568   0.1640
  0.1682   0.1741   0.1848   0.1945   0.1978   0.2053   0.2090   0.2115
  0.2153   0.2233   0.2285   0.2290   0.2387   0.2439   0.2497   0.2566
  0.2608   0.2624   0.2707   0.2750   0.2848   0.2887   0.2925   0.2979
  0.3022   0.3069   0.3101   0.3130   0.3163   0.3186   0.3238   0.3311
  0.3394   0.3419   0.3432   0.3448   0.3505   0.3515   0.3548   0.3628
  0.3647   0.3702   0.3713   0.3738   0.3797   0.3813   0.3865   0.3903
  0.3961   0.4009   0.4053   0.4104   0.4168   0.4225   0.4243   0.4318
  0.4347   0.4405   0.4440   0.4503   0.4601   0.4621   0.4659   0.4709
  0.4748   0.4778   0.4825   0.4866   0.4894   0.4929   0.5005   0.5079
  0.5085   0.5155   0.5225   0.5233   0.5288   0.5314   0.5355   0.5407
  0.5440   0.5491   0.5519   0.5585   0.5601   0.5667   0.5677   0.5730
  0.5817   0.5906   0.5957   0.5975   0.6006   0.6100   0.6211   0.6243
  0.6302   0.6375   0.6405   0.6442   0.6559   0.6575   0.6646   0.6737
  0.6810   0.6894   0.6899   0.6972   0.6997   0.7052   0.7147   0.7225
  0.7344   0.7383   0.7432   0.7492   0.7607   0.7675   0.7707   0.7771
  0.7818   0.7911   0.7960   0.8025   0.8070   0.8138   0.8147   0.8200
  0.8244   0.8320   0.8434   0.8497   0.8552   0.8602   0.8682   0.8783
  0.8788   0.8952   0.9031   0.9088   0.9137   0.9286   0.9318   0.9350
  0.9505   0.9551   0.9585   0.9660   0.9789   0.9942   1.0010   1.0063
  1.0140   1.0210   1.0272   1.0335   1.0514   1.0578   1.0669   1.0821
  1.0954   1.1040   1.1127   1.1229   1.1287   1.1413   1.1492   1.1721
  1.1741   1.1891   1.1952   1.2091   1.2130   1.2246   1.2362   1.2424
  1.2565   1.2746   1.2924   1.2985   1.3152   1.3208   1.3366   1.3436
  1.3566   1.3631   1.3886   1.4005   1.4173   1.4240   1.4589   1.4668
  1.4747   1.4811   1.5042   1.5307   1.5366   1.5419   1.5634   1.5880
  1.6014   1.6351   1.6504   1.6998   1.7070   1.7166   1.7286   1.7448
  1.7548   1.7768   1.7919   1.8121   1.8526   1.8599   1.8856   1.9006
  1.9128   1.9169   1.9308   1.9367   1.9415   1.9573   1.9675   1.9776
  1.9846   1.9875   1.9961   2.0010   2.0194   2.0268   2.0478   2.0520
  2.0581   2.0852   2.0958   2.1125   2.1179   2.1410   2.1628   2.1711
  2.1817   2.1966   2.2161   2.2260   2.2322   2.2552   2.2753   2.2905
  2.3148   2.3217   2.3330   2.3479   2.3613   2.3697   2.3954   2.4046
  2.4221   2.4370   2.4546   2.4601   2.4781   2.4924   2.5106   2.5173
  2.5539   2.5585   2.5859   2.5928   2.6044   2.6296   2.6318   2.6363
  2.6547   2.6727   2.6759   2.6924   2.7072   2.7122   2.7173   2.7327
  2.7349   2.7732   2.8027   2.8133   2.8324   2.8447   2.8663   2.8707
  2.8880   2.9010   2.9192   2.9249   2.9327   2.9487   2.9658   2.9714
  2.9855   2.9963   3.0329   3.0399   3.0548   3.0957   3.1066   3.1420
  3.1628   3.1702   3.1783   3.1958   3.2009   3.2089   3.2435   3.2525
  3.2684   3.2768   3.2820   3.2974   3.3025   3.3068   3.3216   3.3293
  3.3393   3.3537   3.3662   3.3783   3.3920   3.4108   3.4159   3.4253
  3.4372   3.4512   3.4605   3.4816   3.5131   3.5217   3.5393   3.5471
  3.5686   3.5773   3.5970   3.6076   3.6225   3.6491   3.6605   3.6757
  3.6966   3.7146   3.7296   3.7438   3.7572   3.7860   3.7950   3.8701
  3.9327   3.9386   3.9528   3.9681   3.9773   4.0042   4.0357   4.0446
  4.0889   4.1183   4.1302   4.1531   4.1991   4.2128   4.2268   4.2926
  4.3101   4.3333   4.3516   4.3768   4.3865   4.4058   4.4467   4.5247
  4.5593   4.5688   4.6280   4.6430   4.6532   4.6618   4.6878   4.7134
  4.7347   4.8399   4.8584   4.8706   4.8902   4.9085   4.9440   4.9463
  4.9685   4.9801   5.0272   5.0450   5.0847   5.0983   5.1534   5.1634
  5.1766   5.1931   5.2126   5.2353   5.2509   5.2553   5.2768   5.3209
  5.3635   5.3977   5.4190   5.4288   5.4396   5.4429   5.4683   5.4785
  5.4921   5.4977   5.5361   5.5678   5.5893   5.6453   5.7145   5.7703
  5.7940   5.8473   5.8878   5.9380   5.9532   6.1483   6.1863   6.2312
  6.3423   6.4338   6.5223   6.5995   6.7203   6.7986   6.8659   7.0479
  7.2701   7.3910  22.6583  22.6630  22.9462  23.6765  23.7344  32.4065
 32.5017  32.5891  32.9685  44.4163
 --------------------------------------------------------------
 
          Ground-State Mulliken Net Atomic Charges

     Atom                 Charge (a.u.)
  ----------------------------------------
      1 C                    -0.918022
      2 C                     0.628757
      3 O                    -0.687530
      4 N                    -0.330281
      5 H                     0.305438
      6 H                     0.242460
      7 H                     0.294868
      8 H                     0.228205
      9 H                     0.260365
     10 C                    -0.094422
     11 C                    -1.197428
     12 C                     0.392439
     13 N                    -0.100895
     14 N                    -0.269038
     15 N                    -0.308159
     16 H                     0.177159
     17 H                     0.298409
     18 H                     0.299415
     19 H                     0.287274
     20 H                     0.286644
     21 H                     0.180496
     22 H                     0.237628
     23 H                     0.249582
     24 H                     0.250497
     25 H                     0.286137
  ----------------------------------------
  Sum of atomic charges =     1.000000

 -----------------------------------------------------------------
                    Cartesian Multipole Moments
 -----------------------------------------------------------------
    Charge (ESU x 10^10)
                 4.8032
    Dipole Moment (Debye)
         X       2.6187      Y      -7.3858      Z      -3.8900
       Tot       8.7487
    Quadrupole Moments (Debye-Ang)
        XX     -49.7992     XY     -14.5471     YY     -51.8896
        XZ      -0.7872     YZ      -0.8751     ZZ     -12.6105
    Octopole Moments (Debye-Ang^2)
       XXX      22.8727    XXY     -20.1227    XYY      23.9737
       YYY     -34.1525    XXZ      -5.8984    XYZ       7.9182
       YYZ     -12.7168    XZZ      33.5533    YZZ     -37.3495
       ZZZ     -29.3456
    Hexadecapole Moments (Debye-Ang^3)
      XXXX    -512.1962   XXXY     138.5700   XXYY    -134.1825
      XYYY     123.3013   YYYY    -447.6039   XXXZ    -120.0644
      XXYZ     -12.7226   XYYZ     -65.1923   YYYZ     -67.6086
      XXZZ    -345.2869   XYZZ     -12.0536   YYZZ    -332.3019
      XZZZ    -125.2886   YZZZ     -58.9766   ZZZZ   -1213.0441
 -----------------------------------------------------------------
Archival summary:
1\1\nid00539\SP\ProcedureUnspecified\BasisUnspecified\14515(1+,1)\meili\SunSep2618:50:102021SunSep2618:50:102021\0\\#,ProcedureUnspecified,BasisUnspecified,\\1,1\O\C,1,1.22553\N,2,1.31915,1,122.59\H,3,1.00863,2,118.321,1,16.7567,0\H,3,1.01222,2,119.956,1,179.263,0\C,2,1.49052,1,121.528,3,-178.967,0\H,6,1.0859,2,109.924,1,-128.421,0\H,6,1.09057,2,104.891,1,118.693,0\H,6,1.1,2,112.922,1,1.16009,0\H,1,2.16022,2,140.675,3,89.1431,0\C,10,1.0759,1,135.904,2,-21.4222,0\H,11,1.09324,10,111.272,1,30.9546,0\N,11,1.46738,10,108.605,1,-91.1397,0\H,13,1.0144,11,118.443,10,-114.211,0\C,13,1.32356,11,124.077,10,67.6247,0\N,15,1.31617,13,120.267,11,179.74,0\H,16,1.00864,15,120.857,13,-178.489,0\H,16,1.01022,15,120.463,13,6.02548,0\N,15,1.31823,13,120.024,11,-0.067828,0\H,19,1.00596,15,119.152,13,-5.25049,0\H,19,1.00997,15,119.821,13,173.342,0\C,11,1.5084,10,104.758,1,148.589,0\H,22,1.08948,11,108.574,10,-77.381,0\H,22,1.09178,11,109.005,10,165.168,0\H,22,1.1,11,110.746,10,44.6006,0\\\@

 Total job time:  44423.58s(wall), 29526.44s(cpu) 
 Sun Sep 26 18:50:13 2021

        *************************************************************
        *                                                           *
        *  Thank you very much for using Q-Chem.  Have a nice day.  *
        *                                                           *
        *************************************************************


