
Running Job 1 of 1 SSI-113ASP-195GLN-1_SMD_TZVPD.in
qchem SSI-113ASP-195GLN-1_SMD_TZVPD.in_65117.0 /tmp/qchem65117/ 0
/global/common/cori/software/qchem/5.2/exe/qcprog.exe_s SSI-113ASP-195GLN-1_SMD_TZVPD.in_65117.0 /tmp/qchem65117/
                  Welcome to Q-Chem
     A Quantum Leap Into The Future Of Chemistry


 Q-Chem 5.2, Q-Chem, Inc., Pleasanton, CA (2019)

 License issued to: National Energy Research Scientific Computing Center

 Yihan Shao,  Zhengting Gan,  E. Epifanovsky,  A. T. B. Gilbert,  M. Wormit,  
 J. Kussmann,  A. W. Lange,  A. Behn,  Jia Deng,  Xintian Feng,  D. Ghosh,  
 M. Goldey,  P. R. Horn,  L. D. Jacobson,  I. Kaliman,  T. Kus,  A. Landau,  
 Jie Liu,  E. I. Proynov,  R. M. Richard,  R. P. Steele,  E. J. Sundstrom,  
 H. L. Woodcock III,  P. M. Zimmerman,  D. Zuev,  B. Albrecht,  E. Alguire,  
 S. A. Baeppler,  D. Barton,  Z. Benda,  Y. A. Bernard,  E. J. Berquist,  
 K. B. Bravaya,  H. Burton,  D. Casanova,  Chun-Min Chang,  Yunqing Chen,  
 A. Chien,  K. D. Closser,  M. P. Coons,  S. Coriani,  S. Dasgupta,  
 A. L. Dempwolff,  M. Diedenhofen,  Hainam Do,  R. G. Edgar,  Po-Tung Fang,  
 S. Faraji,  S. Fatehi,  Qingguo Feng,  K. D. Fenk,  J. Fosso-Tande,  
 J. Gayvert,  Qinghui Ge,  A. Ghysels,  G. Gidofalvi,  J. Gomes,  
 J. Gonthier,  A. Gunina,  D. Hait,  M. W. D. Hanson-Heine,  
 P. H. P. Harbach,  A. W. Hauser,  M. F. Herbst,  J. E. Herr,  
 E. G. Hohenstein,  Z. C. Holden,  Kerwin Hui,  B. C. Huynh,  T.-C. Jagau,  
 Hyunjun Ji,  B. Kaduk,  K. Khistyaev,  Jaehoon Kim,  P. Klunzinger,  K. Koh,  
 D. Kosenkov,  L. Koulias,  T. Kowalczyk,  C. M. Krauter,  A. Kunitsa,  
 Ka Un Lao,  A. Laurent,  K. V. Lawler,  Joonho Lee,  D. Lefrancois,  
 S. Lehtola,  D. S. Levine,  Yi-Pei Li,  You-Sheng Lin,  Fenglai Liu,  
 E. Livshits,  A. Luenser,  P. Manohar,  E. Mansoor,  S. F. Manzer,  
 Shan-Ping Mao,  Yuezhi Mao,  N. Mardirossian,  A. V. Marenich,  
 T. Markovich,  L. A. Martinez-Martinez,  S. A. Maurer,  N. J. Mayhall,  
 S. C. McKenzie,  J.-M. Mewes,  P. Morgante,  A. F. Morrison,  
 J. W. Mullinax,  K. Nanda,  T. S. Nguyen-Beck,  R. Olivares-Amaya,  
 J. A. Parkhill,  Zheng Pei,  T. M. Perrine,  F. Plasser,  P. Pokhilko,  
 S. Prager,  A. Prociuk,  E. Ramos,  D. R. Rehn,  F. Rob,  M. Scheurer,  
 M. Schneider,  N. Sergueev,  S. M. Sharada,  S. Sharma,  D. W. Small,  
 T. Stauch,  T. Stein,  Yu-Chuan Su,  A. J. W. Thom,  A. Tkatchenko,  
 T. Tsuchimochi,  N. M. Tubman,  L. Vogt,  M. L. Vidal,  O. Vydrov,  
 M. A. Watson,  J. Wenzel,  M. de Wergifosse,  T. A. Wesolowski,  A. White,  
 J. Witte,  A. Yamada,  Jun Yang,  K. Yao,  S. Yeganeh,  S. R. Yost,  
 Zhi-Qiang You,  A. Zech,  Igor Ying Zhang,  Xing Zhang,  Yan Zhao,  
 Ying Zhu,  B. R. Brooks,  G. K. L. Chan,  C. J. Cramer,  M. S. Gordon,  
 W. J. Hehre,  A. Klamt,  M. W. Schmidt,  C. D. Sherrill,  D. G. Truhlar,  
 A. Aspuru-Guzik,  R. Baer,  A. T. Bell,  N. A. Besley,  Jeng-Da Chai,  
 A. E. DePrince, III,  R. A. DiStasio Jr.,  A. Dreuw,  B. D. Dunietz,  
 T. R. Furlani,  Chao-Ping Hsu,  Yousung Jung,  Jing Kong,  D. S. Lambrecht,  
 WanZhen Liang,  C. Ochsenfeld,  V. A. Rassolov,  L. V. Slipchenko,  
 J. E. Subotnik,  T. Van Voorhis,  J. M. Herbert,  A. I. Krylov,  
 P. M. W. Gill,  M. Head-Gordon

 Contributors to earlier versions of Q-Chem not listed above: 
 R. D. Adamson,  B. Austin,  J. Baker,  G. J. O. Beran,  K. Brandhorst,  
 S. T. Brown,  E. F. C. Byrd,  A. K. Chakraborty,  C.-L. Cheng,  
 Siu Hung Chien,  D. M. Chipman,  D. L. Crittenden,  H. Dachsel,  
 R. J. Doerksen,  A. D. Dutoi,  L. Fusti-Molnar,  W. A. Goddard III,  
 A. Golubeva-Zadorozhnaya,  S. R. Gwaltney,  G. Hawkins,  A. Heyden,  
 S. Hirata,  G. Kedziora,  F. J. Keil,  C. Kelley,  Jihan Kim,  R. A. King,  
 R. Z. Khaliullin,  P. P. Korambath,  W. Kurlancheek,  A. M. Lee,  M. S. Lee,  
 S. V. Levchenko,  Ching Yeh Lin,  D. Liotard,  R. C. Lochan,  I. Lotan,  
 P. E. Maslen,  N. Nair,  D. P. O'Neill,  D. Neuhauser,  E. Neuscamman,  
 C. M. Oana,  R. Olson,  B. Peters,  R. Peverati,  P. A. Pieniazek,  
 Y. M. Rhee,  J. Ritchie,  M. A. Rohrdanz,  E. Rosta,  N. J. Russ,  
 H. F. Schaefer III,  N. E. Schultz,  N. Shenvi,  A. C. Simmonett,  A. Sodt,  
 D. Stuck,  K. S. Thanthiriwatte,  V. Vanovschi,  Tao Wang,  A. Warshel,  
 C. F. Williams,  Q. Wu,  X. Xu,  W. Zhang

 Please cite Q-Chem as follows:
 Y. Shao et al., Mol. Phys. 113, 184-215 (2015)
 DOI: 10.1080/00268976.2014.952696

 Q-Chem 5.2.0 for Intel X86 EM64T Linux

 Parts of Q-Chem use Armadillo 8.300.2 (Tropical Shenanigans).
 http://arma.sourceforge.net/

 Q-Chem begins on Sun Sep 26 13:49:22 2021  

Host: cori01
0

     Scratch files written to /tmp/qchem65117//
 May1019 |scratch|qcdevops|jenkins|workspace|build_RNUM -1
Processing $rem in /global/common/cori/software/qchem/5.2/config/preferences:
	 MEM_TOTAL  96000 
NAlpha2: 64
NElect   64
Mult     1
Symmetry turned off for PCM/SM12/SMD calculation

 Q-Chem warning in module libgen/rem_setup.C, line 2803:

 Neither GIA nor STOLL is specified by user. Use STOLL as the default


Checking the input file for inconsistencies... 	...done.

--------------------------------------------------------------
User input:
--------------------------------------------------------------
$comment
SSI-113ASP-195GLN-1.pdb
$end

$molecule
-1 1
--
-1 1
C   -1.704344332227    0.080459694512   -3.525666973530
C   -0.872344332227    0.529459694512   -2.328666973530
O   -1.163344332227    0.117459694512   -1.189666973530
O    0.100655667773    1.288459694512   -2.535666973530
H   -1.153344332227   -0.712540305488   -4.026666973530
H   -1.826344332227    0.904459694512   -4.231666973530
H   -2.690334332227   -0.309770305488   -3.233176973530
--
0 1
C    1.303655667773   -1.868540305488    2.708333026470
C    0.917655667773   -0.427540305488    2.426333026470
O    1.244655667773    0.485459694512    3.185333026470
N    0.226655667773   -0.206540305488    1.323333026470
H   -0.089344332227    0.715459694512    1.105333026470
H   -0.239344332227   -0.980540305488    0.861333026470
H    2.209655667773   -2.099540305488    2.151333026470
H    0.516655667773   -2.524540305488    2.347333026470
H    1.466635667773   -2.063970305488    3.778495026470
$end

$rem
JOBTYPE			EDA
EDA2			1
method			wB97X-V
BASIS			def2-TZVPD
XC_GRID			000099000590
NL_GRID			1
UNRESTRICTED		FALSE
MAX_SCF_CYCLES		200
SYMMETRY		FALSE
SYM_IGNORE		TRUE
MEM_STATIC		2000
BASIS_LIN_DEP_THRESH 	6
THRESH 			14
SCF_CONVERGENCE 	8
SCF_PRINT_FRGM 		TRUE
SOLVENT_METHOD          SMD
$end

$SMX
SOLVENT			WATER
$END
--------------------------------------------------------------
 ----------------------------------------------------------------
             Standard Nuclear Orientation (Angstroms)
    I     Atom           X                Y                Z
 ----------------------------------------------------------------
    1      C      -1.7043443322     0.0804596945    -3.5256669735
    2      C      -0.8723443322     0.5294596945    -2.3286669735
    3      O      -1.1633443322     0.1174596945    -1.1896669735
    4      O       0.1006556678     1.2884596945    -2.5356669735
    5      H      -1.1533443322    -0.7125403055    -4.0266669735
    6      H      -1.8263443322     0.9044596945    -4.2316669735
    7      H      -2.6903343322    -0.3097703055    -3.2331769735
    8      C       1.3036556678    -1.8685403055     2.7083330265
    9      C       0.9176556678    -0.4275403055     2.4263330265
   10      O       1.2446556678     0.4854596945     3.1853330265
   11      N       0.2266556678    -0.2065403055     1.3233330265
   12      H      -0.0893443322     0.7154596945     1.1053330265
   13      H      -0.2393443322    -0.9805403055     0.8613330265
   14      H       2.2096556678    -2.0995403055     2.1513330265
   15      H       0.5166556678    -2.5245403055     2.3473330265
   16      H       1.4666356678    -2.0639703055     3.7784950265
 ----------------------------------------------------------------
 Nuclear Repulsion Energy =         338.37768232 hartrees
 There are       32 alpha and       32 beta electrons
 Requested basis set is def2-TZVPD
 There are 147 shells and 377 basis functions

 Total QAlloc Memory Limit  96000 MB
 Mega-Array Size      1956 MB
 MEM_STATIC part      2000 MB
 
 Citation of the SMD model:
 Marenich, A.V.; Cramer, C.J.; Truhlar, D.G.
 J. Phys. Chem. B 2009, 113, 6378-6396.
 iSolventCode=           1
 Solvent: water                                                           
 
 vradii
            1           2           3           4           5           6
    1   1.8500000   1.8500000   1.5200000   1.5200000   1.2000000   1.2000000
            7           8           9          10          11          12
    1   1.2000000   1.8500000   1.8500000   1.5200000   1.8900000   1.2000000
           13          14          15          16
    1   1.2000000   1.2000000   1.2000000   1.2000000
 Changing PCM_VDW_RADII to SMD_RADIUS
 Discretize the solute cavity surface with Lebedev spheres
	Using 110 Lebedev grid points for each H atom
	Using 194 Lebedev grid points for other atoms
	Atomic van der Waals radii will be scaled by 1.20
 Remove points where switching function is < 1.0e-08
 Keep 1365 surface tesserae and discard 1067 interior tesserae
 Molecular Surface Area = 164.467 Angst**2
 A cutoff of  1.0D-14 yielded   9331 shell pairs
 There are     61193 function pairs (     77074 Cartesian)
 Smallest overlap matrix eigenvalue = 9.00E-06

 Scale SEOQF with 1.000000e-01/1.000000e-01/1.000000e-01

 Standard Electronic Orientation quadrupole field applied
 Nucleus-field energy     =    -0.0000000374 hartrees

 -----------------------------------------------------------------------
  General SCF calculation program by
  Eric Jon Sundstrom, Paul Horn, Yuezhi Mao, Dmitri Zuev, Alec White,
  David Stuck, Shaama M.S., Shane Yost, Joonho Lee, David Small,
  Daniel Levine, Susi Lehtola, Hugh Burton, Evgeny Epifanovsky
 -----------------------------------------------------------------------
================================================================
                 ALMO-EDA with the EDA2 driver                  
================================================================
 The second-generation ALMO-EDA (for DFT):                      
 P. R. Horn, Y. Mao and M. Head-Gordon, PCCP, 18, 23067 (2016)  
 Decomposition of the frozen energy:                            
 P. R. Horn, Y. Mao and M. Head-Gordon, JCP, 144, 114107 (2016) 
 FERF model for polarization:                                   
 P. R. Horn and M. Head-Gordon, JCP, 143, 114111 (2015)         
Using eda2 option set 1
Option set summary: Frozen orbital wavefunction, initial wavefunction decomposition, and nDQ polarization.
--------------------------------
Printing EDA Options
--------------------------------
eda_child_super_basis      0
fragmo_guess_mode          0
child_mp                   1
child_mp_orders            232
cls_elec                   1
cls_disp                   0
scfmi_mode                 1
scfmi_occs                 0
scfmi_virts                0
frz_relax                  0
frz_relax_method           0
dc_pen_start               0
dc_pen_conv                0
dc_pen_increment           0
dc_pen_steps               0
dc_pen_thresh_factor       0
dc_pen_pre_newton_thresh   0
frz_ortho_decomp           1
frz_ortho_decomp_conv      6
frgm_method                2
scfmi_freeze_ss            0
separate_rehyb             0
plot_diff_den              0
eda_nocv                   0
eda_vct_relax              1
disp_free_x                0
disp_free_c                0
eda_bsse                   0
eda_pct_a                  0
eda_covp                   0
--------------------------------
Attempting to make child job directory: /tmp/qchem65117//Frg1/
Attempting to make child job directory: /tmp/qchem65117//Frg2/
Creating input file /tmp/qchem65117/Frg1.input
using default PutDataFrgm: nothing
calling putenv with: QCSCRATCH=/tmp/qchem65117/ 
calling putenv with: QCLOCALSCR=/tmp/qchem65117/ 
Spawning Job For Fragment 0
                  Welcome to Q-Chem
     A Quantum Leap Into The Future Of Chemistry


 Q-Chem 5.2, Q-Chem, Inc., Pleasanton, CA (2019)

 License issued to: National Energy Research Scientific Computing Center

 Yihan Shao,  Zhengting Gan,  E. Epifanovsky,  A. T. B. Gilbert,  M. Wormit,  
 J. Kussmann,  A. W. Lange,  A. Behn,  Jia Deng,  Xintian Feng,  D. Ghosh,  
 M. Goldey,  P. R. Horn,  L. D. Jacobson,  I. Kaliman,  T. Kus,  A. Landau,  
 Jie Liu,  E. I. Proynov,  R. M. Richard,  R. P. Steele,  E. J. Sundstrom,  
 H. L. Woodcock III,  P. M. Zimmerman,  D. Zuev,  B. Albrecht,  E. Alguire,  
 S. A. Baeppler,  D. Barton,  Z. Benda,  Y. A. Bernard,  E. J. Berquist,  
 K. B. Bravaya,  H. Burton,  D. Casanova,  Chun-Min Chang,  Yunqing Chen,  
 A. Chien,  K. D. Closser,  M. P. Coons,  S. Coriani,  S. Dasgupta,  
 A. L. Dempwolff,  M. Diedenhofen,  Hainam Do,  R. G. Edgar,  Po-Tung Fang,  
 S. Faraji,  S. Fatehi,  Qingguo Feng,  K. D. Fenk,  J. Fosso-Tande,  
 J. Gayvert,  Qinghui Ge,  A. Ghysels,  G. Gidofalvi,  J. Gomes,  
 J. Gonthier,  A. Gunina,  D. Hait,  M. W. D. Hanson-Heine,  
 P. H. P. Harbach,  A. W. Hauser,  M. F. Herbst,  J. E. Herr,  
 E. G. Hohenstein,  Z. C. Holden,  Kerwin Hui,  B. C. Huynh,  T.-C. Jagau,  
 Hyunjun Ji,  B. Kaduk,  K. Khistyaev,  Jaehoon Kim,  P. Klunzinger,  K. Koh,  
 D. Kosenkov,  L. Koulias,  T. Kowalczyk,  C. M. Krauter,  A. Kunitsa,  
 Ka Un Lao,  A. Laurent,  K. V. Lawler,  Joonho Lee,  D. Lefrancois,  
 S. Lehtola,  D. S. Levine,  Yi-Pei Li,  You-Sheng Lin,  Fenglai Liu,  
 E. Livshits,  A. Luenser,  P. Manohar,  E. Mansoor,  S. F. Manzer,  
 Shan-Ping Mao,  Yuezhi Mao,  N. Mardirossian,  A. V. Marenich,  
 T. Markovich,  L. A. Martinez-Martinez,  S. A. Maurer,  N. J. Mayhall,  
 S. C. McKenzie,  J.-M. Mewes,  P. Morgante,  A. F. Morrison,  
 J. W. Mullinax,  K. Nanda,  T. S. Nguyen-Beck,  R. Olivares-Amaya,  
 J. A. Parkhill,  Zheng Pei,  T. M. Perrine,  F. Plasser,  P. Pokhilko,  
 S. Prager,  A. Prociuk,  E. Ramos,  D. R. Rehn,  F. Rob,  M. Scheurer,  
 M. Schneider,  N. Sergueev,  S. M. Sharada,  S. Sharma,  D. W. Small,  
 T. Stauch,  T. Stein,  Yu-Chuan Su,  A. J. W. Thom,  A. Tkatchenko,  
 T. Tsuchimochi,  N. M. Tubman,  L. Vogt,  M. L. Vidal,  O. Vydrov,  
 M. A. Watson,  J. Wenzel,  M. de Wergifosse,  T. A. Wesolowski,  A. White,  
 J. Witte,  A. Yamada,  Jun Yang,  K. Yao,  S. Yeganeh,  S. R. Yost,  
 Zhi-Qiang You,  A. Zech,  Igor Ying Zhang,  Xing Zhang,  Yan Zhao,  
 Ying Zhu,  B. R. Brooks,  G. K. L. Chan,  C. J. Cramer,  M. S. Gordon,  
 W. J. Hehre,  A. Klamt,  M. W. Schmidt,  C. D. Sherrill,  D. G. Truhlar,  
 A. Aspuru-Guzik,  R. Baer,  A. T. Bell,  N. A. Besley,  Jeng-Da Chai,  
 A. E. DePrince, III,  R. A. DiStasio Jr.,  A. Dreuw,  B. D. Dunietz,  
 T. R. Furlani,  Chao-Ping Hsu,  Yousung Jung,  Jing Kong,  D. S. Lambrecht,  
 WanZhen Liang,  C. Ochsenfeld,  V. A. Rassolov,  L. V. Slipchenko,  
 J. E. Subotnik,  T. Van Voorhis,  J. M. Herbert,  A. I. Krylov,  
 P. M. W. Gill,  M. Head-Gordon

 Contributors to earlier versions of Q-Chem not listed above: 
 R. D. Adamson,  B. Austin,  J. Baker,  G. J. O. Beran,  K. Brandhorst,  
 S. T. Brown,  E. F. C. Byrd,  A. K. Chakraborty,  C.-L. Cheng,  
 Siu Hung Chien,  D. M. Chipman,  D. L. Crittenden,  H. Dachsel,  
 R. J. Doerksen,  A. D. Dutoi,  L. Fusti-Molnar,  W. A. Goddard III,  
 A. Golubeva-Zadorozhnaya,  S. R. Gwaltney,  G. Hawkins,  A. Heyden,  
 S. Hirata,  G. Kedziora,  F. J. Keil,  C. Kelley,  Jihan Kim,  R. A. King,  
 R. Z. Khaliullin,  P. P. Korambath,  W. Kurlancheek,  A. M. Lee,  M. S. Lee,  
 S. V. Levchenko,  Ching Yeh Lin,  D. Liotard,  R. C. Lochan,  I. Lotan,  
 P. E. Maslen,  N. Nair,  D. P. O'Neill,  D. Neuhauser,  E. Neuscamman,  
 C. M. Oana,  R. Olson,  B. Peters,  R. Peverati,  P. A. Pieniazek,  
 Y. M. Rhee,  J. Ritchie,  M. A. Rohrdanz,  E. Rosta,  N. J. Russ,  
 H. F. Schaefer III,  N. E. Schultz,  N. Shenvi,  A. C. Simmonett,  A. Sodt,  
 D. Stuck,  K. S. Thanthiriwatte,  V. Vanovschi,  Tao Wang,  A. Warshel,  
 C. F. Williams,  Q. Wu,  X. Xu,  W. Zhang

 Please cite Q-Chem as follows:
 Y. Shao et al., Mol. Phys. 113, 184-215 (2015)
 DOI: 10.1080/00268976.2014.952696

 Q-Chem 5.2.0 for Intel X86 EM64T Linux

 Parts of Q-Chem use Armadillo 8.300.2 (Tropical Shenanigans).
 http://arma.sourceforge.net/

 Q-Chem begins on Sun Sep 26 13:49:25 2021  

Host: cori01
0

     Scratch files written to /tmp/qchem65117//Frg1//
 May1019 |scratch|qcdevops|jenkins|workspace|build_RNUM -1
Processing $rem in /global/common/cori/software/qchem/5.2/config/preferences:
	 MEM_TOTAL  96000 
NAlpha2: 32
NElect   32
Mult     1
Symmetry turned off for PCM/SM12/SMD calculation

Checking the input file for inconsistencies... 	...done.

--------------------------------------------------------------
User input:
--------------------------------------------------------------
$molecule
-1 1
 6	-1.7043443322	0.0804596945	-3.5256669735
 6	-0.8723443322	0.5294596945	-2.3286669735
 8	-1.1633443322	0.1174596945	-1.1896669735
 8	0.1006556678	1.2884596945	-2.5356669735
 1	-1.1533443322	-0.7125403055	-4.0266669735
 1	-1.8263443322	0.9044596945	-4.2316669735
 1	-2.6903343322	-0.3097703055	-3.2331769735
$end
$rem
EDA2		1
METHOD		WB97X-V
BASIS		DEF2-TZVPD
XC_GRID		000099000590
NL_GRID		1
UNRESTRICTED		FALSE
MAX_SCF_CYCLES		200
SYMMETRY		FALSE
SYM_IGNORE		TRUE
BASIS_LIN_DEP_THRESH		6
THRESH		14
SCF_CONVERGENCE		8
SCF_PRINT_FRGM		TRUE
SOLVENT_METHOD		SMD
!required keywords
JOBTYPE		SP
SYM_IGNORE		TRUE
SUBSYSTEM		TRUE
GEN_SCFMAN		TRUE
CHILD_INSTRUCTION		2
SYM_IGNORE		TRUE
SCFMI		0
RI_K 0		
PARI_K 0		
MIN_PARI_K 0		
IARI_K 0		
OCC_RI_K 0		
PURECART		1111
MEM_STATIC		2000
MEM_TOTAL		96000
GUI		0
CHILD_MP		1
CHILD_MP_ORDERS		232
FRZ_RELAX		0
FRZ_RELAX_METHOD		0
EDA_CLS_ELEC		1
EDA_CLS_DISP		0
FRZ_ORTHO_DECOMP		1
EDA2		FALSE
FRGM_METHOD		FALSE
CIS_N_ROOTS  0
LOCAL_CIS    0
CIS_RLX_DNS  1
$end
$smx
SOLVENT			WATER
$end
--------------------------------------------------------------
 ----------------------------------------------------------------
             Standard Nuclear Orientation (Angstroms)
    I     Atom           X                Y                Z
 ----------------------------------------------------------------
    1      C      -1.7043443322     0.0804596945    -3.5256669735
    2      C      -0.8723443322     0.5294596945    -2.3286669735
    3      O      -1.1633443322     0.1174596945    -1.1896669735
    4      O       0.1006556678     1.2884596945    -2.5356669735
    5      H      -1.1533443322    -0.7125403055    -4.0266669735
    6      H      -1.8263443322     0.9044596945    -4.2316669735
    7      H      -2.6903343322    -0.3097703055    -3.2331769735
 ----------------------------------------------------------------
 Nuclear Repulsion Energy =         112.73899874 hartrees
 There are       16 alpha and       16 beta electrons
 Requested basis set is def2-TZVPD
 There are 69 shells and 181 basis functions

 Total QAlloc Memory Limit  96000 MB
 Mega-Array Size      1956 MB
 MEM_STATIC part      2000 MB
 
 Citation of the SMD model:
 Marenich, A.V.; Cramer, C.J.; Truhlar, D.G.
 J. Phys. Chem. B 2009, 113, 6378-6396.
 iSolventCode=           1
 Solvent: water                                                           
 
 vradii
            1           2           3           4           5           6
    1   1.8500000   1.8500000   1.5200000   1.5200000   1.2000000   1.2000000
            7
    1   1.2000000
 Changing PCM_VDW_RADII to SMD_RADIUS
 Discretize the solute cavity surface with Lebedev spheres
	Using 110 Lebedev grid points for each H atom
	Using 194 Lebedev grid points for other atoms
	Atomic van der Waals radii will be scaled by 1.20
 Remove points where switching function is < 1.0e-08
 Keep 646 surface tesserae and discard 460 interior tesserae
 Molecular Surface Area = 80.039 Angst**2

                       Distance Matrix (Angstroms)
             C (  1)   C (  2)   O (  3)   O (  4)   H (  5)   H (  6)
   C (  2)  1.525331
   O (  3)  2.398113  1.245691
   O (  4)  2.386920  1.251263  2.186470
   H (  5)  1.087865  2.122435  2.955938  2.792776
   H (  6)  1.091923  2.161516  3.211340  2.595612  1.763418
   H (  7)  1.100003  2.197165  2.586534  3.290970  1.776003  1.793827

 
 A cutoff of  1.0D-14 yielded   2391 shell pairs
 There are     16695 function pairs (     21491 Cartesian)
 Smallest overlap matrix eigenvalue = 1.69E-05

 Scale SEOQF with 1.000000e-01/1.000000e-01/1.000000e-01

 Standard Electronic Orientation quadrupole field applied
 Nucleus-field energy     =    -0.0000000202 hartrees
 Guess from superposition of atomic densities
 Warning:  Energy on first SCF cycle will be non-variational
 SAD guess density has 30.625312 electrons

 -----------------------------------------------------------------------
  General SCF calculation program by
  Eric Jon Sundstrom, Paul Horn, Yuezhi Mao, Dmitri Zuev, Alec White,
  David Stuck, Shaama M.S., Shane Yost, Joonho Lee, David Small,
  Daniel Levine, Susi Lehtola, Hugh Burton, Evgeny Epifanovsky
 -----------------------------------------------------------------------
 Exchange:     0.1670 Hartree-Fock + 1.0000 wB97X-V + LR-HF
 Correlation:  1.0000 wB97X-V
 Using Euler-Maclaurin-Lebedev (99,590) quadrature formula
 Nonlocal Correlation:  VV10 with C = 0.0100 and b = 6.00 and scale = 1.00000
 Grid used for NLC:  SG-1 standard quadrature
Energy prior to optimization (guess energy) = -227.762788028268
Begin Timing: Total SCF Calculation
begin iterations for algorithm: DIIS         
the SCF tolerance is set to 1.00e-08
    1    -227.7627880283      1.66e-02     00000 
    2    -225.6280437211      2.50e-02     00000 
    3    -228.6067038464      4.06e-03     00000 
    4    -228.6594508743      1.36e-03     00000 
    5    -228.6653221802      2.05e-04     00000 
    6    -228.6655822161      6.39e-05     00000 
    7    -228.6656005140      2.36e-05     00000 
    8    -228.6656030119      1.26e-05     00000 
    9    -228.6656036534      4.14e-06     00000 
   10    -228.6656037548      1.26e-06     00000 
   11    -228.6656037656      2.13e-07     00000 
   12    -228.6656037659      4.60e-08     00000 
   13    -228.6656037659      1.10e-08     00000 
   14    -228.6656037659      2.80e-09     00000 Convergence criterion met
Timing for Total SCF: 281.00s (wall), 552.79s (cpu)
(3)  G-ENP(liq) elect-nuc-pol free energy of system     -228.665603766 a.u.
(4)  G-CDS(liq) cavity-dispersion-solvent structure 
     free energy                                                3.9277 kcal/mol
(6)  G-S(liq) free energy of system                     -228.659344579 a.u.
E_pcm = -0.1312956953
E_cds = 0.0062591870
Multipole orders to be included
        2
        3
computing dipole RHS
computing quadrupole RHS
total number of RHS in solve_reponses: 8
RHS batch sizes
        8
Beginning Block Conjugate Gradient Iterations. Batch Number: 0
computing hessian-vector products by finite difference
              1      6.37e-01     00000 Conjugate Gradient Iteration
computing hessian-vector products by finite difference
              2      2.10e-01     00000 Conjugate Gradient Iteration
computing hessian-vector products by finite difference
              3      5.52e-02     00000 Conjugate Gradient Iteration
computing hessian-vector products by finite difference
              4      1.40e-02     00000 Conjugate Gradient Iteration
computing hessian-vector products by finite difference
              5      2.02e-03     00000 Conjugate Gradient Iteration
computing hessian-vector products by finite difference
              6      4.83e-04     00000 Conjugate Gradient Iteration
computing hessian-vector products by finite difference
              7      6.84e-05     00000 Conjugate Gradient Iteration
computing hessian-vector products by finite difference
              8      8.37e-06     00000 Conjugate Gradient Iteration
computing hessian-vector products by finite difference
              9      1.32e-06     00000 Conjugate Gradient Iteration
computing hessian-vector products by finite difference
             10      1.44e-07     00000 Conjugate Gradient Iteration
computing hessian-vector products by finite difference
             11      1.75e-08     00000 Conjugate Gradient Iteration
computing hessian-vector products by finite difference
             12      4.34e-09     00000 CG Converged
batch 0 complete
Done Calculating Responses
TESTING ORTHOGONALIZATION OF MULTIPOLE BASIS
Multipole virts passed orthogonality test
Virts Per Order
        48
        80
 
 --------------------------------------------------------------
 
                    Orbital Energies (a.u.)
 --------------------------------------------------------------
 
 Alpha MOs
 -- Occupied --
-19.1529 -19.1514 -10.3534 -10.2470  -1.1672  -1.0654  -0.8403  -0.6171
 -0.5478  -0.5467  -0.5416  -0.4829  -0.4634  -0.3652  -0.3581  -0.3440
 -- Virtual --
  0.0671   0.1000   0.1006   0.1077   0.1352   0.1442   0.1457   0.1508
  0.1573   0.1904   0.2044   0.2216   0.2352   0.2392   0.2590   0.2662
  0.2996   0.3132   0.3330   0.3474   0.3551   0.3635   0.3709   0.3799
  0.3831   0.4016   0.4173   0.4231   0.4300   0.4538   0.4668   0.4740
  0.4819   0.4884   0.5026   0.5117   0.5470   0.5633   0.5793   0.5985
  0.6190   0.6271   0.6332   0.6412   0.6525   0.6672   0.6850   0.6927
  0.7073   0.7228   0.7775   0.7939   0.8075   0.8120   0.8353   0.8460
  0.8603   0.9576   0.9749   0.9836   0.9900   1.0238   1.0455   1.0913
  1.1328   1.2084   1.2370   1.2636   1.2658   1.2999   1.3361   1.3624
  1.4278   1.5377   1.5802   1.7359   1.8048   1.8520   1.8591   1.8988
  1.9121   1.9386   1.9486   1.9550   2.0095   2.0899   2.1078   2.1637
  2.1929   2.2061   2.2943   2.3178   2.4090   2.4302   2.4617   2.4742
  2.5568   2.5730   2.6201   2.6459   2.7729   2.8097   2.8518   2.9034
  2.9312   3.0077   3.0451   3.1498   3.1989   3.2310   3.2586   3.2813
  3.3301   3.3381   3.3702   3.3943   3.4146   3.5067   3.5577   3.5782
  3.5854   3.6601   3.6895   3.7199   3.7350   3.8294   3.9491   4.0353
  4.0714   4.1906   4.3300   4.5691   4.5952   4.6560   4.7739   4.7953
  4.9743   5.2965   5.3236   5.3328   5.3415   5.4655   5.6818   5.7521
  5.7959   6.0047   6.2087   6.3151   6.3350   6.5935   6.5982   6.6943
  6.7155   6.7295   6.9261   6.9498   7.0125   7.2193   7.3146   7.3613
  7.3850  22.5822  23.7241  44.1926  44.3368
 --------------------------------------------------------------
 
          Ground-State Mulliken Net Atomic Charges

     Atom                 Charge (a.u.)
  ----------------------------------------
      1 C                    -0.594122
      2 C                     0.501848
      3 O                    -0.765424
      4 O                    -0.778902
      5 H                     0.191128
      6 H                     0.222389
      7 H                     0.223083
  ----------------------------------------
  Sum of atomic charges =    -1.000000

 -----------------------------------------------------------------
                    Cartesian Multipole Moments
 -----------------------------------------------------------------
    Charge (ESU x 10^10)
                -4.8032
    Dipole Moment (Debye)
         X       1.2671      Y      -4.1133      Z       7.1396
       Tot       8.3366
    Quadrupole Moments (Debye-Ang)
        XX     -28.4594     XY      -1.9945     YY     -31.4119
        XZ       2.8802     YZ      10.3042     ZZ     -38.4461
    Octopole Moments (Debye-Ang^2)
       XXX      75.9478    XXY     -11.2973    XYY      22.2469
       YYY     -45.1325    XXZ      62.5377    XYZ       5.5440
       YYZ      77.0935    XZZ       9.7144    YZZ     -39.2167
       ZZZ     215.9961
    Hexadecapole Moments (Debye-Ang^3)
      XXXX    -249.6969   XXXY       8.4104   XXYY     -58.6709
      XYYY       4.9121   YYYY    -121.8889   XXXZ    -190.8079
      XXYZ      26.4883   XYYZ     -58.2653   YYYZ     111.6071
      XXZZ    -213.7855   XYZZ     -13.7420   YYZZ    -233.6716
      XZZZ    -146.1590   YZZZ     160.7634   ZZZZ   -1150.6487
 -----------------------------------------------------------------
Archival summary:
1\1\nid00560\SP\ProcedureUnspecified\BasisUnspecified\223(1-,1)\meili\SunSep2615:06:512021SunSep2615:06:512021\0\\#,ProcedureUnspecified,BasisUnspecified,\\-1,1\C\O,1,1.24569\O,1,1.25126,2,122.245\C,1,1.52533,2,119.522,3,178.765,0\H,4,1.08787,1,107.44,2,-100.454,0\H,4,1.09192,1,110.255,2,142.09,0\H,4,1.1,1,112.624,2,19.0093,0\\\@

 Total job time:  4647.07s(wall), 9113.87s(cpu) 
 Sun Sep 26 15:06:52 2021

        *************************************************************
        *                                                           *
        *  Thank you very much for using Q-Chem.  Have a nice day.  *
        *                                                           *
        *************************************************************


Done Job For Fragment 0
calling putenv with: QCSCRATCH=/global/cscratch1/sd/meili 
calling putenv with: QCLOCALSCR=/tmp 
calling putenv with: QCTHREADS=32 
Creating input file /tmp/qchem65117/Frg2.input
using default PutDataFrgm: nothing
calling putenv with: QCSCRATCH=/tmp/qchem65117/ 
calling putenv with: QCLOCALSCR=/tmp/qchem65117/ 
Spawning Job For Fragment 1
                  Welcome to Q-Chem
     A Quantum Leap Into The Future Of Chemistry


 Q-Chem 5.2, Q-Chem, Inc., Pleasanton, CA (2019)

 License issued to: National Energy Research Scientific Computing Center

 Yihan Shao,  Zhengting Gan,  E. Epifanovsky,  A. T. B. Gilbert,  M. Wormit,  
 J. Kussmann,  A. W. Lange,  A. Behn,  Jia Deng,  Xintian Feng,  D. Ghosh,  
 M. Goldey,  P. R. Horn,  L. D. Jacobson,  I. Kaliman,  T. Kus,  A. Landau,  
 Jie Liu,  E. I. Proynov,  R. M. Richard,  R. P. Steele,  E. J. Sundstrom,  
 H. L. Woodcock III,  P. M. Zimmerman,  D. Zuev,  B. Albrecht,  E. Alguire,  
 S. A. Baeppler,  D. Barton,  Z. Benda,  Y. A. Bernard,  E. J. Berquist,  
 K. B. Bravaya,  H. Burton,  D. Casanova,  Chun-Min Chang,  Yunqing Chen,  
 A. Chien,  K. D. Closser,  M. P. Coons,  S. Coriani,  S. Dasgupta,  
 A. L. Dempwolff,  M. Diedenhofen,  Hainam Do,  R. G. Edgar,  Po-Tung Fang,  
 S. Faraji,  S. Fatehi,  Qingguo Feng,  K. D. Fenk,  J. Fosso-Tande,  
 J. Gayvert,  Qinghui Ge,  A. Ghysels,  G. Gidofalvi,  J. Gomes,  
 J. Gonthier,  A. Gunina,  D. Hait,  M. W. D. Hanson-Heine,  
 P. H. P. Harbach,  A. W. Hauser,  M. F. Herbst,  J. E. Herr,  
 E. G. Hohenstein,  Z. C. Holden,  Kerwin Hui,  B. C. Huynh,  T.-C. Jagau,  
 Hyunjun Ji,  B. Kaduk,  K. Khistyaev,  Jaehoon Kim,  P. Klunzinger,  K. Koh,  
 D. Kosenkov,  L. Koulias,  T. Kowalczyk,  C. M. Krauter,  A. Kunitsa,  
 Ka Un Lao,  A. Laurent,  K. V. Lawler,  Joonho Lee,  D. Lefrancois,  
 S. Lehtola,  D. S. Levine,  Yi-Pei Li,  You-Sheng Lin,  Fenglai Liu,  
 E. Livshits,  A. Luenser,  P. Manohar,  E. Mansoor,  S. F. Manzer,  
 Shan-Ping Mao,  Yuezhi Mao,  N. Mardirossian,  A. V. Marenich,  
 T. Markovich,  L. A. Martinez-Martinez,  S. A. Maurer,  N. J. Mayhall,  
 S. C. McKenzie,  J.-M. Mewes,  P. Morgante,  A. F. Morrison,  
 J. W. Mullinax,  K. Nanda,  T. S. Nguyen-Beck,  R. Olivares-Amaya,  
 J. A. Parkhill,  Zheng Pei,  T. M. Perrine,  F. Plasser,  P. Pokhilko,  
 S. Prager,  A. Prociuk,  E. Ramos,  D. R. Rehn,  F. Rob,  M. Scheurer,  
 M. Schneider,  N. Sergueev,  S. M. Sharada,  S. Sharma,  D. W. Small,  
 T. Stauch,  T. Stein,  Yu-Chuan Su,  A. J. W. Thom,  A. Tkatchenko,  
 T. Tsuchimochi,  N. M. Tubman,  L. Vogt,  M. L. Vidal,  O. Vydrov,  
 M. A. Watson,  J. Wenzel,  M. de Wergifosse,  T. A. Wesolowski,  A. White,  
 J. Witte,  A. Yamada,  Jun Yang,  K. Yao,  S. Yeganeh,  S. R. Yost,  
 Zhi-Qiang You,  A. Zech,  Igor Ying Zhang,  Xing Zhang,  Yan Zhao,  
 Ying Zhu,  B. R. Brooks,  G. K. L. Chan,  C. J. Cramer,  M. S. Gordon,  
 W. J. Hehre,  A. Klamt,  M. W. Schmidt,  C. D. Sherrill,  D. G. Truhlar,  
 A. Aspuru-Guzik,  R. Baer,  A. T. Bell,  N. A. Besley,  Jeng-Da Chai,  
 A. E. DePrince, III,  R. A. DiStasio Jr.,  A. Dreuw,  B. D. Dunietz,  
 T. R. Furlani,  Chao-Ping Hsu,  Yousung Jung,  Jing Kong,  D. S. Lambrecht,  
 WanZhen Liang,  C. Ochsenfeld,  V. A. Rassolov,  L. V. Slipchenko,  
 J. E. Subotnik,  T. Van Voorhis,  J. M. Herbert,  A. I. Krylov,  
 P. M. W. Gill,  M. Head-Gordon

 Contributors to earlier versions of Q-Chem not listed above: 
 R. D. Adamson,  B. Austin,  J. Baker,  G. J. O. Beran,  K. Brandhorst,  
 S. T. Brown,  E. F. C. Byrd,  A. K. Chakraborty,  C.-L. Cheng,  
 Siu Hung Chien,  D. M. Chipman,  D. L. Crittenden,  H. Dachsel,  
 R. J. Doerksen,  A. D. Dutoi,  L. Fusti-Molnar,  W. A. Goddard III,  
 A. Golubeva-Zadorozhnaya,  S. R. Gwaltney,  G. Hawkins,  A. Heyden,  
 S. Hirata,  G. Kedziora,  F. J. Keil,  C. Kelley,  Jihan Kim,  R. A. King,  
 R. Z. Khaliullin,  P. P. Korambath,  W. Kurlancheek,  A. M. Lee,  M. S. Lee,  
 S. V. Levchenko,  Ching Yeh Lin,  D. Liotard,  R. C. Lochan,  I. Lotan,  
 P. E. Maslen,  N. Nair,  D. P. O'Neill,  D. Neuhauser,  E. Neuscamman,  
 C. M. Oana,  R. Olson,  B. Peters,  R. Peverati,  P. A. Pieniazek,  
 Y. M. Rhee,  J. Ritchie,  M. A. Rohrdanz,  E. Rosta,  N. J. Russ,  
 H. F. Schaefer III,  N. E. Schultz,  N. Shenvi,  A. C. Simmonett,  A. Sodt,  
 D. Stuck,  K. S. Thanthiriwatte,  V. Vanovschi,  Tao Wang,  A. Warshel,  
 C. F. Williams,  Q. Wu,  X. Xu,  W. Zhang

 Please cite Q-Chem as follows:
 Y. Shao et al., Mol. Phys. 113, 184-215 (2015)
 DOI: 10.1080/00268976.2014.952696

 Q-Chem 5.2.0 for Intel X86 EM64T Linux

 Parts of Q-Chem use Armadillo 8.300.2 (Tropical Shenanigans).
 http://arma.sourceforge.net/

 Q-Chem begins on Sun Sep 26 15:06:53 2021  

Host: cori01
0

     Scratch files written to /tmp/qchem65117//Frg2//
 May1019 |scratch|qcdevops|jenkins|workspace|build_RNUM -1
Processing $rem in /global/common/cori/software/qchem/5.2/config/preferences:
	 MEM_TOTAL  96000 
NAlpha2: 32
NElect   32
Mult     1
Symmetry turned off for PCM/SM12/SMD calculation

Checking the input file for inconsistencies... 	...done.

--------------------------------------------------------------
User input:
--------------------------------------------------------------
$molecule
0 1
 6	1.3036556678	-1.8685403055	2.7083330265
 6	0.9176556678	-0.4275403055	2.4263330265
 8	1.2446556678	0.4854596945	3.1853330265
 7	0.2266556678	-0.2065403055	1.3233330265
 1	-0.0893443322	0.7154596945	1.1053330265
 1	-0.2393443322	-0.9805403055	0.8613330265
 1	2.2096556678	-2.0995403055	2.1513330265
 1	0.5166556678	-2.5245403055	2.3473330265
 1	1.4666356678	-2.0639703055	3.7784950265
$end
$rem
EDA2		1
METHOD		WB97X-V
BASIS		DEF2-TZVPD
XC_GRID		000099000590
NL_GRID		1
UNRESTRICTED		FALSE
MAX_SCF_CYCLES		200
SYMMETRY		FALSE
SYM_IGNORE		TRUE
BASIS_LIN_DEP_THRESH		6
THRESH		14
SCF_CONVERGENCE		8
SCF_PRINT_FRGM		TRUE
SOLVENT_METHOD		SMD
!required keywords
JOBTYPE		SP
SYM_IGNORE		TRUE
SUBSYSTEM		TRUE
GEN_SCFMAN		TRUE
CHILD_INSTRUCTION		2
SYM_IGNORE		TRUE
SCFMI		0
RI_K 0		
PARI_K 0		
MIN_PARI_K 0		
IARI_K 0		
OCC_RI_K 0		
PURECART		1111
MEM_STATIC		2000
MEM_TOTAL		96000
GUI		0
CHILD_MP		1
CHILD_MP_ORDERS		232
FRZ_RELAX		0
FRZ_RELAX_METHOD		0
EDA_CLS_ELEC		1
EDA_CLS_DISP		0
FRZ_ORTHO_DECOMP		1
EDA2		FALSE
FRGM_METHOD		FALSE
CIS_N_ROOTS  0
LOCAL_CIS    0
CIS_RLX_DNS  1
$end
$smx
SOLVENT			WATER
$end
--------------------------------------------------------------
 ----------------------------------------------------------------
             Standard Nuclear Orientation (Angstroms)
    I     Atom           X                Y                Z
 ----------------------------------------------------------------
    1      C       1.3036556678    -1.8685403055     2.7083330265
    2      C       0.9176556678    -0.4275403055     2.4263330265
    3      O       1.2446556678     0.4854596945     3.1853330265
    4      N       0.2266556678    -0.2065403055     1.3233330265
    5      H      -0.0893443322     0.7154596945     1.1053330265
    6      H      -0.2393443322    -0.9805403055     0.8613330265
    7      H       2.2096556678    -2.0995403055     2.1513330265
    8      H       0.5166556678    -2.5245403055     2.3473330265
    9      H       1.4666356678    -2.0639703055     3.7784950265
 ----------------------------------------------------------------
 Nuclear Repulsion Energy =         122.36490399 hartrees
 There are       16 alpha and       16 beta electrons
 Requested basis set is def2-TZVPD
 There are 78 shells and 196 basis functions

 Total QAlloc Memory Limit  96000 MB
 Mega-Array Size      1956 MB
 MEM_STATIC part      2000 MB
 
 Citation of the SMD model:
 Marenich, A.V.; Cramer, C.J.; Truhlar, D.G.
 J. Phys. Chem. B 2009, 113, 6378-6396.
 iSolventCode=           1
 Solvent: water                                                           
 
 vradii
            1           2           3           4           5           6
    1   1.8500000   1.8500000   1.5200000   1.8900000   1.2000000   1.2000000
            7           8           9
    1   1.2000000   1.2000000   1.2000000
 Changing PCM_VDW_RADII to SMD_RADIUS
 Discretize the solute cavity surface with Lebedev spheres
	Using 110 Lebedev grid points for each H atom
	Using 194 Lebedev grid points for other atoms
	Atomic van der Waals radii will be scaled by 1.20
 Remove points where switching function is < 1.0e-08
 Keep 735 surface tesserae and discard 591 interior tesserae
 Molecular Surface Area = 90.060 Angst**2

                       Distance Matrix (Angstroms)
             C (  1)   C (  2)   O (  3)   N (  4)   H (  5)   H (  6)
   C (  2)  1.518223
   O (  3)  2.402567  1.231495
   N (  4)  2.416692  1.320201  2.232091
   H (  5)  3.344714  2.016318  2.481704  0.998731
   H (  6)  2.565307  2.023285  3.122881  1.014730  1.720015
   H (  7)  1.088323  2.130839  2.946626  2.863795  3.782029  2.985609
   H (  8)  1.086290  2.136458  3.208166  2.550647  3.522414  2.272371
   H (  9)  1.100001  2.192630  2.626920  3.318948  4.158377  3.548806
             H (  7)   H (  8)
   H (  8)  1.756499
   H (  9)  1.789134  1.778429
 
 A cutoff of  1.0D-14 yielded   3054 shell pairs
 There are     19544 function pairs (     24702 Cartesian)
 Smallest overlap matrix eigenvalue = 1.13E-05

 Scale SEOQF with 1.000000e-01/1.000000e-01/1.000000e-01

 Standard Electronic Orientation quadrupole field applied
 Nucleus-field energy     =    -0.0000000172 hartrees
 Guess from superposition of atomic densities
 Warning:  Energy on first SCF cycle will be non-variational
 SAD guess density has 31.604610 electrons

 -----------------------------------------------------------------------
  General SCF calculation program by
  Eric Jon Sundstrom, Paul Horn, Yuezhi Mao, Dmitri Zuev, Alec White,
  David Stuck, Shaama M.S., Shane Yost, Joonho Lee, David Small,
  Daniel Levine, Susi Lehtola, Hugh Burton, Evgeny Epifanovsky
 -----------------------------------------------------------------------
 Exchange:     0.1670 Hartree-Fock + 1.0000 wB97X-V + LR-HF
 Correlation:  1.0000 wB97X-V
 Using Euler-Maclaurin-Lebedev (99,590) quadrature formula
 Nonlocal Correlation:  VV10 with C = 0.0100 and b = 6.00 and scale = 1.00000
 Grid used for NLC:  SG-1 standard quadrature
Energy prior to optimization (guess energy) = -208.700752871890
Begin Timing: Total SCF Calculation
begin iterations for algorithm: DIIS         
the SCF tolerance is set to 1.00e-08
    1    -208.7007528719      1.26e-02     00000 
    2    -208.3140817605      1.55e-02     00000 
    3    -209.2354031097      2.38e-03     00000 
    4    -209.2544338661      7.80e-04     00000 
    5    -209.2575849140      1.99e-04     00000 
    6    -209.2578618380      6.73e-05     00000 
    7    -209.2579032883      2.08e-05     00000 
    8    -209.2579085207      6.01e-06     00000 
    9    -209.2579092968      2.04e-06     00000 
   10    -209.2579093490      3.33e-07     00000 
   11    -209.2579093503      1.43e-07     00000 
   12    -209.2579093504      2.26e-08     00000 
   13    -209.2579093505      5.40e-09     00000 Convergence criterion met
Timing for Total SCF: 353.00s (wall), 696.88s (cpu)
(3)  G-ENP(liq) elect-nuc-pol free energy of system     -209.257909350 a.u.
(4)  G-CDS(liq) cavity-dispersion-solvent structure 
     free energy                                                3.5354 kcal/mol
(6)  G-S(liq) free energy of system                     -209.252275283 a.u.
E_pcm = -0.0303415819
E_cds = 0.0056340673
Multipole orders to be included
        2
        3
computing dipole RHS
computing quadrupole RHS
total number of RHS in solve_reponses: 8
RHS batch sizes
        8
Beginning Block Conjugate Gradient Iterations. Batch Number: 0
computing hessian-vector products by finite difference
              1      6.24e-01     00000 Conjugate Gradient Iteration
computing hessian-vector products by finite difference
              2      2.04e-01     00000 Conjugate Gradient Iteration
computing hessian-vector products by finite difference
              3      5.71e-02     00000 Conjugate Gradient Iteration
computing hessian-vector products by finite difference
              4      1.41e-02     00000 Conjugate Gradient Iteration
computing hessian-vector products by finite difference
              5      1.92e-03     00000 Conjugate Gradient Iteration
computing hessian-vector products by finite difference
              6      4.31e-04     00000 Conjugate Gradient Iteration
computing hessian-vector products by finite difference
              7      5.71e-05     00000 Conjugate Gradient Iteration
computing hessian-vector products by finite difference
              8      6.86e-06     00000 Conjugate Gradient Iteration
computing hessian-vector products by finite difference
              9      1.04e-06     00000 Conjugate Gradient Iteration
computing hessian-vector products by finite difference
             10      1.10e-07     00000 Conjugate Gradient Iteration
computing hessian-vector products by finite difference
             11      1.37e-08     00000 Conjugate Gradient Iteration
computing hessian-vector products by finite difference
             12      4.57e-09     00000 CG Converged
batch 0 complete
Done Calculating Responses
TESTING ORTHOGONALIZATION OF MULTIPOLE BASIS
Multipole virts passed orthogonality test
Virts Per Order
        48
        80
 
 --------------------------------------------------------------
 
                    Orbital Energies (a.u.)
 --------------------------------------------------------------
 
 Alpha MOs
 -- Occupied --
-19.1838 -14.4259 -10.3785 -10.2627  -1.1762  -1.0440  -0.8635  -0.7112
 -0.6491  -0.5921  -0.5651  -0.5186  -0.4998  -0.4786  -0.3862  -0.3743
 -- Virtual --
  0.0647   0.0952   0.0960   0.1037   0.1289   0.1335   0.1425   0.1485
  0.1770   0.1919   0.2037   0.2134   0.2298   0.2433   0.2505   0.2630
  0.2656   0.2830   0.3012   0.3145   0.3350   0.3372   0.3489   0.3528
  0.3611   0.3697   0.3764   0.3825   0.3938   0.4101   0.4150   0.4208
  0.4402   0.4578   0.4627   0.4765   0.4838   0.4897   0.4965   0.5098
  0.5264   0.5345   0.5461   0.5722   0.5829   0.5993   0.6209   0.6339
  0.6501   0.6539   0.6722   0.6939   0.7035   0.7229   0.7300   0.7678
  0.7733   0.7881   0.8034   0.8122   0.8202   0.8419   0.8447   0.8813
  0.9199   0.9472   0.9787   0.9967   0.9987   1.0147   1.0591   1.0988
  1.1103   1.1866   1.2219   1.2492   1.2887   1.3303   1.3336   1.3853
  1.4777   1.4941   1.5153   1.6159   1.6660   1.7400   1.7506   1.8019
  1.8512   1.8584   1.8944   1.9230   1.9344   1.9483   1.9924   2.0195
  2.0550   2.1043   2.1503   2.1876   2.2193   2.2493   2.2965   2.3348
  2.3860   2.4204   2.4582   2.4752   2.5509   2.5732   2.5964   2.6324
  2.6896   2.7310   2.7790   2.8291   2.8408   2.8994   2.9661   2.9972
  3.0299   3.0999   3.1238   3.1716   3.2119   3.2392   3.2716   3.3014
  3.3162   3.3403   3.3507   3.4043   3.4811   3.4860   3.5395   3.5683
  3.6330   3.6481   3.7010   3.7413   3.8956   3.9282   3.9595   4.0275
  4.0689   4.1715   4.2593   4.4681   4.5549   4.6035   4.6168   4.6680
  4.7891   4.8997   4.9109   4.9451   5.1390   5.1840   5.2608   5.3401
  5.3732   5.4050   5.4458   5.4752   5.5391   5.7708   5.9199   6.1289
  6.2582   6.5143   6.6335   6.7298   6.8210   6.9762   7.2182   7.3089
 22.5914  23.5829  32.4235  44.3046
 --------------------------------------------------------------
 
          Ground-State Mulliken Net Atomic Charges

     Atom                 Charge (a.u.)
  ----------------------------------------
      1 C                    -0.654025
      2 C                     0.440628
      3 O                    -0.690693
      4 N                    -0.302943
      5 H                     0.251041
      6 H                     0.250703
      7 H                     0.215176
      8 H                     0.249708
      9 H                     0.240405
  ----------------------------------------
  Sum of atomic charges =     0.000000

 -----------------------------------------------------------------
                    Cartesian Multipole Moments
 -----------------------------------------------------------------
    Charge (ESU x 10^10)
                -0.0000
    Dipole Moment (Debye)
         X      -2.5531      Y      -3.5994      Z      -4.0492
       Tot       5.9892
    Quadrupole Moments (Debye-Ang)
        XX     -27.3203     XY      -4.0652     YY     -20.8406
        XZ      -7.6264     YZ     -10.1426     ZZ     -43.4682
    Octopole Moments (Debye-Ang^2)
       XXX     -71.1779    XXY       7.9700    XYY     -21.7530
       YYY      37.0663    XXZ     -70.1272    XYZ     -12.6756
       YYZ     -53.6285    XZZ     -50.3491    YZZ     -16.5652
       ZZZ    -248.0433
    Hexadecapole Moments (Debye-Ang^3)
      XXXX    -193.8468   XXXY      40.1022   XXYY     -63.3805
      XYYY      46.7785   YYYY    -208.3639   XXXZ    -204.2878
      XXYZ      18.2751   XYYZ     -58.9024   YYYZ      91.3294
      XXZZ    -234.1538   XYZZ     -22.3186   YYZZ    -184.8316
      XZZZ    -286.5766   YZZZ       6.7047   ZZZZ   -1208.8920
 -----------------------------------------------------------------
Archival summary:
1\1\nid00560\SP\ProcedureUnspecified\BasisUnspecified\1125\meili\SunSep2616:49:382021SunSep2616:49:382021\0\\#,ProcedureUnspecified,BasisUnspecified,\\0,1\C\O,1,1.23149\N,1,1.3202,2,121.992\H,3,0.998731,1,120.166,2,-3.22252,0\H,3,1.01473,1,119.542,2,-163.322,0\C,1,1.51822,2,121.445,3,179.385,0\H,6,1.08629,1,109.102,2,146.75,0\H,6,1.08832,1,108.545,2,-96.0912,0\H,6,1.1,1,112.768,2,25.6534,0\\\@

 Total job time:  6166.22s(wall), 12003.02s(cpu) 
 Sun Sep 26 16:49:40 2021

        *************************************************************
        *                                                           *
        *  Thank you very much for using Q-Chem.  Have a nice day.  *
        *                                                           *
        *************************************************************


Done Job For Fragment 1
calling putenv with: QCSCRATCH=/global/cscratch1/sd/meili 
calling putenv with: QCLOCALSCR=/tmp 
calling putenv with: QCTHREADS=32 
Doing General SCFMI
 Exchange:     0.1670 Hartree-Fock + 1.0000 wB97X-V + LR-HF
 Correlation:  1.0000 wB97X-V
 Using Euler-Maclaurin-Lebedev (99,590) quadrature formula
 Nonlocal Correlation:  VV10 with C = 0.0100 and b = 6.00 and scale = 1.00000
 Grid used for NLC:  SG-1 standard quadrature
performing fock build before subrot guess so that all methods have access
Printing subrot_rss_gen Method Specification:
Occupied Subspace Method is 0
Virtual Subspace Method is 0
Energy of the unrelaxed supersystem initial determinant -437.787207911617
performing fock build before subrot guess so that all methods have access
Printing subrot_rss_gen Method Specification:
Occupied Subspace Method is 0
Virtual Subspace Method is 0
Energy of the unrelaxed supersystem initial determinant w/ solvent -437.922781351028
write pseudocanon occs and virts to disk
write pseudocanon orbital energies to disk
Tolerance of ortho_decomp_scf: 1.00e-06
GDM subspace size: 20
Beginning the Orthogonal Decomposition of the Initial Supersystem Wavefunction
    1    -437.7373763210      6.02e-02     ortho_decomp Preconditoned Steepest Descent
    2    -437.7419420751      1.52e-03     ortho_decomp BFGS Step
    3    -437.7419577380      1.21e-04     ortho_decomp BFGS Step
    4    -437.7419577666      4.83e-06     ortho_decomp BFGS Step
    5    -437.7419577666      1.41e-07     ortho_decomp 00000 Convergence criterion met
 Hartree-Fock
 Hartree-Fock
 Hartree-Fock
Doing General SCFMI
 Exchange:     0.1670 Hartree-Fock + 1.0000 wB97X-V + LR-HF
 Correlation:  1.0000 wB97X-V
 Using Euler-Maclaurin-Lebedev (99,590) quadrature formula
 Nonlocal Correlation:  VV10 with C = 0.0100 and b = 6.00 and scale = 1.00000
 Grid used for NLC:  SG-1 standard quadrature
performing fock build at end of subrot_r(subrot) constructor so that all methods have access
<S^2> of initial wavefunction before polarization iterations 0.0000000000
Beginning iterations for the determination of the polarized wavefunction
Energy prior to optimization (guess energy) = -437.922781351027
Begin Timing: Total SCF Calculation
begin iterations for algorithm: DIIS         
the SCF tolerance is set to 1.00e-08
    1    -437.9227813510      8.24e-05     00000 
    2    -437.9229439367      6.87e-05     00000 
    3    -437.9230110722      1.75e-05     00000 
    4    -437.9230199562      7.76e-06     00000 
    5    -437.9230216695      3.24e-06     00000 
    6    -437.9230222105      1.18e-06     00000 
    7    -437.9230222866      5.42e-07     00000 
    8    -437.9230222969      1.73e-07     00000 
    9    -437.9230222982      6.73e-08     00000 
   10    -437.9230222984      2.44e-08     00000 
   11    -437.9230222984      1.21e-08     00000 
   12    -437.9230222984      1.87e-09     00000 Convergence criterion met
write pseudocanon occs and virts to disk
write pseudocanon orbital energies to disk
Timing for Total SCF: 1505.00s (wall), 2945.12s (cpu)
<S^2> of polarized wavefunction after polarization iterations 0.0000000000
relaxing scfmi constraint to allow all rotations in the entire AO span
Doing General SCFMI
 Exchange:     0.1670 Hartree-Fock + 1.0000 wB97X-V + LR-HF
 Correlation:  1.0000 wB97X-V
 Using Euler-Maclaurin-Lebedev (99,590) quadrature formula
 Nonlocal Correlation:  VV10 with C = 0.0100 and b = 6.00 and scale = 1.00000
 Grid used for NLC:  SG-1 standard quadrature
performing fock build at end of subrot_r(subrot) constructor so that all methods have access
<S^2> of polarized wavefunction before ct-allowed iterations 0.0000000000
Beginning iterations for the determination of the CT-Allowed wavefunction
Energy prior to optimization (guess energy) = -437.923022298397
Begin Timing: Total SCF Calculation
begin iterations for algorithm: DIIS         
the SCF tolerance is set to 1.00e-08
    1    -437.9230222984      9.39e-05     00000 
    2    -437.9236523236      1.06e-05     00000 
    3    -437.9236714424      3.16e-06     00000 
    4    -437.9236720010      2.85e-06     00000 
    5    -437.9236724162      3.42e-07     00000 
    6    -437.9236724280      1.98e-07     00000 
    7    -437.9236724317      5.74e-08     00000 
    8    -437.9236724320      1.99e-08     00000 
    9    -437.9236724321      6.47e-09     00000 Convergence criterion met
write pseudocanon occs and virts to disk
write pseudocanon orbital energies to disk
Timing for Total SCF: 1118.00s (wall), 2184.69s (cpu)
<S^2> of ct_allowed wavefunction after ct-allowed iterations 0.0000000000

================================
        Results of EDA2         
================================
Basic EDA Quantities
--------------------
Fragment Energies (Ha):
1 -228.6593445789
2 -209.2522752831
--------------------
  E_prp (kJ/mol) = 0.0000
  E_sol (kJ/mol) = 66.2042
  E_frz (kJ/mol) = -66.5101
  E_pol (kJ/mol) = -0.6326
  E_vct (kJ/mol) = -1.7069
  E_int (kJ/mol) = -2.6455
--------------------


Initial Wavefunction Decomposition
--------------------
  --------------------
  Orthogonal Fragment Subspace Decomposition:
  --------------------
     E_elec   (ELEC)   (kJ/mol) = -99.7142
     E_pauli  (PAULI)  (kJ/mol) = 42.7139
     E_disp   (DISP)   (kJ/mol) = -9.5098
     --------------------
     Terms summing to E_pauli:
     --------------------
        E_kep_pauli       (kJ/mol) = 52.2955
        E_disp_free_pauli (kJ/mol) = -9.5817
  --------------------
  Classical Frozen Decomposition:
  --------------------
     E_cls_elec  (CLS ELEC)  (kJ/mol) = -78.6036
     E_cls_pauli (CLS PAULI) (kJ/mol) = 12.0934
    [E_mod_pauli (MOD PAULI) (kJ/mol) = 21.6032 (CLS PAULI - DISP from orthogonal decomposition) ]
  --------------------
--------------------

Simplified EDA Summary (kJ/mol)
--------------------
 PREPARATION     0.0000
 SOLVATION       66.2042
 FROZEN          -57.0003      (does not include dispersion)
[PAULI           42.7139]     (if this is negligible, then frozen describes electrostatics)
 DISPERSION      -9.5098
 POLARIZATION    -0.6326
 CHARGE TRANSFER -1.7069
 TOTAL           -2.6455     (PRP + SOL + FRZ + DISP + POL + CT)
--------------------
 
 --------------------------------------------------------------
 
                    Orbital Energies (a.u.)
 --------------------------------------------------------------
 
 Alpha MOs
 -- Occupied --
-19.1806 -19.1514 -19.1513 -14.4194 -10.3742 -10.3529 -10.2605 -10.2468
 -1.1729  -1.1667  -1.0650  -1.0384  -0.8609  -0.8402  -0.7068  -0.6440
 -0.6163  -0.5891  -0.5622  -0.5476  -0.5464  -0.5405  -0.5152  -0.4976
 -0.4825  -0.4760  -0.4632  -0.3824  -0.3727  -0.3644  -0.3555  -0.3431
 -- Virtual --
  0.0586   0.0782   0.0888   0.0920   0.1031   0.1080   0.1114   0.1280
  0.1295   0.1350   0.1388   0.1451   0.1511   0.1528   0.1683   0.1770
  0.1818   0.1856   0.1957   0.2121   0.2181   0.2264   0.2324   0.2333
  0.2383   0.2506   0.2567   0.2629   0.2728   0.2748   0.2831   0.2973
  0.3012   0.3112   0.3186   0.3256   0.3284   0.3337   0.3485   0.3524
  0.3543   0.3598   0.3604   0.3677   0.3734   0.3793   0.3803   0.3824
  0.3857   0.3933   0.3945   0.4040   0.4099   0.4192   0.4220   0.4280
  0.4300   0.4371   0.4514   0.4563   0.4652   0.4674   0.4733   0.4780
  0.4860   0.4876   0.4924   0.5019   0.5035   0.5115   0.5144   0.5164
  0.5326   0.5402   0.5485   0.5582   0.5688   0.5750   0.5771   0.5827
  0.5972   0.6070   0.6132   0.6226   0.6302   0.6385   0.6475   0.6489
  0.6519   0.6635   0.6657   0.6751   0.6855   0.6918   0.7034   0.7108
  0.7246   0.7310   0.7355   0.7374   0.7546   0.7600   0.7762   0.7900
  0.7947   0.8021   0.8052   0.8150   0.8202   0.8250   0.8306   0.8343
  0.8507   0.8542   0.8580   0.8756   0.8779   0.8895   0.9198   0.9322
  0.9475   0.9827   0.9849   0.9981   1.0025   1.0032   1.0130   1.0304
  1.0374   1.0492   1.0675   1.0821   1.0966   1.1303   1.1338   1.1415
  1.1937   1.2067   1.2409   1.2475   1.2588   1.2815   1.2938   1.3020
  1.3082   1.3220   1.3459   1.3546   1.3708   1.3751   1.3893   1.4317
  1.4577   1.4944   1.5280   1.5408   1.5746   1.6381   1.6533   1.6933
  1.7461   1.7544   1.7625   1.8525   1.8613   1.8668   1.8949   1.9083
  1.9224   1.9283   1.9356   1.9406   1.9424   1.9546   1.9672   1.9822
  1.9846   2.0057   2.0166   2.0344   2.0406   2.0705   2.1066   2.1230
  2.1363   2.1709   2.1915   2.2044   2.2177   2.2410   2.2549   2.2680
  2.3083   2.3361   2.3590   2.3872   2.4251   2.4393   2.4441   2.4619
  2.4784   2.4911   2.4986   2.5443   2.5672   2.5735   2.5937   2.5967
  2.6190   2.6412   2.6427   2.6548   2.7241   2.7600   2.7878   2.8012
  2.8295   2.8505   2.8625   2.8706   2.9127   2.9252   2.9442   2.9920
  3.0122   3.0292   3.0651   3.0860   3.1177   3.1522   3.1812   3.1868
  3.2205   3.2307   3.2437   3.2674   3.2832   3.2981   3.3030   3.3125
  3.3296   3.3475   3.3552   3.3605   3.3805   3.4054   3.4151   3.4197
  3.4455   3.5033   3.5088   3.5247   3.5528   3.5752   3.5901   3.5985
  3.6106   3.6384   3.6699   3.6801   3.6978   3.7196   3.7368   3.7455
  3.7603   3.8453   3.9050   3.9536   3.9616   4.0074   4.0450   4.0546
  4.0776   4.0843   4.1780   4.2032   4.2757   4.3435   4.4848   4.5679
  4.5848   4.6079   4.6112   4.6300   4.6652   4.6794   4.7935   4.8069
  4.8503   4.9163   4.9328   4.9696   4.9888   5.1678   5.1975   5.2716
  5.3012   5.3297   5.3351   5.3445   5.3644   5.3859   5.4144   5.4659
  5.4819   5.5625   5.6140   5.6896   5.7582   5.7769   5.7998   5.9317
  6.0248   6.1690   6.2315   6.2634   6.3403   6.3604   6.5200   6.6168
  6.6266   6.6427   6.7099   6.7317   6.7427   6.7611   6.8276   6.9546
  6.9634   6.9810   7.0187   7.2263   7.2372   7.3159   7.3255   7.3796
  7.4257  22.5884  22.6014  23.6314  23.7478  32.5196  44.2255  44.3387
 44.3581
 --------------------------------------------------------------
 
          Ground-State Mulliken Net Atomic Charges

     Atom                 Charge (a.u.)
  ----------------------------------------
      1 C                    -0.679685
      2 C                     0.522284
      3 O                    -0.744449
      4 O                    -0.784618
      5 H                     0.206045
      6 H                     0.237203
      7 H                     0.229216
      8 C                    -0.707879
      9 C                     0.438025
     10 O                    -0.701079
     11 N                    -0.164633
     12 H                     0.201534
     13 H                     0.216206
     14 H                     0.215157
     15 H                     0.265918
     16 H                     0.250754
  ----------------------------------------
  Sum of atomic charges =    -1.000000

 -----------------------------------------------------------------
                    Cartesian Multipole Moments
 -----------------------------------------------------------------
    Charge (ESU x 10^10)
                -4.8032
    Dipole Moment (Debye)
         X      -1.3468      Y      -7.6920      Z       2.9755
       Tot       8.3567
    Quadrupole Moments (Debye-Ang)
        XX     -56.0025     XY      -6.0253     YY     -52.4149
        XZ      -5.0587     YZ       0.2507     ZZ     -82.7114
    Octopole Moments (Debye-Ang^2)
       XXX       4.6342    XXY      -3.2366    XYY       0.3305
       YYY      -7.8327    XXZ      -7.8567    XYZ      -7.0188
       YYZ      23.1314    XZZ     -41.1759    YZZ     -55.5895
       ZZZ     -33.5986
    Hexadecapole Moments (Debye-Ang^3)
      XXXX    -444.8786   XXXY      48.7212   XXYY    -122.5391
      XYYY      52.0556   YYYY    -331.3454   XXXZ    -396.4413
      XXYZ      45.0256   XYYZ    -117.7976   YYYZ     203.7731
      XXZZ    -450.0900   XYZZ     -35.7577   YYZZ    -420.0884
      XZZZ    -436.5267   YZZZ     168.2472   ZZZZ   -2370.5214
 -----------------------------------------------------------------
Archival summary:
1\1\nid00560\SP\ProcedureUnspecified\BasisUnspecified\3148(1-,1)\meili\SunSep2618:06:592021SunSep2618:06:592021\0\\#,ProcedureUnspecified,BasisUnspecified,\\-1,1\O\C,1,1.24569\O,2,1.25126,1,122.245\C,2,1.52533,1,119.522,3,178.765,0\H,4,1.08787,2,107.44,1,-100.454,0\H,4,1.09192,2,110.255,1,142.09,0\H,4,1.1,2,112.624,1,19.0093,0\H,1,2.50319,2,143.903,3,-50.5624,0\N,8,1.01473,1,102.004,2,78.8625,0\H,9,0.998731,8,117.354,1,23.5937,0\C,9,1.3202,8,119.542,1,-175.757,0\O,11,1.23149,9,121.992,8,-163.322,0\C,11,1.51822,9,116.56,8,17.2646,0\H,13,1.08629,11,109.102,9,-33.8332,0\H,13,1.08832,11,108.545,9,83.3261,0\H,13,1.1,11,112.768,9,-154.929,0\\\@

 Total job time:  15458.97s(wall), 9097.39s(cpu) 
 Sun Sep 26 18:07:01 2021

        *************************************************************
        *                                                           *
        *  Thank you very much for using Q-Chem.  Have a nice day.  *
        *                                                           *
        *************************************************************


