
Running Job 1 of 1 SSI-054GLU-058ARG-1_PCM_TZVPD.in
qchem SSI-054GLU-058ARG-1_PCM_TZVPD.in_15032.0 /tmp/qchem15032/ 0
/global/common/cori/software/qchem/5.2/exe/qcprog.exe_s SSI-054GLU-058ARG-1_PCM_TZVPD.in_15032.0 /tmp/qchem15032/
                  Welcome to Q-Chem
     A Quantum Leap Into The Future Of Chemistry


 Q-Chem 5.2, Q-Chem, Inc., Pleasanton, CA (2019)

 License issued to: National Energy Research Scientific Computing Center

 Yihan Shao,  Zhengting Gan,  E. Epifanovsky,  A. T. B. Gilbert,  M. Wormit,  
 J. Kussmann,  A. W. Lange,  A. Behn,  Jia Deng,  Xintian Feng,  D. Ghosh,  
 M. Goldey,  P. R. Horn,  L. D. Jacobson,  I. Kaliman,  T. Kus,  A. Landau,  
 Jie Liu,  E. I. Proynov,  R. M. Richard,  R. P. Steele,  E. J. Sundstrom,  
 H. L. Woodcock III,  P. M. Zimmerman,  D. Zuev,  B. Albrecht,  E. Alguire,  
 S. A. Baeppler,  D. Barton,  Z. Benda,  Y. A. Bernard,  E. J. Berquist,  
 K. B. Bravaya,  H. Burton,  D. Casanova,  Chun-Min Chang,  Yunqing Chen,  
 A. Chien,  K. D. Closser,  M. P. Coons,  S. Coriani,  S. Dasgupta,  
 A. L. Dempwolff,  M. Diedenhofen,  Hainam Do,  R. G. Edgar,  Po-Tung Fang,  
 S. Faraji,  S. Fatehi,  Qingguo Feng,  K. D. Fenk,  J. Fosso-Tande,  
 J. Gayvert,  Qinghui Ge,  A. Ghysels,  G. Gidofalvi,  J. Gomes,  
 J. Gonthier,  A. Gunina,  D. Hait,  M. W. D. Hanson-Heine,  
 P. H. P. Harbach,  A. W. Hauser,  M. F. Herbst,  J. E. Herr,  
 E. G. Hohenstein,  Z. C. Holden,  Kerwin Hui,  B. C. Huynh,  T.-C. Jagau,  
 Hyunjun Ji,  B. Kaduk,  K. Khistyaev,  Jaehoon Kim,  P. Klunzinger,  K. Koh,  
 D. Kosenkov,  L. Koulias,  T. Kowalczyk,  C. M. Krauter,  A. Kunitsa,  
 Ka Un Lao,  A. Laurent,  K. V. Lawler,  Joonho Lee,  D. Lefrancois,  
 S. Lehtola,  D. S. Levine,  Yi-Pei Li,  You-Sheng Lin,  Fenglai Liu,  
 E. Livshits,  A. Luenser,  P. Manohar,  E. Mansoor,  S. F. Manzer,  
 Shan-Ping Mao,  Yuezhi Mao,  N. Mardirossian,  A. V. Marenich,  
 T. Markovich,  L. A. Martinez-Martinez,  S. A. Maurer,  N. J. Mayhall,  
 S. C. McKenzie,  J.-M. Mewes,  P. Morgante,  A. F. Morrison,  
 J. W. Mullinax,  K. Nanda,  T. S. Nguyen-Beck,  R. Olivares-Amaya,  
 J. A. Parkhill,  Zheng Pei,  T. M. Perrine,  F. Plasser,  P. Pokhilko,  
 S. Prager,  A. Prociuk,  E. Ramos,  D. R. Rehn,  F. Rob,  M. Scheurer,  
 M. Schneider,  N. Sergueev,  S. M. Sharada,  S. Sharma,  D. W. Small,  
 T. Stauch,  T. Stein,  Yu-Chuan Su,  A. J. W. Thom,  A. Tkatchenko,  
 T. Tsuchimochi,  N. M. Tubman,  L. Vogt,  M. L. Vidal,  O. Vydrov,  
 M. A. Watson,  J. Wenzel,  M. de Wergifosse,  T. A. Wesolowski,  A. White,  
 J. Witte,  A. Yamada,  Jun Yang,  K. Yao,  S. Yeganeh,  S. R. Yost,  
 Zhi-Qiang You,  A. Zech,  Igor Ying Zhang,  Xing Zhang,  Yan Zhao,  
 Ying Zhu,  B. R. Brooks,  G. K. L. Chan,  C. J. Cramer,  M. S. Gordon,  
 W. J. Hehre,  A. Klamt,  M. W. Schmidt,  C. D. Sherrill,  D. G. Truhlar,  
 A. Aspuru-Guzik,  R. Baer,  A. T. Bell,  N. A. Besley,  Jeng-Da Chai,  
 A. E. DePrince, III,  R. A. DiStasio Jr.,  A. Dreuw,  B. D. Dunietz,  
 T. R. Furlani,  Chao-Ping Hsu,  Yousung Jung,  Jing Kong,  D. S. Lambrecht,  
 WanZhen Liang,  C. Ochsenfeld,  V. A. Rassolov,  L. V. Slipchenko,  
 J. E. Subotnik,  T. Van Voorhis,  J. M. Herbert,  A. I. Krylov,  
 P. M. W. Gill,  M. Head-Gordon

 Contributors to earlier versions of Q-Chem not listed above: 
 R. D. Adamson,  B. Austin,  J. Baker,  G. J. O. Beran,  K. Brandhorst,  
 S. T. Brown,  E. F. C. Byrd,  A. K. Chakraborty,  C.-L. Cheng,  
 Siu Hung Chien,  D. M. Chipman,  D. L. Crittenden,  H. Dachsel,  
 R. J. Doerksen,  A. D. Dutoi,  L. Fusti-Molnar,  W. A. Goddard III,  
 A. Golubeva-Zadorozhnaya,  S. R. Gwaltney,  G. Hawkins,  A. Heyden,  
 S. Hirata,  G. Kedziora,  F. J. Keil,  C. Kelley,  Jihan Kim,  R. A. King,  
 R. Z. Khaliullin,  P. P. Korambath,  W. Kurlancheek,  A. M. Lee,  M. S. Lee,  
 S. V. Levchenko,  Ching Yeh Lin,  D. Liotard,  R. C. Lochan,  I. Lotan,  
 P. E. Maslen,  N. Nair,  D. P. O'Neill,  D. Neuhauser,  E. Neuscamman,  
 C. M. Oana,  R. Olson,  B. Peters,  R. Peverati,  P. A. Pieniazek,  
 Y. M. Rhee,  J. Ritchie,  M. A. Rohrdanz,  E. Rosta,  N. J. Russ,  
 H. F. Schaefer III,  N. E. Schultz,  N. Shenvi,  A. C. Simmonett,  A. Sodt,  
 D. Stuck,  K. S. Thanthiriwatte,  V. Vanovschi,  Tao Wang,  A. Warshel,  
 C. F. Williams,  Q. Wu,  X. Xu,  W. Zhang

 Please cite Q-Chem as follows:
 Y. Shao et al., Mol. Phys. 113, 184-215 (2015)
 DOI: 10.1080/00268976.2014.952696

 Q-Chem 5.2.0 for Intel X86 EM64T Linux

 Parts of Q-Chem use Armadillo 8.300.2 (Tropical Shenanigans).
 http://arma.sourceforge.net/

 Q-Chem begins on Sun Sep 26 08:33:58 2021  

Host: cori01
0

     Scratch files written to /tmp/qchem15032//
 May1019 |scratch|qcdevops|jenkins|workspace|build_RNUM -1
Processing $rem in /global/common/cori/software/qchem/5.2/config/preferences:
	 MEM_TOTAL  96000 
NAlpha2: 72
NElect   72
Mult     1
Symmetry turned off for PCM/SM12/SMD calculation

 Q-Chem warning in module libgen/rem_setup.C, line 2803:

 Neither GIA nor STOLL is specified by user. Use STOLL as the default


Checking the input file for inconsistencies... 	...done.

--------------------------------------------------------------
User input:
--------------------------------------------------------------
$comment
SSI-054GLU-058ARG-1.pdb
$end

$molecule
0 1
--
-1 1
C   -0.951577987026    2.377009850668   -2.734952439336
C   -0.490577987026    1.563009850668   -1.518952439336
O   -0.909577987026    1.883009850668   -0.390952439336
O    0.319422012974    0.620009850668   -1.703952439336
H   -0.959577987026    1.741009850668   -3.619952439336
H   -0.214577987026    3.164009850668   -2.907952439336
H   -1.935547987026    2.858809850668   -2.636625439336
--
1 1
C    0.869422012974   -2.626990149332   -0.159952439336
C    0.308422012974   -0.943990149332    1.614047560664
N   -0.148577987026    0.271009850668    1.920047560664
N    0.517422012974   -1.276990149332    0.344047560664
N    0.482422012974   -1.845990149332    2.567047560664
H   -0.346577987026    0.919009850668    1.152047560664
H   -0.288577987026    0.555009850668    2.878047560664
H    0.390422012974   -0.538990149332   -0.355952439336
H    0.881422012974   -2.744990149332    2.356047560664
H    0.242422012974   -1.573990149332    3.516047560664
H    1.626422012974   -3.089990149332    0.477047560664
H    1.300422012974   -2.500990149332   -1.155952439336
H   -0.010717987026   -3.281450149332   -0.243875439336
$end

$rem
JOBTYPE			EDA
EDA2			1
method			wB97X-V
BASIS			def2-TZVPD
XC_GRID			000099000590
NL_GRID			1
UNRESTRICTED		FALSE
MAX_SCF_CYCLES		200
SYMMETRY		FALSE
SYM_IGNORE		TRUE
MEM_STATIC		2000
BASIS_LIN_DEP_THRESH 	6
THRESH 			14
SCF_CONVERGENCE 	8
SCF_PRINT_FRGM 		TRUE
SOLVENT_METHOD          PCM
$end

$PCM
THEORY                  CPCM
METHOD                  SWIG
SOLVER                  INVERSION
RADII                   UFF
HPOINTS                 302
HEAVYPOINTS             302
PRINTLEVEL              0
$END

$SOLVENT
DIELECTRIC              78.390000 ! water
$END
--------------------------------------------------------------
 ----------------------------------------------------------------
             Standard Nuclear Orientation (Angstroms)
    I     Atom           X                Y                Z
 ----------------------------------------------------------------
    1      C      -0.9515779870     2.3770098507    -2.7349524393
    2      C      -0.4905779870     1.5630098507    -1.5189524393
    3      O      -0.9095779870     1.8830098507    -0.3909524393
    4      O       0.3194220130     0.6200098507    -1.7039524393
    5      H      -0.9595779870     1.7410098507    -3.6199524393
    6      H      -0.2145779870     3.1640098507    -2.9079524393
    7      H      -1.9355479870     2.8588098507    -2.6366254393
    8      C       0.8694220130    -2.6269901493    -0.1599524393
    9      C       0.3084220130    -0.9439901493     1.6140475607
   10      N      -0.1485779870     0.2710098507     1.9200475607
   11      N       0.5174220130    -1.2769901493     0.3440475607
   12      N       0.4824220130    -1.8459901493     2.5670475607
   13      H      -0.3465779870     0.9190098507     1.1520475607
   14      H      -0.2885779870     0.5550098507     2.8780475607
   15      H       0.3904220130    -0.5389901493    -0.3559524393
   16      H       0.8814220130    -2.7449901493     2.3560475607
   17      H       0.2424220130    -1.5739901493     3.5160475607
   18      H       1.6264220130    -3.0899901493     0.4770475607
   19      H       1.3004220130    -2.5009901493    -1.1559524393
   20      H      -0.0107179870    -3.2814501493    -0.2438754393
 ----------------------------------------------------------------
 Nuclear Repulsion Energy =         463.85327370 hartrees
 There are       36 alpha and       36 beta electrons
 Requested basis set is def2-TZVPD
 There are 174 shells and 438 basis functions

 Total QAlloc Memory Limit  96000 MB
 Mega-Array Size      1956 MB
 MEM_STATIC part      2000 MB
 Discretize the solute cavity surface with Lebedev spheres
	Using 302 Lebedev grid points for each H atom
	Using 302 Lebedev grid points for other atoms
	Atomic van der Waals radii will be scaled by 1.20
 Remove points where switching function is < 1.0e-08
 Keep 2322 surface tesserae and discard 3718 interior tesserae
 Molecular Surface Area = 231.560 Angst**2
 A cutoff of  1.0D-14 yielded  13616 shell pairs
 There are     87556 function pairs (    110248 Cartesian)
 Smallest overlap matrix eigenvalue = 7.84E-06

 Scale SEOQF with 1.000000e-01/1.000000e-01/1.000000e-01

 Standard Electronic Orientation quadrupole field applied
 Nucleus-field energy     =    -0.0000000076 hartrees

 -----------------------------------------------------------------------
  General SCF calculation program by
  Eric Jon Sundstrom, Paul Horn, Yuezhi Mao, Dmitri Zuev, Alec White,
  David Stuck, Shaama M.S., Shane Yost, Joonho Lee, David Small,
  Daniel Levine, Susi Lehtola, Hugh Burton, Evgeny Epifanovsky
 -----------------------------------------------------------------------
================================================================
                 ALMO-EDA with the EDA2 driver                  
================================================================
 The second-generation ALMO-EDA (for DFT):                      
 P. R. Horn, Y. Mao and M. Head-Gordon, PCCP, 18, 23067 (2016)  
 Decomposition of the frozen energy:                            
 P. R. Horn, Y. Mao and M. Head-Gordon, JCP, 144, 114107 (2016) 
 FERF model for polarization:                                   
 P. R. Horn and M. Head-Gordon, JCP, 143, 114111 (2015)         
Using eda2 option set 1
Option set summary: Frozen orbital wavefunction, initial wavefunction decomposition, and nDQ polarization.
--------------------------------
Printing EDA Options
--------------------------------
eda_child_super_basis      0
fragmo_guess_mode          0
child_mp                   1
child_mp_orders            232
cls_elec                   1
cls_disp                   0
scfmi_mode                 1
scfmi_occs                 0
scfmi_virts                0
frz_relax                  0
frz_relax_method           0
dc_pen_start               0
dc_pen_conv                0
dc_pen_increment           0
dc_pen_steps               0
dc_pen_thresh_factor       0
dc_pen_pre_newton_thresh   0
frz_ortho_decomp           1
frz_ortho_decomp_conv      6
frgm_method                2
scfmi_freeze_ss            0
separate_rehyb             0
plot_diff_den              0
eda_nocv                   0
eda_vct_relax              1
disp_free_x                0
disp_free_c                0
eda_bsse                   0
eda_pct_a                  0
eda_covp                   0
--------------------------------
Attempting to make child job directory: /tmp/qchem15032//Frg1/
Attempting to make child job directory: /tmp/qchem15032//Frg2/
Creating input file /tmp/qchem15032/Frg1.input
using default PutDataFrgm: nothing
calling putenv with: QCSCRATCH=/tmp/qchem15032/ 
calling putenv with: QCLOCALSCR=/tmp/qchem15032/ 
Spawning Job For Fragment 0
                  Welcome to Q-Chem
     A Quantum Leap Into The Future Of Chemistry


 Q-Chem 5.2, Q-Chem, Inc., Pleasanton, CA (2019)

 License issued to: National Energy Research Scientific Computing Center

 Yihan Shao,  Zhengting Gan,  E. Epifanovsky,  A. T. B. Gilbert,  M. Wormit,  
 J. Kussmann,  A. W. Lange,  A. Behn,  Jia Deng,  Xintian Feng,  D. Ghosh,  
 M. Goldey,  P. R. Horn,  L. D. Jacobson,  I. Kaliman,  T. Kus,  A. Landau,  
 Jie Liu,  E. I. Proynov,  R. M. Richard,  R. P. Steele,  E. J. Sundstrom,  
 H. L. Woodcock III,  P. M. Zimmerman,  D. Zuev,  B. Albrecht,  E. Alguire,  
 S. A. Baeppler,  D. Barton,  Z. Benda,  Y. A. Bernard,  E. J. Berquist,  
 K. B. Bravaya,  H. Burton,  D. Casanova,  Chun-Min Chang,  Yunqing Chen,  
 A. Chien,  K. D. Closser,  M. P. Coons,  S. Coriani,  S. Dasgupta,  
 A. L. Dempwolff,  M. Diedenhofen,  Hainam Do,  R. G. Edgar,  Po-Tung Fang,  
 S. Faraji,  S. Fatehi,  Qingguo Feng,  K. D. Fenk,  J. Fosso-Tande,  
 J. Gayvert,  Qinghui Ge,  A. Ghysels,  G. Gidofalvi,  J. Gomes,  
 J. Gonthier,  A. Gunina,  D. Hait,  M. W. D. Hanson-Heine,  
 P. H. P. Harbach,  A. W. Hauser,  M. F. Herbst,  J. E. Herr,  
 E. G. Hohenstein,  Z. C. Holden,  Kerwin Hui,  B. C. Huynh,  T.-C. Jagau,  
 Hyunjun Ji,  B. Kaduk,  K. Khistyaev,  Jaehoon Kim,  P. Klunzinger,  K. Koh,  
 D. Kosenkov,  L. Koulias,  T. Kowalczyk,  C. M. Krauter,  A. Kunitsa,  
 Ka Un Lao,  A. Laurent,  K. V. Lawler,  Joonho Lee,  D. Lefrancois,  
 S. Lehtola,  D. S. Levine,  Yi-Pei Li,  You-Sheng Lin,  Fenglai Liu,  
 E. Livshits,  A. Luenser,  P. Manohar,  E. Mansoor,  S. F. Manzer,  
 Shan-Ping Mao,  Yuezhi Mao,  N. Mardirossian,  A. V. Marenich,  
 T. Markovich,  L. A. Martinez-Martinez,  S. A. Maurer,  N. J. Mayhall,  
 S. C. McKenzie,  J.-M. Mewes,  P. Morgante,  A. F. Morrison,  
 J. W. Mullinax,  K. Nanda,  T. S. Nguyen-Beck,  R. Olivares-Amaya,  
 J. A. Parkhill,  Zheng Pei,  T. M. Perrine,  F. Plasser,  P. Pokhilko,  
 S. Prager,  A. Prociuk,  E. Ramos,  D. R. Rehn,  F. Rob,  M. Scheurer,  
 M. Schneider,  N. Sergueev,  S. M. Sharada,  S. Sharma,  D. W. Small,  
 T. Stauch,  T. Stein,  Yu-Chuan Su,  A. J. W. Thom,  A. Tkatchenko,  
 T. Tsuchimochi,  N. M. Tubman,  L. Vogt,  M. L. Vidal,  O. Vydrov,  
 M. A. Watson,  J. Wenzel,  M. de Wergifosse,  T. A. Wesolowski,  A. White,  
 J. Witte,  A. Yamada,  Jun Yang,  K. Yao,  S. Yeganeh,  S. R. Yost,  
 Zhi-Qiang You,  A. Zech,  Igor Ying Zhang,  Xing Zhang,  Yan Zhao,  
 Ying Zhu,  B. R. Brooks,  G. K. L. Chan,  C. J. Cramer,  M. S. Gordon,  
 W. J. Hehre,  A. Klamt,  M. W. Schmidt,  C. D. Sherrill,  D. G. Truhlar,  
 A. Aspuru-Guzik,  R. Baer,  A. T. Bell,  N. A. Besley,  Jeng-Da Chai,  
 A. E. DePrince, III,  R. A. DiStasio Jr.,  A. Dreuw,  B. D. Dunietz,  
 T. R. Furlani,  Chao-Ping Hsu,  Yousung Jung,  Jing Kong,  D. S. Lambrecht,  
 WanZhen Liang,  C. Ochsenfeld,  V. A. Rassolov,  L. V. Slipchenko,  
 J. E. Subotnik,  T. Van Voorhis,  J. M. Herbert,  A. I. Krylov,  
 P. M. W. Gill,  M. Head-Gordon

 Contributors to earlier versions of Q-Chem not listed above: 
 R. D. Adamson,  B. Austin,  J. Baker,  G. J. O. Beran,  K. Brandhorst,  
 S. T. Brown,  E. F. C. Byrd,  A. K. Chakraborty,  C.-L. Cheng,  
 Siu Hung Chien,  D. M. Chipman,  D. L. Crittenden,  H. Dachsel,  
 R. J. Doerksen,  A. D. Dutoi,  L. Fusti-Molnar,  W. A. Goddard III,  
 A. Golubeva-Zadorozhnaya,  S. R. Gwaltney,  G. Hawkins,  A. Heyden,  
 S. Hirata,  G. Kedziora,  F. J. Keil,  C. Kelley,  Jihan Kim,  R. A. King,  
 R. Z. Khaliullin,  P. P. Korambath,  W. Kurlancheek,  A. M. Lee,  M. S. Lee,  
 S. V. Levchenko,  Ching Yeh Lin,  D. Liotard,  R. C. Lochan,  I. Lotan,  
 P. E. Maslen,  N. Nair,  D. P. O'Neill,  D. Neuhauser,  E. Neuscamman,  
 C. M. Oana,  R. Olson,  B. Peters,  R. Peverati,  P. A. Pieniazek,  
 Y. M. Rhee,  J. Ritchie,  M. A. Rohrdanz,  E. Rosta,  N. J. Russ,  
 H. F. Schaefer III,  N. E. Schultz,  N. Shenvi,  A. C. Simmonett,  A. Sodt,  
 D. Stuck,  K. S. Thanthiriwatte,  V. Vanovschi,  Tao Wang,  A. Warshel,  
 C. F. Williams,  Q. Wu,  X. Xu,  W. Zhang

 Please cite Q-Chem as follows:
 Y. Shao et al., Mol. Phys. 113, 184-215 (2015)
 DOI: 10.1080/00268976.2014.952696

 Q-Chem 5.2.0 for Intel X86 EM64T Linux

 Parts of Q-Chem use Armadillo 8.300.2 (Tropical Shenanigans).
 http://arma.sourceforge.net/

 Q-Chem begins on Sun Sep 26 08:34:02 2021  

Host: cori01
0

     Scratch files written to /tmp/qchem15032//Frg1//
 May1019 |scratch|qcdevops|jenkins|workspace|build_RNUM -1
Processing $rem in /global/common/cori/software/qchem/5.2/config/preferences:
	 MEM_TOTAL  96000 
NAlpha2: 32
NElect   32
Mult     1
Symmetry turned off for PCM/SM12/SMD calculation

Checking the input file for inconsistencies... 	...done.

--------------------------------------------------------------
User input:
--------------------------------------------------------------
$molecule
-1 1
 6	-0.9515779870	2.3770098507	-2.7349524393
 6	-0.4905779870	1.5630098507	-1.5189524393
 8	-0.9095779870	1.8830098507	-0.3909524393
 8	0.3194220130	0.6200098507	-1.7039524393
 1	-0.9595779870	1.7410098507	-3.6199524393
 1	-0.2145779870	3.1640098507	-2.9079524393
 1	-1.9355479870	2.8588098507	-2.6366254393
$end
$rem
EDA2		1
METHOD		WB97X-V
BASIS		DEF2-TZVPD
XC_GRID		000099000590
NL_GRID		1
UNRESTRICTED		FALSE
MAX_SCF_CYCLES		200
SYMMETRY		FALSE
SYM_IGNORE		TRUE
BASIS_LIN_DEP_THRESH		6
THRESH		14
SCF_CONVERGENCE		8
SCF_PRINT_FRGM		TRUE
SOLVENT_METHOD		PCM
!required keywords
JOBTYPE		SP
SYM_IGNORE		TRUE
SUBSYSTEM		TRUE
GEN_SCFMAN		TRUE
CHILD_INSTRUCTION		2
SYM_IGNORE		TRUE
SCFMI		0
RI_K 0		
PARI_K 0		
MIN_PARI_K 0		
IARI_K 0		
OCC_RI_K 0		
PURECART		1111
MEM_STATIC		2000
MEM_TOTAL		96000
GUI		0
CHILD_MP		1
CHILD_MP_ORDERS		232
FRZ_RELAX		0
FRZ_RELAX_METHOD		0
EDA_CLS_ELEC		1
EDA_CLS_DISP		0
FRZ_ORTHO_DECOMP		1
EDA2		FALSE
FRGM_METHOD		FALSE
CIS_N_ROOTS  0
LOCAL_CIS    0
CIS_RLX_DNS  1
$end
$pcm
THEORY                  CPCM
METHOD                  SWIG
SOLVER                  INVERSION
RADII                   UFF
HPOINTS                 302
HEAVYPOINTS             302
PRINTLEVEL              0
$end
$solvent
DIELECTRIC              78.390000 ! water
$end
--------------------------------------------------------------
 ----------------------------------------------------------------
             Standard Nuclear Orientation (Angstroms)
    I     Atom           X                Y                Z
 ----------------------------------------------------------------
    1      C      -0.9515779870     2.3770098507    -2.7349524393
    2      C      -0.4905779870     1.5630098507    -1.5189524393
    3      O      -0.9095779870     1.8830098507    -0.3909524393
    4      O       0.3194220130     0.6200098507    -1.7039524393
    5      H      -0.9595779870     1.7410098507    -3.6199524393
    6      H      -0.2145779870     3.1640098507    -2.9079524393
    7      H      -1.9355479870     2.8588098507    -2.6366254393
 ----------------------------------------------------------------
 Nuclear Repulsion Energy =         112.36479588 hartrees
 There are       16 alpha and       16 beta electrons
 Requested basis set is def2-TZVPD
 There are 69 shells and 181 basis functions

 Total QAlloc Memory Limit  96000 MB
 Mega-Array Size      1956 MB
 MEM_STATIC part      2000 MB
 Discretize the solute cavity surface with Lebedev spheres
	Using 302 Lebedev grid points for each H atom
	Using 302 Lebedev grid points for other atoms
	Atomic van der Waals radii will be scaled by 1.20
 Remove points where switching function is < 1.0e-08
 Keep 1020 surface tesserae and discard 1094 interior tesserae
 Molecular Surface Area = 120.605 Angst**2

                       Distance Matrix (Angstroms)
             C (  1)   C (  2)   O (  3)   O (  4)   H (  5)   H (  6)
   C (  2)  1.534201
   O (  3)  2.395858  1.245129
   O (  4)  2.401135  1.256811  2.197630
   H (  5)  1.089855  2.160057  3.232508  2.561940
   H (  6)  1.092001  2.137451  2.908483  2.864735  1.756957
   H (  7)  1.099998  2.239694  2.654778  3.311645  1.780148  1.768758

 
 A cutoff of  1.0D-14 yielded   2391 shell pairs
 There are     16695 function pairs (     21491 Cartesian)
 Smallest overlap matrix eigenvalue = 1.79E-05

 Scale SEOQF with 1.000000e-01/1.000000e-01/1.000000e-01

 Standard Electronic Orientation quadrupole field applied
 Nucleus-field energy     =    -0.0000000041 hartrees
 Guess from superposition of atomic densities
 Warning:  Energy on first SCF cycle will be non-variational
 SAD guess density has 30.625312 electrons

 -----------------------------------------------------------------------
  General SCF calculation program by
  Eric Jon Sundstrom, Paul Horn, Yuezhi Mao, Dmitri Zuev, Alec White,
  David Stuck, Shaama M.S., Shane Yost, Joonho Lee, David Small,
  Daniel Levine, Susi Lehtola, Hugh Burton, Evgeny Epifanovsky
 -----------------------------------------------------------------------
 Exchange:     0.1670 Hartree-Fock + 1.0000 wB97X-V + LR-HF
 Correlation:  1.0000 wB97X-V
 Using Euler-Maclaurin-Lebedev (99,590) quadrature formula
 Nonlocal Correlation:  VV10 with C = 0.0100 and b = 6.00 and scale = 1.00000
 Grid used for NLC:  SG-1 standard quadrature
Energy prior to optimization (guess energy) = -227.763627138425
Begin Timing: Total SCF Calculation
begin iterations for algorithm: DIIS         
the SCF tolerance is set to 1.00e-08
    1    -227.7636271384      1.66e-02     00000 
    2    -225.6112434794      2.54e-02     00000 
    3    -228.5770795898      4.13e-03     00000 
    4    -228.6359796934      1.38e-03     00000 
    5    -228.6421086783      2.35e-04     00000 
    6    -228.6423314081      1.79e-04     00000 
    7    -228.6424174878      5.12e-05     00000 
    8    -228.6424284783      1.39e-05     00000 
    9    -228.6424297681      2.92e-06     00000 
   10    -228.6424298693      5.17e-07     00000 
   11    -228.6424298726      2.33e-07     00000 
   12    -228.6424298731      6.44e-08     00000 
   13    -228.6424298732      1.60e-08     00000 
   14    -228.6424298732      2.90e-09     00000 Convergence criterion met
Timing for Total SCF: 292.00s (wall), 570.09s (cpu)

************** Final PCM Free Energy Summary **************
 G_electrostatic  =      -0.10176173 hartree =     -63.85644775 kcal/mol
 G_cavitation     =       0.00000000 hartree =       0.00000000 kcal/mol
 G_dispersion     =       0.00000000 hartree =       0.00000000 kcal/mol
 G_repulsion      =       0.00000000 hartree =       0.00000000 kcal/mol
 --------------------------------------------------
 Non-electrostatic Free Energy =       0.00000000 hartree =       0.00000000 kcal/mol
 Total                         =      -0.10176173 hartree =     -63.85644775 kcal/mol
 --------------------------------------------------
 SCF Energy (H0 + V/2)                       =    -228.64242987 
 Solute Internal Energy (H0)                 =    -228.54066815 
 Total Free Energy (H0 + V/2 + non-elec)     =    -228.64242987 hartree
                                             = -143475.29021786 kcal/mol
***********************************************************

E_pcm = -0.1017617274
Multipole orders to be included
        2
        3
computing dipole RHS
computing quadrupole RHS
total number of RHS in solve_reponses: 8
RHS batch sizes
        8
Beginning Block Conjugate Gradient Iterations. Batch Number: 0
computing hessian-vector products by finite difference
              1      6.20e-01     00000 Conjugate Gradient Iteration
computing hessian-vector products by finite difference
              2      2.33e-01     00000 Conjugate Gradient Iteration
computing hessian-vector products by finite difference
              3      6.14e-02     00000 Conjugate Gradient Iteration
computing hessian-vector products by finite difference
              4      1.57e-02     00000 Conjugate Gradient Iteration
computing hessian-vector products by finite difference
              5      2.67e-03     00000 Conjugate Gradient Iteration
computing hessian-vector products by finite difference
              6      5.78e-04     00000 Conjugate Gradient Iteration
computing hessian-vector products by finite difference
              7      9.46e-05     00000 Conjugate Gradient Iteration
computing hessian-vector products by finite difference
              8      1.15e-05     00000 Conjugate Gradient Iteration
computing hessian-vector products by finite difference
              9      1.81e-06     00000 Conjugate Gradient Iteration
computing hessian-vector products by finite difference
             10      2.29e-07     00000 Conjugate Gradient Iteration
computing hessian-vector products by finite difference
             11      4.32e-08     00000 Conjugate Gradient Iteration
computing hessian-vector products by finite difference
             12      1.28e-08     00000 Conjugate Gradient Iteration
computing hessian-vector products by finite difference
             13      1.83e-09     00000 CG Converged
batch 0 complete
Done Calculating Responses
TESTING ORTHOGONALIZATION OF MULTIPOLE BASIS
Multipole virts passed orthogonality test
Virts Per Order
        48
        80
 
 --------------------------------------------------------------
 
                    Orbital Energies (a.u.)
 --------------------------------------------------------------
 
 Alpha MOs
 -- Occupied --
-19.1227 -19.1216 -10.3265 -10.2406  -1.1325  -1.0316  -0.8272  -0.5933
 -0.5271  -0.5182  -0.5144  -0.4635  -0.4433  -0.3293  -0.3262  -0.3091
 -- Virtual --
  0.0632   0.0953   0.0956   0.1055   0.1303   0.1401   0.1423   0.1460
  0.1694   0.1901   0.2000   0.2193   0.2334   0.2360   0.2628   0.2687
  0.2981   0.3094   0.3342   0.3469   0.3563   0.3667   0.3717   0.3748
  0.3874   0.4059   0.4243   0.4303   0.4322   0.4586   0.4725   0.4784
  0.4906   0.4952   0.5045   0.5238   0.5572   0.5812   0.5961   0.6117
  0.6382   0.6407   0.6458   0.6616   0.6688   0.6788   0.6890   0.7127
  0.7220   0.7360   0.7898   0.7967   0.8111   0.8266   0.8466   0.8565
  0.8666   0.9842   0.9988   1.0022   1.0072   1.0384   1.0745   1.0996
  1.1460   1.2373   1.2522   1.2653   1.2909   1.3159   1.3573   1.3904
  1.4339   1.5542   1.6022   1.7453   1.8263   1.8703   1.8864   1.9230
  1.9258   1.9522   1.9611   1.9731   2.0290   2.1043   2.1299   2.1834
  2.2070   2.2290   2.3081   2.3384   2.4184   2.4611   2.4828   2.5011
  2.5759   2.5827   2.6479   2.6612   2.7677   2.8184   2.8484   2.9131
  2.9466   3.0405   3.0944   3.1413   3.2200   3.2340   3.2816   3.2974
  3.3485   3.3570   3.3844   3.4108   3.4226   3.5236   3.5957   3.6000
  3.6170   3.6767   3.7244   3.7307   3.7448   3.8258   3.9648   4.0404
  4.0818   4.2307   4.3316   4.5814   4.5983   4.6552   4.8008   4.8206
  4.9849   5.3322   5.3593   5.3674   5.3770   5.5018   5.7122   5.7740
  5.8225   6.0263   6.2428   6.3364   6.3576   6.6256   6.6316   6.7210
  6.7500   6.7605   6.9468   6.9816   7.0472   7.2445   7.3524   7.3855
  7.4177  22.5825  23.7216  44.2215  44.3670
 --------------------------------------------------------------
 
          Ground-State Mulliken Net Atomic Charges

     Atom                 Charge (a.u.)
  ----------------------------------------
      1 C                    -0.422445
      2 C                     0.297779
      3 O                    -0.665252
      4 O                    -0.679979
      5 H                     0.162835
      6 H                     0.126786
      7 H                     0.180277
  ----------------------------------------
  Sum of atomic charges =    -1.000000

 -----------------------------------------------------------------
                    Cartesian Multipole Moments
 -----------------------------------------------------------------
    Charge (ESU x 10^10)
                -4.8032
    Dipole Moment (Debye)
         X       0.8913      Y      -5.0978      Z       3.7803
       Tot       6.4088
    Quadrupole Moments (Debye-Ang)
        XX     -29.0222     XY       4.3218     YY     -34.3228
        XZ       2.8796     YZ       0.2491     ZZ     -32.3344
    Octopole Moments (Debye-Ang^2)
       XXX      43.4474    XXY     -48.4695    XYY      24.8477
       YYY    -145.9412    XXZ      44.0567    XYZ       0.9883
       YYZ      40.7105    XZZ       7.5727    YZZ     -43.0359
       ZZZ     143.6068
    Hexadecapole Moments (Debye-Ang^3)
      XXXX    -126.9159   XXXY     100.1761   XXYY    -120.2219
      XYYY     122.9747   YYYY    -575.3541   XXXZ     -68.5306
      XXYZ      76.6399   XYYZ     -26.3841   YYYZ     223.0653
      XXZZ    -121.2887   XYZZ      29.6339   YYZZ    -184.6730
      XZZZ     -60.1563   YZZZ     237.3195   ZZZZ    -629.8397
 -----------------------------------------------------------------
Archival summary:
1\1\nid00544\SP\ProcedureUnspecified\BasisUnspecified\223(1-,1)\meili\SunSep2609:57:402021SunSep2609:57:402021\0\\#,ProcedureUnspecified,BasisUnspecified,\\-1,1\C\O,1,1.24513\O,1,1.25681,2,122.892\C,1,1.5342,2,118.722,3,-178.305,0\H,4,1.08986,1,109.645,2,-150.89,0\H,4,1.092,1,107.767,2,92.6611,0\H,4,1.1,1,115.488,2,-27.6255,0\\\@

 Total job time:  5019.20s(wall), 9837.63s(cpu) 
 Sun Sep 26 09:57:41 2021

        *************************************************************
        *                                                           *
        *  Thank you very much for using Q-Chem.  Have a nice day.  *
        *                                                           *
        *************************************************************


Done Job For Fragment 0
calling putenv with: QCSCRATCH=/global/cscratch1/sd/meili 
calling putenv with: QCLOCALSCR=/tmp 
calling putenv with: QCTHREADS=32 
Creating input file /tmp/qchem15032/Frg2.input
using default PutDataFrgm: nothing
calling putenv with: QCSCRATCH=/tmp/qchem15032/ 
calling putenv with: QCLOCALSCR=/tmp/qchem15032/ 
Spawning Job For Fragment 1
                  Welcome to Q-Chem
     A Quantum Leap Into The Future Of Chemistry


 Q-Chem 5.2, Q-Chem, Inc., Pleasanton, CA (2019)

 License issued to: National Energy Research Scientific Computing Center

 Yihan Shao,  Zhengting Gan,  E. Epifanovsky,  A. T. B. Gilbert,  M. Wormit,  
 J. Kussmann,  A. W. Lange,  A. Behn,  Jia Deng,  Xintian Feng,  D. Ghosh,  
 M. Goldey,  P. R. Horn,  L. D. Jacobson,  I. Kaliman,  T. Kus,  A. Landau,  
 Jie Liu,  E. I. Proynov,  R. M. Richard,  R. P. Steele,  E. J. Sundstrom,  
 H. L. Woodcock III,  P. M. Zimmerman,  D. Zuev,  B. Albrecht,  E. Alguire,  
 S. A. Baeppler,  D. Barton,  Z. Benda,  Y. A. Bernard,  E. J. Berquist,  
 K. B. Bravaya,  H. Burton,  D. Casanova,  Chun-Min Chang,  Yunqing Chen,  
 A. Chien,  K. D. Closser,  M. P. Coons,  S. Coriani,  S. Dasgupta,  
 A. L. Dempwolff,  M. Diedenhofen,  Hainam Do,  R. G. Edgar,  Po-Tung Fang,  
 S. Faraji,  S. Fatehi,  Qingguo Feng,  K. D. Fenk,  J. Fosso-Tande,  
 J. Gayvert,  Qinghui Ge,  A. Ghysels,  G. Gidofalvi,  J. Gomes,  
 J. Gonthier,  A. Gunina,  D. Hait,  M. W. D. Hanson-Heine,  
 P. H. P. Harbach,  A. W. Hauser,  M. F. Herbst,  J. E. Herr,  
 E. G. Hohenstein,  Z. C. Holden,  Kerwin Hui,  B. C. Huynh,  T.-C. Jagau,  
 Hyunjun Ji,  B. Kaduk,  K. Khistyaev,  Jaehoon Kim,  P. Klunzinger,  K. Koh,  
 D. Kosenkov,  L. Koulias,  T. Kowalczyk,  C. M. Krauter,  A. Kunitsa,  
 Ka Un Lao,  A. Laurent,  K. V. Lawler,  Joonho Lee,  D. Lefrancois,  
 S. Lehtola,  D. S. Levine,  Yi-Pei Li,  You-Sheng Lin,  Fenglai Liu,  
 E. Livshits,  A. Luenser,  P. Manohar,  E. Mansoor,  S. F. Manzer,  
 Shan-Ping Mao,  Yuezhi Mao,  N. Mardirossian,  A. V. Marenich,  
 T. Markovich,  L. A. Martinez-Martinez,  S. A. Maurer,  N. J. Mayhall,  
 S. C. McKenzie,  J.-M. Mewes,  P. Morgante,  A. F. Morrison,  
 J. W. Mullinax,  K. Nanda,  T. S. Nguyen-Beck,  R. Olivares-Amaya,  
 J. A. Parkhill,  Zheng Pei,  T. M. Perrine,  F. Plasser,  P. Pokhilko,  
 S. Prager,  A. Prociuk,  E. Ramos,  D. R. Rehn,  F. Rob,  M. Scheurer,  
 M. Schneider,  N. Sergueev,  S. M. Sharada,  S. Sharma,  D. W. Small,  
 T. Stauch,  T. Stein,  Yu-Chuan Su,  A. J. W. Thom,  A. Tkatchenko,  
 T. Tsuchimochi,  N. M. Tubman,  L. Vogt,  M. L. Vidal,  O. Vydrov,  
 M. A. Watson,  J. Wenzel,  M. de Wergifosse,  T. A. Wesolowski,  A. White,  
 J. Witte,  A. Yamada,  Jun Yang,  K. Yao,  S. Yeganeh,  S. R. Yost,  
 Zhi-Qiang You,  A. Zech,  Igor Ying Zhang,  Xing Zhang,  Yan Zhao,  
 Ying Zhu,  B. R. Brooks,  G. K. L. Chan,  C. J. Cramer,  M. S. Gordon,  
 W. J. Hehre,  A. Klamt,  M. W. Schmidt,  C. D. Sherrill,  D. G. Truhlar,  
 A. Aspuru-Guzik,  R. Baer,  A. T. Bell,  N. A. Besley,  Jeng-Da Chai,  
 A. E. DePrince, III,  R. A. DiStasio Jr.,  A. Dreuw,  B. D. Dunietz,  
 T. R. Furlani,  Chao-Ping Hsu,  Yousung Jung,  Jing Kong,  D. S. Lambrecht,  
 WanZhen Liang,  C. Ochsenfeld,  V. A. Rassolov,  L. V. Slipchenko,  
 J. E. Subotnik,  T. Van Voorhis,  J. M. Herbert,  A. I. Krylov,  
 P. M. W. Gill,  M. Head-Gordon

 Contributors to earlier versions of Q-Chem not listed above: 
 R. D. Adamson,  B. Austin,  J. Baker,  G. J. O. Beran,  K. Brandhorst,  
 S. T. Brown,  E. F. C. Byrd,  A. K. Chakraborty,  C.-L. Cheng,  
 Siu Hung Chien,  D. M. Chipman,  D. L. Crittenden,  H. Dachsel,  
 R. J. Doerksen,  A. D. Dutoi,  L. Fusti-Molnar,  W. A. Goddard III,  
 A. Golubeva-Zadorozhnaya,  S. R. Gwaltney,  G. Hawkins,  A. Heyden,  
 S. Hirata,  G. Kedziora,  F. J. Keil,  C. Kelley,  Jihan Kim,  R. A. King,  
 R. Z. Khaliullin,  P. P. Korambath,  W. Kurlancheek,  A. M. Lee,  M. S. Lee,  
 S. V. Levchenko,  Ching Yeh Lin,  D. Liotard,  R. C. Lochan,  I. Lotan,  
 P. E. Maslen,  N. Nair,  D. P. O'Neill,  D. Neuhauser,  E. Neuscamman,  
 C. M. Oana,  R. Olson,  B. Peters,  R. Peverati,  P. A. Pieniazek,  
 Y. M. Rhee,  J. Ritchie,  M. A. Rohrdanz,  E. Rosta,  N. J. Russ,  
 H. F. Schaefer III,  N. E. Schultz,  N. Shenvi,  A. C. Simmonett,  A. Sodt,  
 D. Stuck,  K. S. Thanthiriwatte,  V. Vanovschi,  Tao Wang,  A. Warshel,  
 C. F. Williams,  Q. Wu,  X. Xu,  W. Zhang

 Please cite Q-Chem as follows:
 Y. Shao et al., Mol. Phys. 113, 184-215 (2015)
 DOI: 10.1080/00268976.2014.952696

 Q-Chem 5.2.0 for Intel X86 EM64T Linux

 Parts of Q-Chem use Armadillo 8.300.2 (Tropical Shenanigans).
 http://arma.sourceforge.net/

 Q-Chem begins on Sun Sep 26 09:57:42 2021  

Host: cori01
0

     Scratch files written to /tmp/qchem15032//Frg2//
 May1019 |scratch|qcdevops|jenkins|workspace|build_RNUM -1
Processing $rem in /global/common/cori/software/qchem/5.2/config/preferences:
	 MEM_TOTAL  96000 
NAlpha2: 40
NElect   40
Mult     1
Symmetry turned off for PCM/SM12/SMD calculation

Checking the input file for inconsistencies... 	...done.

--------------------------------------------------------------
User input:
--------------------------------------------------------------
$molecule
1 1
 6	0.8694220130	-2.6269901493	-0.1599524393
 6	0.3084220130	-0.9439901493	1.6140475607
 7	-0.1485779870	0.2710098507	1.9200475607
 7	0.5174220130	-1.2769901493	0.3440475607
 7	0.4824220130	-1.8459901493	2.5670475607
 1	-0.3465779870	0.9190098507	1.1520475607
 1	-0.2885779870	0.5550098507	2.8780475607
 1	0.3904220130	-0.5389901493	-0.3559524393
 1	0.8814220130	-2.7449901493	2.3560475607
 1	0.2424220130	-1.5739901493	3.5160475607
 1	1.6264220130	-3.0899901493	0.4770475607
 1	1.3004220130	-2.5009901493	-1.1559524393
 1	-0.0107179870	-3.2814501493	-0.2438754393
$end
$rem
EDA2		1
METHOD		WB97X-V
BASIS		DEF2-TZVPD
XC_GRID		000099000590
NL_GRID		1
UNRESTRICTED		FALSE
MAX_SCF_CYCLES		200
SYMMETRY		FALSE
SYM_IGNORE		TRUE
BASIS_LIN_DEP_THRESH		6
THRESH		14
SCF_CONVERGENCE		8
SCF_PRINT_FRGM		TRUE
SOLVENT_METHOD		PCM
!required keywords
JOBTYPE		SP
SYM_IGNORE		TRUE
SUBSYSTEM		TRUE
GEN_SCFMAN		TRUE
CHILD_INSTRUCTION		2
SYM_IGNORE		TRUE
SCFMI		0
RI_K 0		
PARI_K 0		
MIN_PARI_K 0		
IARI_K 0		
OCC_RI_K 0		
PURECART		1111
MEM_STATIC		2000
MEM_TOTAL		96000
GUI		0
CHILD_MP		1
CHILD_MP_ORDERS		232
FRZ_RELAX		0
FRZ_RELAX_METHOD		0
EDA_CLS_ELEC		1
EDA_CLS_DISP		0
FRZ_ORTHO_DECOMP		1
EDA2		FALSE
FRGM_METHOD		FALSE
CIS_N_ROOTS  0
LOCAL_CIS    0
CIS_RLX_DNS  1
$end
$pcm
THEORY                  CPCM
METHOD                  SWIG
SOLVER                  INVERSION
RADII                   UFF
HPOINTS                 302
HEAVYPOINTS             302
PRINTLEVEL              0
$end
$solvent
DIELECTRIC              78.390000 ! water
$end
--------------------------------------------------------------
 ----------------------------------------------------------------
             Standard Nuclear Orientation (Angstroms)
    I     Atom           X                Y                Z
 ----------------------------------------------------------------
    1      C       0.8694220130    -2.6269901493    -0.1599524393
    2      C       0.3084220130    -0.9439901493     1.6140475607
    3      N      -0.1485779870     0.2710098507     1.9200475607
    4      N       0.5174220130    -1.2769901493     0.3440475607
    5      N       0.4824220130    -1.8459901493     2.5670475607
    6      H      -0.3465779870     0.9190098507     1.1520475607
    7      H      -0.2885779870     0.5550098507     2.8780475607
    8      H       0.3904220130    -0.5389901493    -0.3559524393
    9      H       0.8814220130    -2.7449901493     2.3560475607
   10      H       0.2424220130    -1.5739901493     3.5160475607
   11      H       1.6264220130    -3.0899901493     0.4770475607
   12      H       1.3004220130    -2.5009901493    -1.1559524393
   13      H      -0.0107179870    -3.2814501493    -0.2438754393
 ----------------------------------------------------------------
 Nuclear Repulsion Energy =         192.91293486 hartrees
 There are       20 alpha and       20 beta electrons
 Requested basis set is def2-TZVPD
 There are 105 shells and 257 basis functions

 Total QAlloc Memory Limit  96000 MB
 Mega-Array Size      1956 MB
 MEM_STATIC part      2000 MB
 Discretize the solute cavity surface with Lebedev spheres
	Using 302 Lebedev grid points for each H atom
	Using 302 Lebedev grid points for other atoms
	Atomic van der Waals radii will be scaled by 1.20
 Remove points where switching function is < 1.0e-08
 Keep 1581 surface tesserae and discard 2345 interior tesserae
 Molecular Surface Area = 153.134 Angst**2

                       Distance Matrix (Angstroms)
             C (  1)   C (  2)   N (  3)   N (  4)   N (  5)   H (  6)
   C (  2)  2.508842
   N (  3)  3.709599  1.333683
   N (  4)  1.483381  1.329462  2.307301
   N (  5)  2.862911  1.323665  2.301838  2.294932
   H (  6)  3.971664  2.028112  1.024174  2.494349  3.214761
   H (  7)  4.549234  2.049660  1.008970  3.229089  2.540859  1.764918
   H (  8)  2.151186  2.012871  2.475237  1.025072  3.203224  2.223285
   H (  9)  2.518794  2.030393  3.216714  2.517074  1.005944  4.047530
   H ( 10)  3.874908  2.004709  2.470652  3.197721  1.015965  3.485752
   H ( 11)  1.092331  2.763188  4.065611  2.129446  2.687819  4.518898
   H ( 12)  1.092544  3.328846  4.386953  2.088364  3.867671  4.442508
   H ( 13)  1.100003  3.002907  4.161915  2.154633  3.194530  4.439062
             H (  7)   H (  8)   H (  9)   H ( 10)   H ( 11)   H ( 12)
   H (  8)  3.480895
   H (  9)  3.539969  3.530221
   H ( 10)  2.285092  4.010675  1.767813
   H ( 11)  4.766346  2.954520  2.050534  3.667320
   H ( 12)  5.304452  2.305980  3.545313  4.879168  1.766320
   H ( 13)  4.953992  2.773907  2.800590  4.137212  1.799059  1.777664

 
 A cutoff of  1.0D-14 yielded   5436 shell pairs
 There are     33150 function pairs (     41483 Cartesian)
 Smallest overlap matrix eigenvalue = 1.70E-05

 Scale SEOQF with 1.000000e-01/1.000000e-01/1.000000e-01

 Standard Electronic Orientation quadrupole field applied
 Nucleus-field energy     =    -0.0000000035 hartrees
 Guess from superposition of atomic densities
 Warning:  Energy on first SCF cycle will be non-variational
 SAD guess density has 40.388232 electrons

 -----------------------------------------------------------------------
  General SCF calculation program by
  Eric Jon Sundstrom, Paul Horn, Yuezhi Mao, Dmitri Zuev, Alec White,
  David Stuck, Shaama M.S., Shane Yost, Joonho Lee, David Small,
  Daniel Levine, Susi Lehtola, Hugh Burton, Evgeny Epifanovsky
 -----------------------------------------------------------------------
 Exchange:     0.1670 Hartree-Fock + 1.0000 wB97X-V + LR-HF
 Correlation:  1.0000 wB97X-V
 Using Euler-Maclaurin-Lebedev (99,590) quadrature formula
 Nonlocal Correlation:  VV10 with C = 0.0100 and b = 6.00 and scale = 1.00000
 Grid used for NLC:  SG-1 standard quadrature
Energy prior to optimization (guess energy) = -244.724485537775
Begin Timing: Total SCF Calculation
begin iterations for algorithm: DIIS         
the SCF tolerance is set to 1.00e-08
    1    -244.7244855378      7.93e-03     00000 
    2    -244.9347013097      6.29e-03     00000 
    3    -245.1791722696      3.20e-04     00000 
    4    -245.1798169751      1.84e-04     00000 
    5    -245.1800455608      3.63e-05     00000 
    6    -245.1800550647      1.44e-05     00000 
    7    -245.1800568134      2.23e-06     00000 
    8    -245.1800568888      8.17e-07     00000 
    9    -245.1800568995      3.01e-07     00000 
   10    -245.1800569013      8.21e-08     00000 
   11    -245.1800569014      3.32e-08     00000 
   12    -245.1800569014      1.18e-08     00000 
   13    -245.1800569015      1.63e-09     00000 Convergence criterion met
Timing for Total SCF: 796.00s (wall), 1579.86s (cpu)

************** Final PCM Free Energy Summary **************
 G_electrostatic  =      -0.08126487 hartree =     -50.99447524 kcal/mol
 G_cavitation     =       0.00000000 hartree =       0.00000000 kcal/mol
 G_dispersion     =       0.00000000 hartree =       0.00000000 kcal/mol
 G_repulsion      =       0.00000000 hartree =       0.00000000 kcal/mol
 --------------------------------------------------
 Non-electrostatic Free Energy =       0.00000000 hartree =       0.00000000 kcal/mol
 Total                         =      -0.08126487 hartree =     -50.99447524 kcal/mol
 --------------------------------------------------
 SCF Energy (H0 + V/2)                       =    -245.18005690 
 Solute Internal Energy (H0)                 =    -245.09879203 
 Total Free Energy (H0 + V/2 + non-elec)     =    -245.18005690 hartree
                                             = -153852.80780598 kcal/mol
***********************************************************

E_pcm = -0.0812648695
Multipole orders to be included
        2
        3
computing dipole RHS
computing quadrupole RHS
total number of RHS in solve_reponses: 8
RHS batch sizes
        8
Beginning Block Conjugate Gradient Iterations. Batch Number: 0
computing hessian-vector products by finite difference
              1      4.57e-01     00000 Conjugate Gradient Iteration
computing hessian-vector products by finite difference
              2      1.81e-01     00000 Conjugate Gradient Iteration
computing hessian-vector products by finite difference
              3      5.03e-02     00000 Conjugate Gradient Iteration
computing hessian-vector products by finite difference
              4      1.34e-02     00000 Conjugate Gradient Iteration
computing hessian-vector products by finite difference
              5      1.94e-03     00000 Conjugate Gradient Iteration
computing hessian-vector products by finite difference
              6      3.06e-04     00000 Conjugate Gradient Iteration
computing hessian-vector products by finite difference
              7      4.07e-05     00000 Conjugate Gradient Iteration
computing hessian-vector products by finite difference
              8      5.30e-06     00000 Conjugate Gradient Iteration
computing hessian-vector products by finite difference
              9      1.55e-06     00000 Conjugate Gradient Iteration
computing hessian-vector products by finite difference
             10      4.01e-07     00000 Conjugate Gradient Iteration
computing hessian-vector products by finite difference
             11      5.20e-08     00000 Conjugate Gradient Iteration
computing hessian-vector products by finite difference
             12      6.05e-09     00000 CG Converged
batch 0 complete
Done Calculating Responses
TESTING ORTHOGONALIZATION OF MULTIPOLE BASIS
Multipole virts passed orthogonality test
Virts Per Order
           60
          100
 
 --------------------------------------------------------------
 
                    Orbital Energies (a.u.)
 --------------------------------------------------------------
 
 Alpha MOs
 -- Occupied --
-14.4841 -14.4779 -14.4769 -10.4517 -10.3339  -1.1962  -1.0774  -1.0685
 -0.8784  -0.7894  -0.7491  -0.7149  -0.6438  -0.6416  -0.6157  -0.5945
 -0.5509  -0.5339  -0.4255  -0.4027
 -- Virtual --
  0.0476   0.0740   0.0782   0.0863   0.1124   0.1152   0.1233   0.1410
  0.1564   0.1657   0.1780   0.1881   0.1897   0.1938   0.2080   0.2207
  0.2314   0.2343   0.2377   0.2513   0.2642   0.2723   0.2806   0.2878
  0.2933   0.3057   0.3104   0.3140   0.3207   0.3317   0.3389   0.3483
  0.3523   0.3589   0.3639   0.3822   0.3932   0.4003   0.4060   0.4152
  0.4264   0.4380   0.4447   0.4456   0.4560   0.4631   0.4752   0.4826
  0.4887   0.4937   0.4960   0.5078   0.5136   0.5200   0.5336   0.5362
  0.5427   0.5488   0.5675   0.5798   0.5956   0.6124   0.6184   0.6392
  0.6465   0.6535   0.6659   0.6830   0.7019   0.7072   0.7291   0.7519
  0.7713   0.7783   0.7916   0.8111   0.8189   0.8253   0.8415   0.8516
  0.8589   0.8686   0.8776   0.9019   0.9161   0.9594   0.9653   0.9774
  1.0179   1.0466   1.0579   1.0673   1.0847   1.1016   1.1037   1.1167
  1.1249   1.1646   1.2050   1.2236   1.2394   1.3150   1.3391   1.3899
  1.4046   1.4217   1.4414   1.4720   1.5189   1.5454   1.6184   1.6309
  1.6597   1.6847   1.7300   1.7634   1.8133   1.8394   1.8472   1.8682
  1.8856   1.8981   1.9061   1.9411   1.9576   1.9820   2.0075   2.0479
  2.0814   2.0965   2.1520   2.1545   2.1823   2.2220   2.2442   2.2727
  2.2981   2.3348   2.3634   2.3774   2.4066   2.4387   2.4492   2.4891
  2.5264   2.5538   2.5781   2.6046   2.6230   2.6364   2.6645   2.7008
  2.7521   2.7831   2.8208   2.8555   2.8613   2.8876   2.9130   2.9325
  3.0269   3.0956   3.1141   3.1195   3.1427   3.1756   3.1992   3.2126
  3.2346   3.2622   3.2775   3.2900   3.3256   3.3598   3.3984   3.4038
  3.4378   3.4841   3.4932   3.5563   3.5818   3.5974   3.6396   3.7104
  3.7761   3.8501   3.9091   3.9485   4.0226   4.0996   4.1348   4.1853
  4.2610   4.2765   4.3282   4.3320   4.3456   4.4695   4.5290   4.5693
  4.6355   4.8035   4.8247   4.8403   4.8966   4.9673   4.9811   5.0158
  5.0755   5.0860   5.1006   5.1377   5.1621   5.1847   5.2425   5.3128
  5.3403   5.3651   5.3985   5.4171   5.4299   5.4791   5.5437   5.6267
  5.6699   5.7460   5.7785   5.8577   6.0764   6.1421   6.3380   6.4226
 22.6032  23.5629  32.3023  32.4176  32.7846
 --------------------------------------------------------------
 
          Ground-State Mulliken Net Atomic Charges

     Atom                 Charge (a.u.)
  ----------------------------------------
      1 C                    -0.796633
      2 C                     0.562476
      3 N                    -0.279638
      4 N                    -0.100322
      5 N                    -0.231540
      6 H                     0.209450
      7 H                     0.197783
      8 H                     0.248783
      9 H                     0.159031
     10 H                     0.206593
     11 H                     0.294422
     12 H                     0.262594
     13 H                     0.267001
  ----------------------------------------
  Sum of atomic charges =     1.000000

 -----------------------------------------------------------------
                    Cartesian Multipole Moments
 -----------------------------------------------------------------
    Charge (ESU x 10^10)
                 4.8032
    Dipole Moment (Debye)
         X       1.5442      Y      -5.0368      Z       7.0574
       Tot       8.8068
    Quadrupole Moments (Debye-Ang)
        XX     -29.8701     XY      -6.7241     YY     -11.8684
        XZ       0.4485     YZ      -6.2976     ZZ      -4.3872
    Octopole Moments (Debye-Ang^2)
       XXX     -37.1888    XXY      35.3179    XYY       3.0709
       YYY      74.6857    XXZ     -38.6238    XYZ      -8.0232
       YYZ     -14.0932    XZZ      -9.3655    YZZ      15.1394
       ZZZ     -27.1126
    Hexadecapole Moments (Debye-Ang^3)
      XXXX     -93.6402   XXXY      79.8251   XXYY     -91.3568
      XYYY      36.5774   YYYY    -424.2404   XXXZ     -24.4895
      XXYZ      30.4331   XYYZ      11.8960   YYYZ      45.7230
      XXZZ    -104.9652   XYZZ       4.9947   YYZZ    -110.2270
      XZZZ     -22.1237   YZZZ      21.7502   ZZZZ    -227.0418
 -----------------------------------------------------------------
Archival summary:
1\1\nid00544\SP\ProcedureUnspecified\BasisUnspecified\328(1+,1)\meili\SunSep2613:54:372021SunSep2613:54:372021\0\\#,ProcedureUnspecified,BasisUnspecified,\\1,1\C\N,1,1.32366\H,2,1.00594,1,120.672\H,2,1.01597,1,117.324,3,176.938,0\N,1,1.32946,2,119.763,3,7.75808,0\H,5,1.02507,1,116.906,2,-178.651,0\N,1,1.33368,2,120.043,3,-176.081,0\H,7,1.00897,1,121.455,2,5.6911,0\H,7,1.02417,1,118.073,2,-174.956,0\C,5,1.48338,1,126.145,2,3.69993,0\H,10,1.09233,5,110.614,1,-43.3502,0\H,10,1.09254,5,107.361,1,-160.827,0\H,10,1.1,5,112.18,1,80.2565,0\\\@

 Total job time:  14216.43s(wall), 28184.82s(cpu) 
 Sun Sep 26 13:54:39 2021

        *************************************************************
        *                                                           *
        *  Thank you very much for using Q-Chem.  Have a nice day.  *
        *                                                           *
        *************************************************************


Done Job For Fragment 1
calling putenv with: QCSCRATCH=/global/cscratch1/sd/meili 
calling putenv with: QCLOCALSCR=/tmp 
calling putenv with: QCTHREADS=32 
Doing General SCFMI
 Exchange:     0.1670 Hartree-Fock + 1.0000 wB97X-V + LR-HF
 Correlation:  1.0000 wB97X-V
 Using Euler-Maclaurin-Lebedev (99,590) quadrature formula
 Nonlocal Correlation:  VV10 with C = 0.0100 and b = 6.00 and scale = 1.00000
 Grid used for NLC:  SG-1 standard quadrature
performing fock build before subrot guess so that all methods have access
Printing subrot_rss_gen Method Specification:
Occupied Subspace Method is 0
Virtual Subspace Method is 0
Energy of the unrelaxed supersystem initial determinant -473.794613067078
performing fock build before subrot guess so that all methods have access
Printing subrot_rss_gen Method Specification:
Occupied Subspace Method is 0
Virtual Subspace Method is 0
Energy of the unrelaxed supersystem initial determinant w/ solvent -473.836870977017
write pseudocanon occs and virts to disk
write pseudocanon orbital energies to disk
Tolerance of ortho_decomp_scf: 1.00e-06
GDM subspace size: 20
Beginning the Orthogonal Decomposition of the Initial Supersystem Wavefunction
    1    -473.5204014135      1.16e-01     ortho_decomp Preconditoned Steepest Descent
    2    -473.5434706151      3.48e-03     ortho_decomp BFGS Step
    3    -473.5435771837      2.96e-04     ortho_decomp BFGS Step
    4    -473.5435773845      1.35e-05     ortho_decomp BFGS Step
    5    -473.5435773852      5.17e-07     ortho_decomp 00000 Convergence criterion met
 Hartree-Fock
 Hartree-Fock
 Hartree-Fock
Doing General SCFMI
 Exchange:     0.1670 Hartree-Fock + 1.0000 wB97X-V + LR-HF
 Correlation:  1.0000 wB97X-V
 Using Euler-Maclaurin-Lebedev (99,590) quadrature formula
 Nonlocal Correlation:  VV10 with C = 0.0100 and b = 6.00 and scale = 1.00000
 Grid used for NLC:  SG-1 standard quadrature
performing fock build at end of subrot_r(subrot) constructor so that all methods have access
<S^2> of initial wavefunction before polarization iterations 0.0000000000
Beginning iterations for the determination of the polarized wavefunction
Energy prior to optimization (guess energy) = -473.836870977017
Begin Timing: Total SCF Calculation
begin iterations for algorithm: DIIS         
the SCF tolerance is set to 1.00e-08
    1    -473.8368709770      3.84e-04     00000 
    2    -473.8447796395      1.35e-04     00000 
    3    -473.8455515562      8.47e-05     00000 
    4    -473.8457791156      2.66e-05     00000 
    5    -473.8458134527      1.04e-05     00000 
    6    -473.8458204310      5.11e-06     00000 
    7    -473.8458217463      2.42e-06     00000 
    8    -473.8458219913      1.11e-06     00000 
    9    -473.8458220426      3.42e-07     00000 
   10    -473.8458220461      1.54e-07     00000 
   11    -473.8458220470      4.54e-08     00000 
   12    -473.8458220471      2.58e-08     00000 
   13    -473.8458220471      9.38e-09     00000 Convergence criterion met
write pseudocanon occs and virts to disk
write pseudocanon orbital energies to disk
Timing for Total SCF: 3183.00s (wall), 6325.09s (cpu)
<S^2> of polarized wavefunction after polarization iterations 0.0000000000
relaxing scfmi constraint to allow all rotations in the entire AO span
Doing General SCFMI
 Exchange:     0.1670 Hartree-Fock + 1.0000 wB97X-V + LR-HF
 Correlation:  1.0000 wB97X-V
 Using Euler-Maclaurin-Lebedev (99,590) quadrature formula
 Nonlocal Correlation:  VV10 with C = 0.0100 and b = 6.00 and scale = 1.00000
 Grid used for NLC:  SG-1 standard quadrature
performing fock build at end of subrot_r(subrot) constructor so that all methods have access
<S^2> of polarized wavefunction before ct-allowed iterations 0.0000000000
Beginning iterations for the determination of the CT-Allowed wavefunction
Energy prior to optimization (guess energy) = -473.845822047117
Begin Timing: Total SCF Calculation
begin iterations for algorithm: DIIS         
the SCF tolerance is set to 1.00e-08
    1    -473.8458220471      3.12e-04     00000 
    2    -473.8576156006      5.56e-05     00000 
    3    -473.8581595774      2.84e-05     00000 
    4    -473.8582165501      1.10e-05     00000 
    5    -473.8582285147      3.09e-06     00000 
    6    -473.8582294914      1.00e-06     00000 
    7    -473.8582296231      5.95e-07     00000 
    8    -473.8582296551      1.07e-07     00000 
    9    -473.8582296571      4.48e-08     00000 
   10    -473.8582296574      1.52e-08     00000 
   11    -473.8582296575      5.06e-09     00000 Convergence criterion met
write pseudocanon occs and virts to disk
write pseudocanon orbital energies to disk
Timing for Total SCF: 2683.00s (wall), 5328.38s (cpu)
<S^2> of ct_allowed wavefunction after ct-allowed iterations 0.0000000000

================================
        Results of EDA2         
================================
Basic EDA Quantities
--------------------
Fragment Energies (Ha):
1 -228.6424298732
2 -245.1800569015
--------------------
  E_prp (kJ/mol) = -0.0000
  E_sol (kJ/mol) = 369.5926
  E_frz (kJ/mol) = -407.3587
  E_pol (kJ/mol) = -23.5013
  E_vct (kJ/mol) = -32.5766
  E_int (kJ/mol) = -93.8441
--------------------


Initial Wavefunction Decomposition
--------------------
  --------------------
  Orthogonal Fragment Subspace Decomposition:
  --------------------
     E_elec   (ELEC)   (kJ/mol) = -589.3368
     E_pauli  (PAULI)  (kJ/mol) = 208.4936
     E_disp   (DISP)   (kJ/mol) = -26.5155
     --------------------
     Terms summing to E_pauli:
     --------------------
        E_kep_pauli       (kJ/mol) = 251.7433
        E_disp_free_pauli (kJ/mol) = -43.2497
  --------------------
  Classical Frozen Decomposition:
  --------------------
     E_cls_elec  (CLS ELEC)  (kJ/mol) = -516.4358
     E_cls_pauli (CLS PAULI) (kJ/mol) = 109.0770
    [E_mod_pauli (MOD PAULI) (kJ/mol) = 135.5925 (CLS PAULI - DISP from orthogonal decomposition) ]
  --------------------
--------------------

Simplified EDA Summary (kJ/mol)
--------------------
 PREPARATION     -0.0000
 SOLVATION       369.5926
 FROZEN          -380.8433      (does not include dispersion)
[PAULI           208.4936]     (if this is negligible, then frozen describes electrostatics)
 DISPERSION      -26.5155
 POLARIZATION    -23.5013
 CHARGE TRANSFER -32.5766
 TOTAL           -93.8441     (PRP + SOL + FRZ + DISP + POL + CT)
--------------------
 
 --------------------------------------------------------------
 
                    Orbital Energies (a.u.)
 --------------------------------------------------------------
 
 Alpha MOs
 -- Occupied --
-19.1482 -19.1476 -14.4600 -14.4451 -14.4424 -10.4254 -10.3500 -10.3192
-10.2507  -1.1713  -1.1599  -1.0609  -1.0499  -1.0424  -0.8585  -0.8400
 -0.7656  -0.7248  -0.6911  -0.6329  -0.6235  -0.5991  -0.5935  -0.5713
 -0.5427  -0.5406  -0.5359  -0.5319  -0.5159  -0.4799  -0.4608  -0.4048
 -0.3763  -0.3552  -0.3508  -0.3377
 -- Virtual --
  0.0518   0.0722   0.0767   0.0888   0.0975   0.1014   0.1095   0.1144
  0.1241   0.1291   0.1388   0.1433   0.1498   0.1541   0.1630   0.1652
  0.1758   0.1822   0.1883   0.1988   0.2019   0.2108   0.2160   0.2247
  0.2345   0.2380   0.2453   0.2520   0.2547   0.2588   0.2620   0.2759
  0.2801   0.2810   0.2858   0.2976   0.3037   0.3079   0.3124   0.3148
  0.3183   0.3237   0.3295   0.3345   0.3401   0.3458   0.3489   0.3531
  0.3570   0.3598   0.3653   0.3704   0.3775   0.3789   0.3874   0.3948
  0.3977   0.4014   0.4061   0.4103   0.4129   0.4211   0.4344   0.4380
  0.4461   0.4492   0.4542   0.4620   0.4659   0.4716   0.4759   0.4826
  0.4892   0.4916   0.4957   0.4994   0.5036   0.5053   0.5105   0.5252
  0.5303   0.5354   0.5391   0.5447   0.5547   0.5631   0.5666   0.5717
  0.5765   0.5844   0.5912   0.5994   0.6027   0.6081   0.6237   0.6264
  0.6335   0.6393   0.6529   0.6617   0.6676   0.6744   0.6823   0.6834
  0.6949   0.6961   0.7072   0.7092   0.7146   0.7244   0.7318   0.7392
  0.7522   0.7574   0.7709   0.7785   0.7815   0.7887   0.7975   0.8063
  0.8078   0.8151   0.8315   0.8337   0.8414   0.8459   0.8497   0.8560
  0.8657   0.8711   0.8791   0.8865   0.9018   0.9124   0.9241   0.9278
  0.9382   0.9560   0.9634   0.9840   0.9968   1.0020   1.0110   1.0286
  1.0451   1.0500   1.0663   1.0688   1.0805   1.0903   1.1016   1.1230
  1.1343   1.1414   1.1462   1.1601   1.1667   1.1823   1.1862   1.2020
  1.2155   1.2349   1.2526   1.2701   1.2775   1.3017   1.3166   1.3213
  1.3312   1.3460   1.3655   1.3793   1.3970   1.4076   1.4260   1.4367
  1.4698   1.4914   1.5072   1.5279   1.5574   1.5967   1.6432   1.6501
  1.6640   1.6809   1.6940   1.7169   1.7486   1.7613   1.7722   1.8401
  1.8701   1.8746   1.8755   1.8896   1.9021   1.9180   1.9276   1.9365
  1.9374   1.9527   1.9565   1.9714   1.9790   1.9896   2.0077   2.0164
  2.0330   2.0459   2.0702   2.0823   2.1065   2.1261   2.1429   2.1541
  2.1790   2.2001   2.2125   2.2260   2.2359   2.2664   2.2737   2.2818
  2.2963   2.3263   2.3455   2.3485   2.3711   2.4140   2.4270   2.4533
  2.4566   2.4830   2.4899   2.5039   2.5249   2.5504   2.5576   2.5687
  2.5901   2.5981   2.6339   2.6391   2.6580   2.6732   2.6793   2.6935
  2.7002   2.7263   2.7302   2.7596   2.7887   2.8024   2.8456   2.8618
  2.8710   2.8765   2.9089   2.9198   2.9344   2.9559   2.9855   3.0010
  3.0063   3.0484   3.1028   3.1266   3.1449   3.1616   3.1746   3.1769
  3.2041   3.2321   3.2405   3.2493   3.2628   3.2703   3.2918   3.2984
  3.3182   3.3230   3.3326   3.3567   3.3609   3.3742   3.3927   3.3949
  3.4166   3.4328   3.4407   3.4537   3.4735   3.4951   3.5228   3.5275
  3.5446   3.5893   3.6025   3.6100   3.6498   3.6577   3.6652   3.6818
  3.6985   3.7305   3.7475   3.7564   3.7765   3.8124   3.8423   3.9011
  3.9614   3.9756   3.9903   4.0584   4.0685   4.0963   4.1587   4.1881
  4.2256   4.2361   4.3115   4.3180   4.3488   4.3680   4.3766   4.3857
  4.5045   4.5668   4.5928   4.5976   4.6140   4.6644   4.6744   4.8245
  4.8387   4.8528   4.8762   4.8971   4.9579   5.0011   5.0284   5.0422
  5.0642   5.1266   5.1320   5.1503   5.1887   5.2055   5.2209   5.3001
  5.3245   5.3449   5.3555   5.3748   5.3830   5.3979   5.4050   5.4453
  5.4568   5.4887   5.5280   5.5452   5.5924   5.6899   5.7219   5.7392
  5.7545   5.8026   5.8060   5.8285   5.9143   6.0275   6.1302   6.1887
  6.2462   6.3266   6.3692   6.3956   6.4712   6.6416   6.6732   6.7322
  6.7611   6.8579   6.9809   6.9994   7.0427   7.2669   7.3613   7.4243
  7.4654  22.5973  22.6429  23.6333  23.7418  32.3780  32.5339  32.9735
 44.2815  44.4092
 --------------------------------------------------------------
 
          Ground-State Mulliken Net Atomic Charges

     Atom                 Charge (a.u.)
  ----------------------------------------
      1 C                    -0.749473
      2 C                     0.586221
      3 O                    -0.756164
      4 O                    -0.791936
      5 H                     0.207740
      6 H                     0.171546
      7 H                     0.217650
      8 C                    -0.850073
      9 C                     0.441663
     10 N                    -0.113037
     11 N                     0.119971
     12 N                    -0.211745
     13 H                     0.143583
     14 H                     0.208807
     15 H                     0.182508
     16 H                     0.154253
     17 H                     0.208642
     18 H                     0.312825
     19 H                     0.259384
     20 H                     0.257636
  ----------------------------------------
  Sum of atomic charges =     0.000000

 -----------------------------------------------------------------
                    Cartesian Multipole Moments
 -----------------------------------------------------------------
    Charge (ESU x 10^10)
                 0.0000
    Dipole Moment (Debye)
         X       1.9628      Y      -8.4145      Z       9.0133
       Tot      12.4858
    Quadrupole Moments (Debye-Ang)
        XX     -58.5521     XY      -2.4191     YY     -46.7039
        XZ       3.4219     YZ      -6.5631     ZZ     -37.3699
    Octopole Moments (Debye-Ang^2)
       XXX       3.9947    XXY      -9.5788    XYY      23.4603
       YYY     -54.9269    XXZ       2.8549    XYZ      -5.3142
       YYZ      19.6290    XZZ      -3.8708    YZZ     -19.5515
       ZZZ      97.9926
    Hexadecapole Moments (Debye-Ang^3)
      XXXX    -218.1807   XXXY     179.0163   XXYY    -210.7916
      XYYY     159.4731   YYYY   -1006.2989   XXXZ     -91.7963
      XXYZ     104.7269   XYYZ     -11.8811   YYYZ     260.8693
      XXZZ    -224.5129   XYZZ      32.9160   YYZZ    -291.1125
      XZZZ     -79.7684   YZZZ     251.6750   ZZZZ    -859.5128
 -----------------------------------------------------------------
Archival summary:
1\1\nid00544\SP\ProcedureUnspecified\BasisUnspecified\23411\meili\SunSep2616:35:302021SunSep2616:35:302021\0\\#,ProcedureUnspecified,BasisUnspecified,\\0,1\N\H,1,1.02507\C,1,1.32946,2,116.906\N,3,1.32366,1,119.763,2,-178.651,0\H,4,1.00594,3,120.672,1,7.75808,0\H,4,1.01597,3,117.324,1,-175.304,0\N,3,1.33368,1,120.082,2,5.19034,0\H,7,1.00897,3,121.455,1,-178.161,0\H,7,1.02417,3,118.073,1,1.19208,0\C,1,1.48338,2,116.91,3,177.872,0\H,10,1.09233,1,110.614,2,139,0\H,10,1.09254,1,107.361,2,21.5237,0\H,10,1.1,1,112.18,2,-97.3929,0\O,2,1.77916,1,172.45,3,154.46,0\C,14,1.25681,2,113.764,1,176.559,0\O,15,1.24513,14,122.892,2,19.5099,0\C,15,1.5342,14,118.365,2,-162.179,0\H,17,1.08986,15,109.645,14,30.7274,0\H,17,1.092,15,107.767,14,-85.7217,0\H,17,1.1,15,115.488,14,153.992,0\\\@

 Total job time:  28894.40s(wall), 19196.83s(cpu) 
 Sun Sep 26 16:35:32 2021

        *************************************************************
        *                                                           *
        *  Thank you very much for using Q-Chem.  Have a nice day.  *
        *                                                           *
        *************************************************************


