
Running Job 1 of 1 SSI-056PHE-152PHE-1_SMD_TZVPD.in
qchem SSI-056PHE-152PHE-1_SMD_TZVPD.in_8883.0 /tmp/qchem8883/ 0
/global/common/cori/software/qchem/5.2/exe/qcprog.exe_s SSI-056PHE-152PHE-1_SMD_TZVPD.in_8883.0 /tmp/qchem8883/
                  Welcome to Q-Chem
     A Quantum Leap Into The Future Of Chemistry


 Q-Chem 5.2, Q-Chem, Inc., Pleasanton, CA (2019)

 License issued to: National Energy Research Scientific Computing Center

 Yihan Shao,  Zhengting Gan,  E. Epifanovsky,  A. T. B. Gilbert,  M. Wormit,  
 J. Kussmann,  A. W. Lange,  A. Behn,  Jia Deng,  Xintian Feng,  D. Ghosh,  
 M. Goldey,  P. R. Horn,  L. D. Jacobson,  I. Kaliman,  T. Kus,  A. Landau,  
 Jie Liu,  E. I. Proynov,  R. M. Richard,  R. P. Steele,  E. J. Sundstrom,  
 H. L. Woodcock III,  P. M. Zimmerman,  D. Zuev,  B. Albrecht,  E. Alguire,  
 S. A. Baeppler,  D. Barton,  Z. Benda,  Y. A. Bernard,  E. J. Berquist,  
 K. B. Bravaya,  H. Burton,  D. Casanova,  Chun-Min Chang,  Yunqing Chen,  
 A. Chien,  K. D. Closser,  M. P. Coons,  S. Coriani,  S. Dasgupta,  
 A. L. Dempwolff,  M. Diedenhofen,  Hainam Do,  R. G. Edgar,  Po-Tung Fang,  
 S. Faraji,  S. Fatehi,  Qingguo Feng,  K. D. Fenk,  J. Fosso-Tande,  
 J. Gayvert,  Qinghui Ge,  A. Ghysels,  G. Gidofalvi,  J. Gomes,  
 J. Gonthier,  A. Gunina,  D. Hait,  M. W. D. Hanson-Heine,  
 P. H. P. Harbach,  A. W. Hauser,  M. F. Herbst,  J. E. Herr,  
 E. G. Hohenstein,  Z. C. Holden,  Kerwin Hui,  B. C. Huynh,  T.-C. Jagau,  
 Hyunjun Ji,  B. Kaduk,  K. Khistyaev,  Jaehoon Kim,  P. Klunzinger,  K. Koh,  
 D. Kosenkov,  L. Koulias,  T. Kowalczyk,  C. M. Krauter,  A. Kunitsa,  
 Ka Un Lao,  A. Laurent,  K. V. Lawler,  Joonho Lee,  D. Lefrancois,  
 S. Lehtola,  D. S. Levine,  Yi-Pei Li,  You-Sheng Lin,  Fenglai Liu,  
 E. Livshits,  A. Luenser,  P. Manohar,  E. Mansoor,  S. F. Manzer,  
 Shan-Ping Mao,  Yuezhi Mao,  N. Mardirossian,  A. V. Marenich,  
 T. Markovich,  L. A. Martinez-Martinez,  S. A. Maurer,  N. J. Mayhall,  
 S. C. McKenzie,  J.-M. Mewes,  P. Morgante,  A. F. Morrison,  
 J. W. Mullinax,  K. Nanda,  T. S. Nguyen-Beck,  R. Olivares-Amaya,  
 J. A. Parkhill,  Zheng Pei,  T. M. Perrine,  F. Plasser,  P. Pokhilko,  
 S. Prager,  A. Prociuk,  E. Ramos,  D. R. Rehn,  F. Rob,  M. Scheurer,  
 M. Schneider,  N. Sergueev,  S. M. Sharada,  S. Sharma,  D. W. Small,  
 T. Stauch,  T. Stein,  Yu-Chuan Su,  A. J. W. Thom,  A. Tkatchenko,  
 T. Tsuchimochi,  N. M. Tubman,  L. Vogt,  M. L. Vidal,  O. Vydrov,  
 M. A. Watson,  J. Wenzel,  M. de Wergifosse,  T. A. Wesolowski,  A. White,  
 J. Witte,  A. Yamada,  Jun Yang,  K. Yao,  S. Yeganeh,  S. R. Yost,  
 Zhi-Qiang You,  A. Zech,  Igor Ying Zhang,  Xing Zhang,  Yan Zhao,  
 Ying Zhu,  B. R. Brooks,  G. K. L. Chan,  C. J. Cramer,  M. S. Gordon,  
 W. J. Hehre,  A. Klamt,  M. W. Schmidt,  C. D. Sherrill,  D. G. Truhlar,  
 A. Aspuru-Guzik,  R. Baer,  A. T. Bell,  N. A. Besley,  Jeng-Da Chai,  
 A. E. DePrince, III,  R. A. DiStasio Jr.,  A. Dreuw,  B. D. Dunietz,  
 T. R. Furlani,  Chao-Ping Hsu,  Yousung Jung,  Jing Kong,  D. S. Lambrecht,  
 WanZhen Liang,  C. Ochsenfeld,  V. A. Rassolov,  L. V. Slipchenko,  
 J. E. Subotnik,  T. Van Voorhis,  J. M. Herbert,  A. I. Krylov,  
 P. M. W. Gill,  M. Head-Gordon

 Contributors to earlier versions of Q-Chem not listed above: 
 R. D. Adamson,  B. Austin,  J. Baker,  G. J. O. Beran,  K. Brandhorst,  
 S. T. Brown,  E. F. C. Byrd,  A. K. Chakraborty,  C.-L. Cheng,  
 Siu Hung Chien,  D. M. Chipman,  D. L. Crittenden,  H. Dachsel,  
 R. J. Doerksen,  A. D. Dutoi,  L. Fusti-Molnar,  W. A. Goddard III,  
 A. Golubeva-Zadorozhnaya,  S. R. Gwaltney,  G. Hawkins,  A. Heyden,  
 S. Hirata,  G. Kedziora,  F. J. Keil,  C. Kelley,  Jihan Kim,  R. A. King,  
 R. Z. Khaliullin,  P. P. Korambath,  W. Kurlancheek,  A. M. Lee,  M. S. Lee,  
 S. V. Levchenko,  Ching Yeh Lin,  D. Liotard,  R. C. Lochan,  I. Lotan,  
 P. E. Maslen,  N. Nair,  D. P. O'Neill,  D. Neuhauser,  E. Neuscamman,  
 C. M. Oana,  R. Olson,  B. Peters,  R. Peverati,  P. A. Pieniazek,  
 Y. M. Rhee,  J. Ritchie,  M. A. Rohrdanz,  E. Rosta,  N. J. Russ,  
 H. F. Schaefer III,  N. E. Schultz,  N. Shenvi,  A. C. Simmonett,  A. Sodt,  
 D. Stuck,  K. S. Thanthiriwatte,  V. Vanovschi,  Tao Wang,  A. Warshel,  
 C. F. Williams,  Q. Wu,  X. Xu,  W. Zhang

 Please cite Q-Chem as follows:
 Y. Shao et al., Mol. Phys. 113, 184-215 (2015)
 DOI: 10.1080/00268976.2014.952696

 Q-Chem 5.2.0 for Intel X86 EM64T Linux

 Parts of Q-Chem use Armadillo 8.300.2 (Tropical Shenanigans).
 http://arma.sourceforge.net/

 Q-Chem begins on Sun Sep 26 09:00:34 2021  

Host: cori01
0

     Scratch files written to /tmp/qchem8883//
 May1019 |scratch|qcdevops|jenkins|workspace|build_RNUM -1
Processing $rem in /global/common/cori/software/qchem/5.2/config/preferences:
	 MEM_TOTAL  96000 
NAlpha2: 100
NElect   100
Mult     1
Symmetry turned off for PCM/SM12/SMD calculation

 Q-Chem warning in module libgen/rem_setup.C, line 2803:

 Neither GIA nor STOLL is specified by user. Use STOLL as the default


Checking the input file for inconsistencies... 	...done.

--------------------------------------------------------------
User input:
--------------------------------------------------------------
$comment
SSI-056PHE-152PHE-1.pdb
$end

$molecule
0 1
--
0 1
C   -3.391339374839    2.573989491718    2.620679999707
C   -2.108339374839    0.437989491718   -0.244320000293
C   -2.220339374839    1.317989491718   -1.307320000293
C   -2.488339374839    0.842989491718    1.033679999707
C   -3.007339374839    2.112989491718    1.242679999707
C   -2.725339374839    2.590989491718   -1.106320000293
C   -3.111339374839    2.991989491718    0.166679999707
H   -1.733339374839   -0.561010508282   -0.404320000293
H   -1.933339374839    1.006989491718   -2.298320000293
H   -2.392339374839    0.154989491718    1.861679999707
H   -2.816339374839    3.273989491718   -1.941320000293
H   -3.381339374839    1.744989491718    3.319679999707
H   -4.406339374839    2.956989491718    2.574679999707
H   -3.503339374839    3.988989491718    0.316679999707
H   -2.716106574839    3.345579491718    3.019059999707
--
0 1
C    5.123660625161   -1.760010508282    0.170679999707
C    1.505660625161   -0.713010508282   -0.424320000293
C    0.921660625161   -1.917010508282   -0.816320000293
C    2.869660625161   -0.665010508282   -0.112320000293
C    3.653660625161   -1.819010508282   -0.161320000293
C    1.699660625161   -3.074010508282   -0.874320000293
C    3.060660625161   -3.025010508282   -0.546320000293
H    0.908660625161    0.187989491718   -0.377320000293
H   -0.125339374839   -1.959010508282   -1.077320000293
H    3.314660625161    0.276989491718    0.176679999707
H    1.254660625161   -4.018010508282   -1.153320000293
H    5.301660625161   -2.358010508282    1.061679999707
H    5.404660625161   -0.730010508282    0.400679999707
H    3.641660625161   -3.935010508282   -0.578320000293
H    5.774584625161   -2.136370508282   -0.632220000293
$end

$rem
JOBTYPE			EDA
EDA2			1
method			wB97X-V
BASIS			def2-TZVPD
XC_GRID			000099000590
NL_GRID			1
UNRESTRICTED		FALSE
MAX_SCF_CYCLES		200
SYMMETRY		FALSE
SYM_IGNORE		TRUE
MEM_STATIC		2000
BASIS_LIN_DEP_THRESH 	6
THRESH 			14
SCF_CONVERGENCE 	8
SCF_PRINT_FRGM 		TRUE
SOLVENT_METHOD          SMD
$end

$SMX
SOLVENT			WATER
$END
--------------------------------------------------------------
 ----------------------------------------------------------------
             Standard Nuclear Orientation (Angstroms)
    I     Atom           X                Y                Z
 ----------------------------------------------------------------
    1      C      -3.3913393748     2.5739894917     2.6206799997
    2      C      -2.1083393748     0.4379894917    -0.2443200003
    3      C      -2.2203393748     1.3179894917    -1.3073200003
    4      C      -2.4883393748     0.8429894917     1.0336799997
    5      C      -3.0073393748     2.1129894917     1.2426799997
    6      C      -2.7253393748     2.5909894917    -1.1063200003
    7      C      -3.1113393748     2.9919894917     0.1666799997
    8      H      -1.7333393748    -0.5610105083    -0.4043200003
    9      H      -1.9333393748     1.0069894917    -2.2983200003
   10      H      -2.3923393748     0.1549894917     1.8616799997
   11      H      -2.8163393748     3.2739894917    -1.9413200003
   12      H      -3.3813393748     1.7449894917     3.3196799997
   13      H      -4.4063393748     2.9569894917     2.5746799997
   14      H      -3.5033393748     3.9889894917     0.3166799997
   15      H      -2.7161065748     3.3455794917     3.0190599997
   16      C       5.1236606252    -1.7600105083     0.1706799997
   17      C       1.5056606252    -0.7130105083    -0.4243200003
   18      C       0.9216606252    -1.9170105083    -0.8163200003
   19      C       2.8696606252    -0.6650105083    -0.1123200003
   20      C       3.6536606252    -1.8190105083    -0.1613200003
   21      C       1.6996606252    -3.0740105083    -0.8743200003
   22      C       3.0606606252    -3.0250105083    -0.5463200003
   23      H       0.9086606252     0.1879894917    -0.3773200003
   24      H      -0.1253393748    -1.9590105083    -1.0773200003
   25      H       3.3146606252     0.2769894917     0.1766799997
   26      H       1.2546606252    -4.0180105083    -1.1533200003
   27      H       5.3016606252    -2.3580105083     1.0616799997
   28      H       5.4046606252    -0.7300105083     0.4006799997
   29      H       3.6416606252    -3.9350105083    -0.5783200003
   30      H       5.7745846252    -2.1363705083    -0.6322200003
 ----------------------------------------------------------------
 Nuclear Repulsion Energy =         741.80161810 hartrees
 There are       50 alpha and       50 beta electrons
 Requested basis set is def2-TZVPD
 There are 262 shells and 662 basis functions

 Total QAlloc Memory Limit  96000 MB
 Mega-Array Size      1956 MB
 MEM_STATIC part      2000 MB
 
 Citation of the SMD model:
 Marenich, A.V.; Cramer, C.J.; Truhlar, D.G.
 J. Phys. Chem. B 2009, 113, 6378-6396.
 iSolventCode=           1
 Solvent: water                                                           
 
 vradii
            1           2           3           4           5           6
    1   1.8500000   1.8500000   1.8500000   1.8500000   1.8500000   1.8500000
            7           8           9          10          11          12
    1   1.8500000   1.2000000   1.2000000   1.2000000   1.2000000   1.2000000
           13          14          15          16          17          18
    1   1.2000000   1.2000000   1.2000000   1.8500000   1.8500000   1.8500000
           19          20          21          22          23          24
    1   1.8500000   1.8500000   1.8500000   1.8500000   1.2000000   1.2000000
           25          26          27          28          29          30
    1   1.2000000   1.2000000   1.2000000   1.2000000   1.2000000   1.2000000
 Changing PCM_VDW_RADII to SMD_RADIUS
 Discretize the solute cavity surface with Lebedev spheres
	Using 110 Lebedev grid points for each H atom
	Using 194 Lebedev grid points for other atoms
	Atomic van der Waals radii will be scaled by 1.20
 Remove points where switching function is < 1.0e-08
 Keep 2160 surface tesserae and discard 2316 interior tesserae
 Molecular Surface Area = 262.356 Angst**2
 A cutoff of  1.0D-14 yielded  27627 shell pairs
 There are    176639 function pairs (    222349 Cartesian)
 Smallest overlap matrix eigenvalue = 4.71E-07
 Linear dependence detected in AO basis
 Tighter screening thresholds may be required for diffuse basis sets
 Use S2THRESH > 14 and THRESH = 14 in case of SCF convergence issues
 Number of orthogonalized atomic orbitals = 659
 Maximum deviation from orthogonality = 1.606E-10

 Scale SEOQF with 1.000000e-02/1.000000e-01/1.000000e-01

 Standard Electronic Orientation quadrupole field applied
 Nucleus-field energy     =     0.0000000214 hartrees

 -----------------------------------------------------------------------
  General SCF calculation program by
  Eric Jon Sundstrom, Paul Horn, Yuezhi Mao, Dmitri Zuev, Alec White,
  David Stuck, Shaama M.S., Shane Yost, Joonho Lee, David Small,
  Daniel Levine, Susi Lehtola, Hugh Burton, Evgeny Epifanovsky
 -----------------------------------------------------------------------
================================================================
                 ALMO-EDA with the EDA2 driver                  
================================================================
 The second-generation ALMO-EDA (for DFT):                      
 P. R. Horn, Y. Mao and M. Head-Gordon, PCCP, 18, 23067 (2016)  
 Decomposition of the frozen energy:                            
 P. R. Horn, Y. Mao and M. Head-Gordon, JCP, 144, 114107 (2016) 
 FERF model for polarization:                                   
 P. R. Horn and M. Head-Gordon, JCP, 143, 114111 (2015)         
Using eda2 option set 1
Option set summary: Frozen orbital wavefunction, initial wavefunction decomposition, and nDQ polarization.
--------------------------------
Printing EDA Options
--------------------------------
eda_child_super_basis      0
fragmo_guess_mode          0
child_mp                   1
child_mp_orders            232
cls_elec                   1
cls_disp                   0
scfmi_mode                 1
scfmi_occs                 0
scfmi_virts                0
frz_relax                  0
frz_relax_method           0
dc_pen_start               0
dc_pen_conv                0
dc_pen_increment           0
dc_pen_steps               0
dc_pen_thresh_factor       0
dc_pen_pre_newton_thresh   0
frz_ortho_decomp           1
frz_ortho_decomp_conv      6
frgm_method                2
scfmi_freeze_ss            0
separate_rehyb             0
plot_diff_den              0
eda_nocv                   0
eda_vct_relax              1
disp_free_x                0
disp_free_c                0
eda_bsse                   0
eda_pct_a                  0
eda_covp                   0
--------------------------------
Attempting to make child job directory: /tmp/qchem8883//Frg1/
Attempting to make child job directory: /tmp/qchem8883//Frg2/
Creating input file /tmp/qchem8883/Frg1.input
using default PutDataFrgm: nothing
calling putenv with: QCSCRATCH=/tmp/qchem8883/ 
calling putenv with: QCLOCALSCR=/tmp/qchem8883/ 
Spawning Job For Fragment 0
                  Welcome to Q-Chem
     A Quantum Leap Into The Future Of Chemistry


 Q-Chem 5.2, Q-Chem, Inc., Pleasanton, CA (2019)

 License issued to: National Energy Research Scientific Computing Center

 Yihan Shao,  Zhengting Gan,  E. Epifanovsky,  A. T. B. Gilbert,  M. Wormit,  
 J. Kussmann,  A. W. Lange,  A. Behn,  Jia Deng,  Xintian Feng,  D. Ghosh,  
 M. Goldey,  P. R. Horn,  L. D. Jacobson,  I. Kaliman,  T. Kus,  A. Landau,  
 Jie Liu,  E. I. Proynov,  R. M. Richard,  R. P. Steele,  E. J. Sundstrom,  
 H. L. Woodcock III,  P. M. Zimmerman,  D. Zuev,  B. Albrecht,  E. Alguire,  
 S. A. Baeppler,  D. Barton,  Z. Benda,  Y. A. Bernard,  E. J. Berquist,  
 K. B. Bravaya,  H. Burton,  D. Casanova,  Chun-Min Chang,  Yunqing Chen,  
 A. Chien,  K. D. Closser,  M. P. Coons,  S. Coriani,  S. Dasgupta,  
 A. L. Dempwolff,  M. Diedenhofen,  Hainam Do,  R. G. Edgar,  Po-Tung Fang,  
 S. Faraji,  S. Fatehi,  Qingguo Feng,  K. D. Fenk,  J. Fosso-Tande,  
 J. Gayvert,  Qinghui Ge,  A. Ghysels,  G. Gidofalvi,  J. Gomes,  
 J. Gonthier,  A. Gunina,  D. Hait,  M. W. D. Hanson-Heine,  
 P. H. P. Harbach,  A. W. Hauser,  M. F. Herbst,  J. E. Herr,  
 E. G. Hohenstein,  Z. C. Holden,  Kerwin Hui,  B. C. Huynh,  T.-C. Jagau,  
 Hyunjun Ji,  B. Kaduk,  K. Khistyaev,  Jaehoon Kim,  P. Klunzinger,  K. Koh,  
 D. Kosenkov,  L. Koulias,  T. Kowalczyk,  C. M. Krauter,  A. Kunitsa,  
 Ka Un Lao,  A. Laurent,  K. V. Lawler,  Joonho Lee,  D. Lefrancois,  
 S. Lehtola,  D. S. Levine,  Yi-Pei Li,  You-Sheng Lin,  Fenglai Liu,  
 E. Livshits,  A. Luenser,  P. Manohar,  E. Mansoor,  S. F. Manzer,  
 Shan-Ping Mao,  Yuezhi Mao,  N. Mardirossian,  A. V. Marenich,  
 T. Markovich,  L. A. Martinez-Martinez,  S. A. Maurer,  N. J. Mayhall,  
 S. C. McKenzie,  J.-M. Mewes,  P. Morgante,  A. F. Morrison,  
 J. W. Mullinax,  K. Nanda,  T. S. Nguyen-Beck,  R. Olivares-Amaya,  
 J. A. Parkhill,  Zheng Pei,  T. M. Perrine,  F. Plasser,  P. Pokhilko,  
 S. Prager,  A. Prociuk,  E. Ramos,  D. R. Rehn,  F. Rob,  M. Scheurer,  
 M. Schneider,  N. Sergueev,  S. M. Sharada,  S. Sharma,  D. W. Small,  
 T. Stauch,  T. Stein,  Yu-Chuan Su,  A. J. W. Thom,  A. Tkatchenko,  
 T. Tsuchimochi,  N. M. Tubman,  L. Vogt,  M. L. Vidal,  O. Vydrov,  
 M. A. Watson,  J. Wenzel,  M. de Wergifosse,  T. A. Wesolowski,  A. White,  
 J. Witte,  A. Yamada,  Jun Yang,  K. Yao,  S. Yeganeh,  S. R. Yost,  
 Zhi-Qiang You,  A. Zech,  Igor Ying Zhang,  Xing Zhang,  Yan Zhao,  
 Ying Zhu,  B. R. Brooks,  G. K. L. Chan,  C. J. Cramer,  M. S. Gordon,  
 W. J. Hehre,  A. Klamt,  M. W. Schmidt,  C. D. Sherrill,  D. G. Truhlar,  
 A. Aspuru-Guzik,  R. Baer,  A. T. Bell,  N. A. Besley,  Jeng-Da Chai,  
 A. E. DePrince, III,  R. A. DiStasio Jr.,  A. Dreuw,  B. D. Dunietz,  
 T. R. Furlani,  Chao-Ping Hsu,  Yousung Jung,  Jing Kong,  D. S. Lambrecht,  
 WanZhen Liang,  C. Ochsenfeld,  V. A. Rassolov,  L. V. Slipchenko,  
 J. E. Subotnik,  T. Van Voorhis,  J. M. Herbert,  A. I. Krylov,  
 P. M. W. Gill,  M. Head-Gordon

 Contributors to earlier versions of Q-Chem not listed above: 
 R. D. Adamson,  B. Austin,  J. Baker,  G. J. O. Beran,  K. Brandhorst,  
 S. T. Brown,  E. F. C. Byrd,  A. K. Chakraborty,  C.-L. Cheng,  
 Siu Hung Chien,  D. M. Chipman,  D. L. Crittenden,  H. Dachsel,  
 R. J. Doerksen,  A. D. Dutoi,  L. Fusti-Molnar,  W. A. Goddard III,  
 A. Golubeva-Zadorozhnaya,  S. R. Gwaltney,  G. Hawkins,  A. Heyden,  
 S. Hirata,  G. Kedziora,  F. J. Keil,  C. Kelley,  Jihan Kim,  R. A. King,  
 R. Z. Khaliullin,  P. P. Korambath,  W. Kurlancheek,  A. M. Lee,  M. S. Lee,  
 S. V. Levchenko,  Ching Yeh Lin,  D. Liotard,  R. C. Lochan,  I. Lotan,  
 P. E. Maslen,  N. Nair,  D. P. O'Neill,  D. Neuhauser,  E. Neuscamman,  
 C. M. Oana,  R. Olson,  B. Peters,  R. Peverati,  P. A. Pieniazek,  
 Y. M. Rhee,  J. Ritchie,  M. A. Rohrdanz,  E. Rosta,  N. J. Russ,  
 H. F. Schaefer III,  N. E. Schultz,  N. Shenvi,  A. C. Simmonett,  A. Sodt,  
 D. Stuck,  K. S. Thanthiriwatte,  V. Vanovschi,  Tao Wang,  A. Warshel,  
 C. F. Williams,  Q. Wu,  X. Xu,  W. Zhang

 Please cite Q-Chem as follows:
 Y. Shao et al., Mol. Phys. 113, 184-215 (2015)
 DOI: 10.1080/00268976.2014.952696

 Q-Chem 5.2.0 for Intel X86 EM64T Linux

 Parts of Q-Chem use Armadillo 8.300.2 (Tropical Shenanigans).
 http://arma.sourceforge.net/

 Q-Chem begins on Sun Sep 26 09:02:09 2021  

Host: cori01
0

     Scratch files written to /tmp/qchem8883//Frg1//
 May1019 |scratch|qcdevops|jenkins|workspace|build_RNUM -1
Processing $rem in /global/common/cori/software/qchem/5.2/config/preferences:
	 MEM_TOTAL  96000 
NAlpha2: 50
NElect   50
Mult     1
Symmetry turned off for PCM/SM12/SMD calculation

Checking the input file for inconsistencies... 	...done.

--------------------------------------------------------------
User input:
--------------------------------------------------------------
$molecule
0 1
 6	-3.3913393748	2.5739894917	2.6206799997
 6	-2.1083393748	0.4379894917	-0.2443200003
 6	-2.2203393748	1.3179894917	-1.3073200003
 6	-2.4883393748	0.8429894917	1.0336799997
 6	-3.0073393748	2.1129894917	1.2426799997
 6	-2.7253393748	2.5909894917	-1.1063200003
 6	-3.1113393748	2.9919894917	0.1666799997
 1	-1.7333393748	-0.5610105083	-0.4043200003
 1	-1.9333393748	1.0069894917	-2.2983200003
 1	-2.3923393748	0.1549894917	1.8616799997
 1	-2.8163393748	3.2739894917	-1.9413200003
 1	-3.3813393748	1.7449894917	3.3196799997
 1	-4.4063393748	2.9569894917	2.5746799997
 1	-3.5033393748	3.9889894917	0.3166799997
 1	-2.7161065748	3.3455794917	3.0190599997
$end
$rem
EDA2		1
METHOD		WB97X-V
BASIS		DEF2-TZVPD
XC_GRID		000099000590
NL_GRID		1
UNRESTRICTED		FALSE
MAX_SCF_CYCLES		200
SYMMETRY		FALSE
SYM_IGNORE		TRUE
BASIS_LIN_DEP_THRESH		6
THRESH		14
SCF_CONVERGENCE		8
SCF_PRINT_FRGM		TRUE
SOLVENT_METHOD		SMD
!required keywords
JOBTYPE		SP
SYM_IGNORE		TRUE
SUBSYSTEM		TRUE
GEN_SCFMAN		TRUE
CHILD_INSTRUCTION		2
SYM_IGNORE		TRUE
SCFMI		0
RI_K 0		
PARI_K 0		
MIN_PARI_K 0		
IARI_K 0		
OCC_RI_K 0		
PURECART		1111
MEM_STATIC		2000
MEM_TOTAL		96000
GUI		0
CHILD_MP		1
CHILD_MP_ORDERS		232
FRZ_RELAX		0
FRZ_RELAX_METHOD		0
EDA_CLS_ELEC		1
EDA_CLS_DISP		0
FRZ_ORTHO_DECOMP		1
EDA2		FALSE
FRGM_METHOD		FALSE
CIS_N_ROOTS  0
LOCAL_CIS    0
CIS_RLX_DNS  1
$end
$smx
SOLVENT			WATER
$end
--------------------------------------------------------------
 ----------------------------------------------------------------
             Standard Nuclear Orientation (Angstroms)
    I     Atom           X                Y                Z
 ----------------------------------------------------------------
    1      C      -3.3913393748     2.5739894917     2.6206799997
    2      C      -2.1083393748     0.4379894917    -0.2443200003
    3      C      -2.2203393748     1.3179894917    -1.3073200003
    4      C      -2.4883393748     0.8429894917     1.0336799997
    5      C      -3.0073393748     2.1129894917     1.2426799997
    6      C      -2.7253393748     2.5909894917    -1.1063200003
    7      C      -3.1113393748     2.9919894917     0.1666799997
    8      H      -1.7333393748    -0.5610105083    -0.4043200003
    9      H      -1.9333393748     1.0069894917    -2.2983200003
   10      H      -2.3923393748     0.1549894917     1.8616799997
   11      H      -2.8163393748     3.2739894917    -1.9413200003
   12      H      -3.3813393748     1.7449894917     3.3196799997
   13      H      -4.4063393748     2.9569894917     2.5746799997
   14      H      -3.5033393748     3.9889894917     0.3166799997
   15      H      -2.7161065748     3.3455794917     3.0190599997
 ----------------------------------------------------------------
 Nuclear Repulsion Energy =         270.48913713 hartrees
 There are       25 alpha and       25 beta electrons
 Requested basis set is def2-TZVPD
 There are 131 shells and 331 basis functions

 Total QAlloc Memory Limit  96000 MB
 Mega-Array Size      1956 MB
 MEM_STATIC part      2000 MB
 
 Citation of the SMD model:
 Marenich, A.V.; Cramer, C.J.; Truhlar, D.G.
 J. Phys. Chem. B 2009, 113, 6378-6396.
 iSolventCode=           1
 Solvent: water                                                           
 
 vradii
            1           2           3           4           5           6
    1   1.8500000   1.8500000   1.8500000   1.8500000   1.8500000   1.8500000
            7           8           9          10          11          12
    1   1.8500000   1.2000000   1.2000000   1.2000000   1.2000000   1.2000000
           13          14          15
    1   1.2000000   1.2000000   1.2000000
 Changing PCM_VDW_RADII to SMD_RADIUS
 Discretize the solute cavity surface with Lebedev spheres
	Using 110 Lebedev grid points for each H atom
	Using 194 Lebedev grid points for other atoms
	Atomic van der Waals radii will be scaled by 1.20
 Remove points where switching function is < 1.0e-08
 Keep 1087 surface tesserae and discard 1151 interior tesserae
 Molecular Surface Area = 131.929 Angst**2

                       Distance Matrix (Angstroms)
             C (  1)   C (  2)   C (  3)   C (  4)   C (  5)   C (  6)
   C (  2)  3.796947
   C (  3)  4.286952  1.384526
   C (  4)  2.516016  1.393452  2.403691
   C (  5)  1.502951  2.413503  2.784581  1.387783
   C (  6)  3.786076  2.399821  1.384180  2.773314  2.413671
   C (  7)  2.505043  2.774499  2.401840  2.399587  1.393281  1.389362
   H (  8)  4.661310  1.078993  2.140845  2.146878  3.389094  3.378161
   H (  9)  5.364496  2.138528  1.077576  3.381885  3.862045  2.134756
   H ( 10)  2.725003  2.143824  3.380046  1.080807  2.143630  3.854090
   H ( 11)  4.651072  3.379936  2.140819  3.855901  3.394445  1.082587
   H ( 12)  1.084409  4.003857  4.789507  2.614737  2.142249  4.553628
   H ( 13)  1.085831  4.424130  4.747088  3.243825  2.108023  4.063186
   H ( 14)  2.706138  3.856209  3.379010  3.382548  2.150086  2.141172
   H ( 15)  1.099999  4.412835  4.803589  3.202588  2.181655  4.193835
             C (  7)   H (  8)   H (  9)   H ( 10)   H ( 11)   H ( 12)
   H (  8)  3.853406
   H (  9)  3.377001  2.466954
   H ( 10)  3.382093  2.466109  4.271087
   H ( 11)  2.147141  4.271122  2.458948  4.936674
   H ( 12)  3.401370  4.679927  5.848356  2.373180  5.507739
   H ( 13)  2.734358  5.328761  5.802099  3.523602  4.798213  1.753452
   H ( 14)  1.081745  4.935103  4.265612  4.280292  2.466122  3.750790
   H ( 15)  2.901259  5.286474  5.861421  3.409431  4.961909  1.759203
             H ( 13)   H ( 14)
   H ( 14)  2.641779
   H ( 15)  1.790353  2.887312
 
 A cutoff of  1.0D-14 yielded   8362 shell pairs
 There are     54506 function pairs (     69460 Cartesian)
 Smallest overlap matrix eigenvalue = 5.48E-07
 Linear dependence detected in AO basis
 Tighter screening thresholds may be required for diffuse basis sets
 Use S2THRESH > 14 and THRESH = 14 in case of SCF convergence issues
 Number of orthogonalized atomic orbitals = 330
 Maximum deviation from orthogonality = 1.352E-10

 Scale SEOQF with 1.000000e-01/1.000000e-01/1.000000e-01

 Standard Electronic Orientation quadrupole field applied
 Nucleus-field energy     =     0.0000000179 hartrees
 Guess from superposition of atomic densities
 Warning:  Energy on first SCF cycle will be non-variational
 SAD guess density has 49.913408 electrons

 -----------------------------------------------------------------------
  General SCF calculation program by
  Eric Jon Sundstrom, Paul Horn, Yuezhi Mao, Dmitri Zuev, Alec White,
  David Stuck, Shaama M.S., Shane Yost, Joonho Lee, David Small,
  Daniel Levine, Susi Lehtola, Hugh Burton, Evgeny Epifanovsky
 -----------------------------------------------------------------------
 Exchange:     0.1670 Hartree-Fock + 1.0000 wB97X-V + LR-HF
 Correlation:  1.0000 wB97X-V
 Using Euler-Maclaurin-Lebedev (99,590) quadrature formula
 Nonlocal Correlation:  VV10 with C = 0.0100 and b = 6.00 and scale = 1.00000
 Grid used for NLC:  SG-1 standard quadrature
Energy prior to optimization (guess energy) = -271.518914586344
Begin Timing: Total SCF Calculation
begin iterations for algorithm: DIIS         
the SCF tolerance is set to 1.00e-08
    1    -271.5189145863      1.99e-03     00000 
    2    -271.5603698278      1.30e-03     00000 
    3    -271.5848799552      1.55e-04     00000 
    4    -271.5855712376      4.70e-05     00000 
    5    -271.5856225736      2.13e-05     00000 
    6    -271.5856302489      5.14e-06     00000 
    7    -271.5856309440      1.09e-06     00000 
    8    -271.5856309723      4.13e-07     00000 
    9    -271.5856309767      1.18e-07     00000 
   10    -271.5856309773      4.24e-08     00000 
   11    -271.5856309774      2.45e-08     00000 
   12    -271.5856309774      7.58e-09     00000 Convergence criterion met
Timing for Total SCF: 1363.00s (wall), 2708.39s (cpu)
(3)  G-ENP(liq) elect-nuc-pol free energy of system     -271.585630977 a.u.
(4)  G-CDS(liq) cavity-dispersion-solvent structure 
     free energy                                                3.1416 kcal/mol
(6)  G-S(liq) free energy of system                     -271.580624445 a.u.
E_pcm = -0.0073218468
E_cds = 0.0050065325
Multipole orders to be included
        2
        3
computing dipole RHS
computing quadrupole RHS
total number of RHS in solve_reponses: 8
RHS batch sizes
        8
Beginning Block Conjugate Gradient Iterations. Batch Number: 0
computing hessian-vector products by finite difference
              1      6.20e-01     00000 Conjugate Gradient Iteration
computing hessian-vector products by finite difference
              2      1.92e-01     00000 Conjugate Gradient Iteration
computing hessian-vector products by finite difference
              3      4.50e-02     00000 Conjugate Gradient Iteration
computing hessian-vector products by finite difference
              4      1.13e-02     00000 Conjugate Gradient Iteration
computing hessian-vector products by finite difference
              5      2.19e-03     00000 Conjugate Gradient Iteration
computing hessian-vector products by finite difference
              6      6.86e-04     00000 Conjugate Gradient Iteration
computing hessian-vector products by finite difference
              7      1.67e-04     00000 Conjugate Gradient Iteration
computing hessian-vector products by finite difference
              8      2.63e-05     00000 Conjugate Gradient Iteration
computing hessian-vector products by finite difference
              9      3.76e-06     00000 Conjugate Gradient Iteration
computing hessian-vector products by finite difference
             10      5.55e-07     00000 Conjugate Gradient Iteration
computing hessian-vector products by finite difference
             11      9.18e-08     00000 Conjugate Gradient Iteration
computing hessian-vector products by finite difference
             12      1.38e-08     00000 Conjugate Gradient Iteration
computing hessian-vector products by finite difference
             13      3.22e-09     00000 CG Converged
batch 0 complete
Done Calculating Responses
TESTING ORTHOGONALIZATION OF MULTIPOLE BASIS
Multipole virts passed orthogonality test
Virts Per Order
           75
          125
 
 --------------------------------------------------------------
 
                    Orbital Energies (a.u.)
 --------------------------------------------------------------
 
 Alpha MOs
 -- Occupied --
-10.2760 -10.2666 -10.2665 -10.2634 -10.2633 -10.2626 -10.2520  -0.9949
 -0.9029  -0.8748  -0.8078  -0.7257  -0.7003  -0.6250  -0.5691  -0.5597
 -0.5302  -0.5241  -0.5085  -0.4800  -0.4705  -0.4356  -0.4338  -0.3465
 -0.3353
 -- Virtual --
  0.0667   0.0682   0.0743   0.0845   0.0898   0.1095   0.1157   0.1179
  0.1409   0.1585   0.1702   0.1775   0.1881   0.1959   0.1996   0.2072
  0.2285   0.2340   0.2388   0.2472   0.2516   0.2619   0.2653   0.2772
  0.2856   0.2869   0.2912   0.2975   0.3001   0.3066   0.3076   0.3176
  0.3267   0.3301   0.3340   0.3454   0.3560   0.3590   0.3721   0.3789
  0.3790   0.3865   0.3933   0.3975   0.3982   0.4041   0.4072   0.4081
  0.4207   0.4325   0.4367   0.4429   0.4461   0.4534   0.4570   0.4628
  0.4722   0.4772   0.4830   0.4933   0.4967   0.5037   0.5169   0.5199
  0.5213   0.5286   0.5356   0.5509   0.5512   0.5560   0.5609   0.5707
  0.5765   0.5816   0.5933   0.5995   0.6056   0.6286   0.6390   0.6497
  0.6701   0.6799   0.6845   0.6898   0.6925   0.7108   0.7252   0.7288
  0.7332   0.7372   0.7491   0.7660   0.7696   0.7706   0.7775   0.7867
  0.7960   0.8000   0.8006   0.8073   0.8166   0.8289   0.8331   0.8338
  0.8405   0.8429   0.8551   0.8624   0.8670   0.8716   0.8879   0.9002
  0.9214   0.9313   0.9433   0.9512   0.9595   1.0129   1.0393   1.0471
  1.0539   1.0646   1.0710   1.0785   1.0958   1.1044   1.1076   1.1488
  1.1684   1.1746   1.2698   1.2755   1.3042   1.3346   1.3593   1.3666
  1.3768   1.4473   1.4557   1.4673   1.4703   1.4838   1.5377   1.5478
  1.6128   1.6172   1.6281   1.6352   1.6592   1.6860   1.7474   1.7779
  1.7861   1.8021   1.8136   1.8200   1.8388   1.8586   1.8852   1.9136
  1.9228   1.9341   1.9430   1.9785   1.9923   1.9975   2.0187   2.0313
  2.0441   2.0488   2.0736   2.0927   2.1153   2.1294   2.1796   2.1970
  2.2074   2.2424   2.2559   2.2779   2.2945   2.3195   2.3844   2.4077
  2.4142   2.4285   2.4678   2.5247   2.5517   2.5627   2.5735   2.6038
  2.6435   2.6576   2.6721   2.6782   2.7041   2.7199   2.7736   2.7847
  2.7919   2.8170   2.8258   2.8552   2.8686   2.9021   2.9201   2.9231
  2.9416   2.9474   2.9861   2.9884   3.0064   3.0165   3.0269   3.0592
  3.0718   3.0964   3.1069   3.1425   3.1705   3.1917   3.2081   3.2250
  3.2313   3.2585   3.2833   3.2926   3.3550   3.3630   3.3741   3.3875
  3.4150   3.4382   3.4501   3.4579   3.4603   3.4874   3.4909   3.5064
  3.5141   3.5432   3.5465   3.5507   3.5625   3.5779   3.5857   3.6144
  3.6253   3.6435   3.6695   3.7052   3.7315   3.7558   3.7738   3.8147
  3.8642   3.9094   3.9410   3.9632   3.9794   4.0025   4.0464   4.0669
  4.1344   4.2170   4.2760   4.2879   4.2978   4.3240   4.3359   4.3508
  4.3734   4.3813   4.3986   4.4128   4.4340   4.4660   4.5212   4.5475
  4.6103   4.6231   4.7825   4.8132   4.8298   4.8630   4.9151   4.9564
  5.0377   5.0554   5.1795   5.2762   5.3922   5.4055   5.5095   5.5387
  5.6801   5.8561  22.5897  22.7052  22.9086  22.9193  23.0259  23.1024
 23.4446
 --------------------------------------------------------------
 
          Ground-State Mulliken Net Atomic Charges

     Atom                 Charge (a.u.)
  ----------------------------------------
      1 C                    -1.085125
      2 C                    -0.571993
      3 C                    -0.543997
      4 C                    -0.463072
      5 C                     0.823629
      6 C                    -0.533031
      7 C                    -0.348973
      8 H                     0.370576
      9 H                     0.403072
     10 H                     0.364201
     11 H                     0.368393
     12 H                     0.299766
     13 H                     0.262785
     14 H                     0.406092
     15 H                     0.247677
  ----------------------------------------
  Sum of atomic charges =     0.000000

 -----------------------------------------------------------------
                    Cartesian Multipole Moments
 -----------------------------------------------------------------
    Charge (ESU x 10^10)
                 0.0000
    Dipole Moment (Debye)
         X      -0.1597      Y       0.1824      Z       0.4846
       Tot       0.5418
    Quadrupole Moments (Debye-Ang)
        XX     -44.3199     XY      -3.5073     YY     -37.8429
        XZ      -2.7274     YZ       0.5479     ZZ     -37.2317
    Octopole Moments (Debye-Ang^2)
       XXX     365.0967    XXY     -65.6021    XYY      94.7375
       YYY    -214.4368    XXZ      -5.0331    XYZ      -3.2147
       YYZ     -15.9437    XZZ     103.4153    YZZ     -69.6235
       ZZZ     -50.4246
    Hexadecapole Moments (Debye-Ang^3)
      XXXX   -2115.0051   XXXY     661.5975   XXYY    -459.3962
      XYYY     605.8481   YYYY   -1092.4948   XXXZ     150.9459
      XXYZ     -24.6372   XYYZ      61.7040   YYYZ    -128.4272
      XXZZ    -411.0843   XYZZ     208.7078   YYZZ    -271.9927
      XZZZ     193.7506   YZZZ    -134.9104   ZZZZ    -579.6083
 -----------------------------------------------------------------
Archival summary:
1\1\nid00566\SP\ProcedureUnspecified\BasisUnspecified\78\meili\SunSep2616:43:282021SunSep2616:43:282021\0\\#,ProcedureUnspecified,BasisUnspecified,\\0,1\C\C,1,1.38778\H,2,1.08081,1,120.025\C,1,1.39328,2,119.272,3,179.345,0\H,4,1.08175,1,120.094,2,-179.297,0\C,4,1.38936,1,120.316,2,1.32759,0\H,6,1.08259,4,120.083,1,179.433,0\C,6,1.38418,4,119.99,1,-0.740768,0\H,8,1.07758,6,119.745,4,179.26,0\C,8,1.38453,6,120.17,4,0.514461,0\H,10,1.07899,8,120.181,6,178.766,0\C,1,1.50295,2,120.952,3,2.47834,0\H,12,1.08441,1,110.742,2,-10.6797,0\H,12,1.08583,1,107.95,2,-128.465,0\H,12,1.1,1,112.978,2,109.697,0\\\@

 Total job time:  27681.63s(wall), 54945.41s(cpu) 
 Sun Sep 26 16:43:31 2021

        *************************************************************
        *                                                           *
        *  Thank you very much for using Q-Chem.  Have a nice day.  *
        *                                                           *
        *************************************************************


Done Job For Fragment 0
calling putenv with: QCSCRATCH=/global/cscratch1/sd/meili 
calling putenv with: QCLOCALSCR=/tmp 
calling putenv with: QCTHREADS=32 
Creating input file /tmp/qchem8883/Frg2.input
using default PutDataFrgm: nothing
calling putenv with: QCSCRATCH=/tmp/qchem8883/ 
calling putenv with: QCLOCALSCR=/tmp/qchem8883/ 
Spawning Job For Fragment 1
                  Welcome to Q-Chem
     A Quantum Leap Into The Future Of Chemistry


 Q-Chem 5.2, Q-Chem, Inc., Pleasanton, CA (2019)

 License issued to: National Energy Research Scientific Computing Center

 Yihan Shao,  Zhengting Gan,  E. Epifanovsky,  A. T. B. Gilbert,  M. Wormit,  
 J. Kussmann,  A. W. Lange,  A. Behn,  Jia Deng,  Xintian Feng,  D. Ghosh,  
 M. Goldey,  P. R. Horn,  L. D. Jacobson,  I. Kaliman,  T. Kus,  A. Landau,  
 Jie Liu,  E. I. Proynov,  R. M. Richard,  R. P. Steele,  E. J. Sundstrom,  
 H. L. Woodcock III,  P. M. Zimmerman,  D. Zuev,  B. Albrecht,  E. Alguire,  
 S. A. Baeppler,  D. Barton,  Z. Benda,  Y. A. Bernard,  E. J. Berquist,  
 K. B. Bravaya,  H. Burton,  D. Casanova,  Chun-Min Chang,  Yunqing Chen,  
 A. Chien,  K. D. Closser,  M. P. Coons,  S. Coriani,  S. Dasgupta,  
 A. L. Dempwolff,  M. Diedenhofen,  Hainam Do,  R. G. Edgar,  Po-Tung Fang,  
 S. Faraji,  S. Fatehi,  Qingguo Feng,  K. D. Fenk,  J. Fosso-Tande,  
 J. Gayvert,  Qinghui Ge,  A. Ghysels,  G. Gidofalvi,  J. Gomes,  
 J. Gonthier,  A. Gunina,  D. Hait,  M. W. D. Hanson-Heine,  
 P. H. P. Harbach,  A. W. Hauser,  M. F. Herbst,  J. E. Herr,  
 E. G. Hohenstein,  Z. C. Holden,  Kerwin Hui,  B. C. Huynh,  T.-C. Jagau,  
 Hyunjun Ji,  B. Kaduk,  K. Khistyaev,  Jaehoon Kim,  P. Klunzinger,  K. Koh,  
 D. Kosenkov,  L. Koulias,  T. Kowalczyk,  C. M. Krauter,  A. Kunitsa,  
 Ka Un Lao,  A. Laurent,  K. V. Lawler,  Joonho Lee,  D. Lefrancois,  
 S. Lehtola,  D. S. Levine,  Yi-Pei Li,  You-Sheng Lin,  Fenglai Liu,  
 E. Livshits,  A. Luenser,  P. Manohar,  E. Mansoor,  S. F. Manzer,  
 Shan-Ping Mao,  Yuezhi Mao,  N. Mardirossian,  A. V. Marenich,  
 T. Markovich,  L. A. Martinez-Martinez,  S. A. Maurer,  N. J. Mayhall,  
 S. C. McKenzie,  J.-M. Mewes,  P. Morgante,  A. F. Morrison,  
 J. W. Mullinax,  K. Nanda,  T. S. Nguyen-Beck,  R. Olivares-Amaya,  
 J. A. Parkhill,  Zheng Pei,  T. M. Perrine,  F. Plasser,  P. Pokhilko,  
 S. Prager,  A. Prociuk,  E. Ramos,  D. R. Rehn,  F. Rob,  M. Scheurer,  
 M. Schneider,  N. Sergueev,  S. M. Sharada,  S. Sharma,  D. W. Small,  
 T. Stauch,  T. Stein,  Yu-Chuan Su,  A. J. W. Thom,  A. Tkatchenko,  
 T. Tsuchimochi,  N. M. Tubman,  L. Vogt,  M. L. Vidal,  O. Vydrov,  
 M. A. Watson,  J. Wenzel,  M. de Wergifosse,  T. A. Wesolowski,  A. White,  
 J. Witte,  A. Yamada,  Jun Yang,  K. Yao,  S. Yeganeh,  S. R. Yost,  
 Zhi-Qiang You,  A. Zech,  Igor Ying Zhang,  Xing Zhang,  Yan Zhao,  
 Ying Zhu,  B. R. Brooks,  G. K. L. Chan,  C. J. Cramer,  M. S. Gordon,  
 W. J. Hehre,  A. Klamt,  M. W. Schmidt,  C. D. Sherrill,  D. G. Truhlar,  
 A. Aspuru-Guzik,  R. Baer,  A. T. Bell,  N. A. Besley,  Jeng-Da Chai,  
 A. E. DePrince, III,  R. A. DiStasio Jr.,  A. Dreuw,  B. D. Dunietz,  
 T. R. Furlani,  Chao-Ping Hsu,  Yousung Jung,  Jing Kong,  D. S. Lambrecht,  
 WanZhen Liang,  C. Ochsenfeld,  V. A. Rassolov,  L. V. Slipchenko,  
 J. E. Subotnik,  T. Van Voorhis,  J. M. Herbert,  A. I. Krylov,  
 P. M. W. Gill,  M. Head-Gordon

 Contributors to earlier versions of Q-Chem not listed above: 
 R. D. Adamson,  B. Austin,  J. Baker,  G. J. O. Beran,  K. Brandhorst,  
 S. T. Brown,  E. F. C. Byrd,  A. K. Chakraborty,  C.-L. Cheng,  
 Siu Hung Chien,  D. M. Chipman,  D. L. Crittenden,  H. Dachsel,  
 R. J. Doerksen,  A. D. Dutoi,  L. Fusti-Molnar,  W. A. Goddard III,  
 A. Golubeva-Zadorozhnaya,  S. R. Gwaltney,  G. Hawkins,  A. Heyden,  
 S. Hirata,  G. Kedziora,  F. J. Keil,  C. Kelley,  Jihan Kim,  R. A. King,  
 R. Z. Khaliullin,  P. P. Korambath,  W. Kurlancheek,  A. M. Lee,  M. S. Lee,  
 S. V. Levchenko,  Ching Yeh Lin,  D. Liotard,  R. C. Lochan,  I. Lotan,  
 P. E. Maslen,  N. Nair,  D. P. O'Neill,  D. Neuhauser,  E. Neuscamman,  
 C. M. Oana,  R. Olson,  B. Peters,  R. Peverati,  P. A. Pieniazek,  
 Y. M. Rhee,  J. Ritchie,  M. A. Rohrdanz,  E. Rosta,  N. J. Russ,  
 H. F. Schaefer III,  N. E. Schultz,  N. Shenvi,  A. C. Simmonett,  A. Sodt,  
 D. Stuck,  K. S. Thanthiriwatte,  V. Vanovschi,  Tao Wang,  A. Warshel,  
 C. F. Williams,  Q. Wu,  X. Xu,  W. Zhang

 Please cite Q-Chem as follows:
 Y. Shao et al., Mol. Phys. 113, 184-215 (2015)
 DOI: 10.1080/00268976.2014.952696

 Q-Chem 5.2.0 for Intel X86 EM64T Linux

 Parts of Q-Chem use Armadillo 8.300.2 (Tropical Shenanigans).
 http://arma.sourceforge.net/

 Q-Chem begins on Sun Sep 26 16:43:34 2021  

Host: cori01
0

     Scratch files written to /tmp/qchem8883//Frg2//
 May1019 |scratch|qcdevops|jenkins|workspace|build_RNUM -1
Processing $rem in /global/common/cori/software/qchem/5.2/config/preferences:
	 MEM_TOTAL  96000 
NAlpha2: 50
NElect   50
Mult     1
Symmetry turned off for PCM/SM12/SMD calculation

Checking the input file for inconsistencies... 	...done.

--------------------------------------------------------------
User input:
--------------------------------------------------------------
$molecule
0 1
 6	5.1236606252	-1.7600105083	0.1706799997
 6	1.5056606252	-0.7130105083	-0.4243200003
 6	0.9216606252	-1.9170105083	-0.8163200003
 6	2.8696606252	-0.6650105083	-0.1123200003
 6	3.6536606252	-1.8190105083	-0.1613200003
 6	1.6996606252	-3.0740105083	-0.8743200003
 6	3.0606606252	-3.0250105083	-0.5463200003
 1	0.9086606252	0.1879894917	-0.3773200003
 1	-0.1253393748	-1.9590105083	-1.0773200003
 1	3.3146606252	0.2769894917	0.1766799997
 1	1.2546606252	-4.0180105083	-1.1533200003
 1	5.3016606252	-2.3580105083	1.0616799997
 1	5.4046606252	-0.7300105083	0.4006799997
 1	3.6416606252	-3.9350105083	-0.5783200003
 1	5.7745846252	-2.1363705083	-0.6322200003
$end
$rem
EDA2		1
METHOD		WB97X-V
BASIS		DEF2-TZVPD
XC_GRID		000099000590
NL_GRID		1
UNRESTRICTED		FALSE
MAX_SCF_CYCLES		200
SYMMETRY		FALSE
SYM_IGNORE		TRUE
BASIS_LIN_DEP_THRESH		6
THRESH		14
SCF_CONVERGENCE		8
SCF_PRINT_FRGM		TRUE
SOLVENT_METHOD		SMD
!required keywords
JOBTYPE		SP
SYM_IGNORE		TRUE
SUBSYSTEM		TRUE
GEN_SCFMAN		TRUE
CHILD_INSTRUCTION		2
SYM_IGNORE		TRUE
SCFMI		0
RI_K 0		
PARI_K 0		
MIN_PARI_K 0		
IARI_K 0		
OCC_RI_K 0		
PURECART		1111
MEM_STATIC		2000
MEM_TOTAL		96000
GUI		0
CHILD_MP		1
CHILD_MP_ORDERS		232
FRZ_RELAX		0
FRZ_RELAX_METHOD		0
EDA_CLS_ELEC		1
EDA_CLS_DISP		0
FRZ_ORTHO_DECOMP		1
EDA2		FALSE
FRGM_METHOD		FALSE
CIS_N_ROOTS  0
LOCAL_CIS    0
CIS_RLX_DNS  1
$end
$smx
SOLVENT			WATER
$end
--------------------------------------------------------------
 ----------------------------------------------------------------
             Standard Nuclear Orientation (Angstroms)
    I     Atom           X                Y                Z
 ----------------------------------------------------------------
    1      C       5.1236606252    -1.7600105083     0.1706799997
    2      C       1.5056606252    -0.7130105083    -0.4243200003
    3      C       0.9216606252    -1.9170105083    -0.8163200003
    4      C       2.8696606252    -0.6650105083    -0.1123200003
    5      C       3.6536606252    -1.8190105083    -0.1613200003
    6      C       1.6996606252    -3.0740105083    -0.8743200003
    7      C       3.0606606252    -3.0250105083    -0.5463200003
    8      H       0.9086606252     0.1879894917    -0.3773200003
    9      H      -0.1253393748    -1.9590105083    -1.0773200003
   10      H       3.3146606252     0.2769894917     0.1766799997
   11      H       1.2546606252    -4.0180105083    -1.1533200003
   12      H       5.3016606252    -2.3580105083     1.0616799997
   13      H       5.4046606252    -0.7300105083     0.4006799997
   14      H       3.6416606252    -3.9350105083    -0.5783200003
   15      H       5.7745846252    -2.1363705083    -0.6322200003
 ----------------------------------------------------------------
 Nuclear Repulsion Energy =         269.08400171 hartrees
 There are       25 alpha and       25 beta electrons
 Requested basis set is def2-TZVPD
 There are 131 shells and 331 basis functions

 Total QAlloc Memory Limit  96000 MB
 Mega-Array Size      1956 MB
 MEM_STATIC part      2000 MB
 
 Citation of the SMD model:
 Marenich, A.V.; Cramer, C.J.; Truhlar, D.G.
 J. Phys. Chem. B 2009, 113, 6378-6396.
 iSolventCode=           1
 Solvent: water                                                           
 
 vradii
            1           2           3           4           5           6
    1   1.8500000   1.8500000   1.8500000   1.8500000   1.8500000   1.8500000
            7           8           9          10          11          12
    1   1.8500000   1.2000000   1.2000000   1.2000000   1.2000000   1.2000000
           13          14          15
    1   1.2000000   1.2000000   1.2000000
 Changing PCM_VDW_RADII to SMD_RADIUS
 Discretize the solute cavity surface with Lebedev spheres
	Using 110 Lebedev grid points for each H atom
	Using 194 Lebedev grid points for other atoms
	Atomic van der Waals radii will be scaled by 1.20
 Remove points where switching function is < 1.0e-08
 Keep 1073 surface tesserae and discard 1165 interior tesserae
 Molecular Surface Area = 132.311 Angst**2

                       Distance Matrix (Angstroms)
             C (  1)   C (  2)   C (  3)   C (  4)   C (  5)   C (  6)
   C (  2)  3.813156
   C (  3)  4.319215  1.394394
   C (  4)  2.521831  1.400051  2.420294
   C (  5)  1.508179  2.430290  2.811130  1.395985
   C (  6)  3.813449  2.411319  1.395456  2.784390  2.429302
   C (  7)  2.523942  2.788952  2.424022  2.407164  1.397966  1.400823
   H (  8)  4.675600  1.081859  2.150329  2.154845  3.407305  3.393130
   H (  9)  5.398991  2.153854  1.079858  3.402306  3.890951  2.148269
   H ( 10)  2.724314  2.147972  3.395016  1.081161  2.149972  3.865492
   H ( 11)  4.671263  3.393739  2.153755  3.864520  3.402185  1.080279
   H ( 12)  1.087736  4.395889  4.785997  3.187342  2.121828  4.151525
   H ( 13)  1.092136  3.985363  4.794512  2.587203  2.137233  4.565850
   H ( 14)  2.736412  3.868785  3.395198  3.392055  2.156731  2.144831
   H ( 15)  1.099999  4.504763  4.861366  3.297541  2.195628  4.188411
             C (  7)   H (  8)   H (  9)   H ( 10)   H ( 11)   H ( 12)
   H (  8)  3.870792
   H (  9)  3.401310  2.483700
   H ( 10)  3.389756  2.470561  4.290200
   H ( 11)  2.148519  4.290959  2.479850  4.945657
   H ( 12)  2.837716  5.277432  5.846952  3.416814  4.903064
   H ( 13)  3.414406  4.654248  5.854556  2.330735  5.518003  1.760089
   H ( 14)  1.080132  4.950638  4.282974  4.291608  2.456681  2.816404
   H ( 15)  2.856999  5.398596  5.919347  3.539753  4.923599  1.772591
             H ( 13)   H ( 14)
   H ( 14)  3.786639
   H ( 15)  1.783697  2.790587
 
 A cutoff of  1.0D-14 yielded   8360 shell pairs
 There are     54490 function pairs (     69441 Cartesian)
 Smallest overlap matrix eigenvalue = 5.88E-07
 Linear dependence detected in AO basis
 Tighter screening thresholds may be required for diffuse basis sets
 Use S2THRESH > 14 and THRESH = 14 in case of SCF convergence issues
 Number of orthogonalized atomic orbitals = 330
 Maximum deviation from orthogonality = 1.688E-10

 Scale SEOQF with 1.000000e-02/1.000000e-01/1.000000e-01

 Standard Electronic Orientation quadrupole field applied
 Nucleus-field energy     =     0.0000000160 hartrees
 Guess from superposition of atomic densities
 Warning:  Energy on first SCF cycle will be non-variational
 SAD guess density has 49.913408 electrons

 -----------------------------------------------------------------------
  General SCF calculation program by
  Eric Jon Sundstrom, Paul Horn, Yuezhi Mao, Dmitri Zuev, Alec White,
  David Stuck, Shaama M.S., Shane Yost, Joonho Lee, David Small,
  Daniel Levine, Susi Lehtola, Hugh Burton, Evgeny Epifanovsky
 -----------------------------------------------------------------------
 Exchange:     0.1670 Hartree-Fock + 1.0000 wB97X-V + LR-HF
 Correlation:  1.0000 wB97X-V
 Using Euler-Maclaurin-Lebedev (99,590) quadrature formula
 Nonlocal Correlation:  VV10 with C = 0.0100 and b = 6.00 and scale = 1.00000
 Grid used for NLC:  SG-1 standard quadrature
Energy prior to optimization (guess energy) = -271.521516403091
Begin Timing: Total SCF Calculation
begin iterations for algorithm: DIIS         
the SCF tolerance is set to 1.00e-08
    1    -271.5215164031      1.94e-03     00000 
    2    -271.5620705884      1.25e-03     00000 
    3    -271.5852153443      1.55e-04     00000 
    4    -271.5859197236      4.51e-05     00000 
    5    -271.5859697698      2.03e-05     00000 
    6    -271.5859767601      5.20e-06     00000 
    7    -271.5859774524      8.94e-07     00000 
    8    -271.5859774752      3.62e-07     00000 
    9    -271.5859774783      1.04e-07     00000 
   10    -271.5859774786      3.20e-08     00000 
   11    -271.5859774787      1.57e-08     00000 
   12    -271.5859774787      7.36e-09     00000 Convergence criterion met
Timing for Total SCF: 1366.00s (wall), 2711.91s (cpu)
(3)  G-ENP(liq) elect-nuc-pol free energy of system     -271.585977479 a.u.
(4)  G-CDS(liq) cavity-dispersion-solvent structure 
     free energy                                                3.1915 kcal/mol
(6)  G-S(liq) free energy of system                     -271.580891489 a.u.
E_pcm = -0.0076236048
E_cds = 0.0050859898
Multipole orders to be included
        2
        3
computing dipole RHS
computing quadrupole RHS
total number of RHS in solve_reponses: 8
RHS batch sizes
        8
Beginning Block Conjugate Gradient Iterations. Batch Number: 0
computing hessian-vector products by finite difference
              1      6.31e-01     00000 Conjugate Gradient Iteration
computing hessian-vector products by finite difference
              2      1.98e-01     00000 Conjugate Gradient Iteration
computing hessian-vector products by finite difference
              3      4.68e-02     00000 Conjugate Gradient Iteration
computing hessian-vector products by finite difference
              4      1.15e-02     00000 Conjugate Gradient Iteration
computing hessian-vector products by finite difference
              5      2.24e-03     00000 Conjugate Gradient Iteration
computing hessian-vector products by finite difference
              6      6.33e-04     00000 Conjugate Gradient Iteration
computing hessian-vector products by finite difference
              7      1.80e-04     00000 Conjugate Gradient Iteration
computing hessian-vector products by finite difference
              8      2.86e-05     00000 Conjugate Gradient Iteration
computing hessian-vector products by finite difference
              9      3.46e-06     00000 Conjugate Gradient Iteration
computing hessian-vector products by finite difference
             10      5.04e-07     00000 Conjugate Gradient Iteration
computing hessian-vector products by finite difference
             11      1.05e-07     00000 Conjugate Gradient Iteration
computing hessian-vector products by finite difference
             12      1.56e-08     00000 Conjugate Gradient Iteration
computing hessian-vector products by finite difference
             13      2.68e-09     00000 CG Converged
batch 0 complete
Done Calculating Responses
TESTING ORTHOGONALIZATION OF MULTIPOLE BASIS
Multipole virts passed orthogonality test
Virts Per Order
           75
          125
 
 --------------------------------------------------------------
 
                    Orbital Energies (a.u.)
 --------------------------------------------------------------
 
 Alpha MOs
 -- Occupied --
-10.2791 -10.2696 -10.2695 -10.2663 -10.2658 -10.2657 -10.2541  -0.9910
 -0.9010  -0.8727  -0.8070  -0.7246  -0.7000  -0.6232  -0.5671  -0.5613
 -0.5276  -0.5228  -0.5090  -0.4807  -0.4683  -0.4360  -0.4346  -0.3451
 -0.3347
 -- Virtual --
  0.0649   0.0683   0.0722   0.0843   0.0899   0.1094   0.1154   0.1180
  0.1408   0.1603   0.1704   0.1802   0.1861   0.1961   0.1993   0.2049
  0.2279   0.2343   0.2383   0.2470   0.2490   0.2616   0.2653   0.2773
  0.2857   0.2883   0.2916   0.2961   0.2984   0.3052   0.3063   0.3173
  0.3247   0.3303   0.3333   0.3457   0.3560   0.3565   0.3715   0.3770
  0.3774   0.3856   0.3907   0.3967   0.3978   0.4026   0.4047   0.4080
  0.4198   0.4306   0.4354   0.4402   0.4466   0.4515   0.4558   0.4648
  0.4715   0.4774   0.4827   0.4909   0.5003   0.5058   0.5130   0.5142
  0.5191   0.5256   0.5321   0.5482   0.5521   0.5553   0.5652   0.5682
  0.5748   0.5772   0.5912   0.5971   0.6037   0.6277   0.6388   0.6485
  0.6675   0.6818   0.6836   0.6893   0.6955   0.7082   0.7226   0.7290
  0.7330   0.7406   0.7481   0.7648   0.7673   0.7692   0.7782   0.7862
  0.7907   0.7935   0.7995   0.8073   0.8188   0.8271   0.8289   0.8320
  0.8388   0.8409   0.8538   0.8607   0.8679   0.8736   0.8791   0.9009
  0.9200   0.9288   0.9451   0.9473   0.9554   1.0071   1.0398   1.0412
  1.0549   1.0592   1.0658   1.0759   1.0928   1.1034   1.1046   1.1432
  1.1632   1.1729   1.2623   1.2795   1.2983   1.3328   1.3578   1.3604
  1.3770   1.4449   1.4534   1.4612   1.4683   1.4741   1.5304   1.5400
  1.6089   1.6151   1.6248   1.6344   1.6453   1.6806   1.7439   1.7711
  1.7832   1.7981   1.8120   1.8153   1.8375   1.8472   1.8883   1.9156
  1.9225   1.9266   1.9330   1.9777   1.9903   1.9952   2.0197   2.0283
  2.0393   2.0493   2.0732   2.0886   2.1125   2.1266   2.1756   2.2001
  2.2065   2.2345   2.2548   2.2764   2.2939   2.3157   2.3828   2.3967
  2.4074   2.4267   2.4590   2.5226   2.5484   2.5558   2.5669   2.6098
  2.6286   2.6550   2.6621   2.6798   2.7054   2.7189   2.7667   2.7732
  2.7784   2.8071   2.8126   2.8454   2.8621   2.8985   2.9150   2.9189
  2.9335   2.9397   2.9806   2.9862   2.9983   3.0173   3.0271   3.0571
  3.0592   3.0860   3.1009   3.1403   3.1609   3.1930   3.1988   3.2215
  3.2288   3.2686   3.2744   3.2894   3.3517   3.3583   3.3686   3.3788
  3.4174   3.4274   3.4387   3.4534   3.4587   3.4806   3.4895   3.4921
  3.5081   3.5374   3.5406   3.5464   3.5543   3.5659   3.5736   3.6100
  3.6239   3.6387   3.6596   3.6937   3.7170   3.7558   3.7609   3.8139
  3.8535   3.9064   3.9305   3.9442   3.9544   3.9860   4.0305   4.0566
  4.1331   4.2102   4.2695   4.2712   4.2839   4.3039   4.3246   4.3377
  4.3540   4.3658   4.3832   4.3999   4.4115   4.4412   4.4945   4.5335
  4.5973   4.6077   4.7819   4.7865   4.8084   4.8258   4.9173   4.9459
  5.0204   5.0399   5.1644   5.2698   5.3554   5.3783   5.4901   5.5330
  5.6666   5.8478  22.5941  22.6893  22.8819  22.8902  22.9946  23.0606
 23.4021
 --------------------------------------------------------------
 
          Ground-State Mulliken Net Atomic Charges

     Atom                 Charge (a.u.)
  ----------------------------------------
      1 C                    -1.075542
      2 C                    -0.584812
      3 C                    -0.557837
      4 C                    -0.442224
      5 C                     0.807681
      6 C                    -0.519973
      7 C                    -0.358244
      8 H                     0.372960
      9 H                     0.405723
     10 H                     0.361774
     11 H                     0.374627
     12 H                     0.244926
     13 H                     0.293518
     14 H                     0.410295
     15 H                     0.267128
  ----------------------------------------
  Sum of atomic charges =     0.000000

 -----------------------------------------------------------------
                    Cartesian Multipole Moments
 -----------------------------------------------------------------
    Charge (ESU x 10^10)
                 0.0000
    Dipole Moment (Debye)
         X       0.5409      Y      -0.0327      Z       0.1601
       Tot       0.5650
    Quadrupole Moments (Debye-Ang)
        XX     -34.6847     XY      -1.5466     YY     -37.6736
        XZ       2.1986     YZ       1.3506     ZZ     -45.9506
    Octopole Moments (Debye-Ang^2)
       XXX    -303.9968    XXY      61.5196    XYY    -101.8223
       YYY     209.7014    XXZ      21.9203    XYZ      -0.2133
       YYZ       8.7589    XZZ    -125.3527    YZZ      82.8768
       ZZZ      54.3095
    Hexadecapole Moments (Debye-Ang^3)
      XXXX   -2298.8981   XXXY     548.1837   XXYY    -543.2527
      XYYY     577.8213   YYYY   -1050.0278   XXXZ      82.3224
      XXYZ     -36.4719   XYYZ      17.2548   YYYZ     -78.5502
      XXZZ    -463.4122   XYZZ     227.2243   YYZZ    -225.2219
      XZZZ      83.6263   YZZZ    -127.4438   ZZZZ    -146.2776
 -----------------------------------------------------------------
Archival summary:
1\1\nid00566\SP\ProcedureUnspecified\BasisUnspecified\78\meili\MonSep2700:22:222021MonSep2700:22:222021\0\\#,ProcedureUnspecified,BasisUnspecified,\\0,1\C\C,1,1.39598\H,2,1.08116,1,119.9\C,1,1.39797,2,118.985,3,-179.567,0\H,4,1.08013,1,120.45,2,-179.093,0\C,2,1.40005,1,120.73,3,-179.519,0\H,6,1.08186,2,119.959,1,179.684,0\C,6,1.39439,2,120.019,1,-1.35341,0\H,8,1.07986,6,120.505,2,-178.801,0\C,8,1.39546,6,119.61,2,1.02202,0\H,10,1.08028,8,120.371,6,178.519,0\C,1,1.50818,2,120.486,3,-0.720143,0\H,12,1.08774,1,108.561,2,115.845,0\H,12,1.09214,1,109.514,2,-1.48274,0\H,12,1.1,1,113.748,2,-123.598,0\\\@

 Total job time:  27531.62s(wall), 54652.11s(cpu) 
 Mon Sep 27 00:22:26 2021

        *************************************************************
        *                                                           *
        *  Thank you very much for using Q-Chem.  Have a nice day.  *
        *                                                           *
        *************************************************************


Done Job For Fragment 1
calling putenv with: QCSCRATCH=/global/cscratch1/sd/meili 
calling putenv with: QCLOCALSCR=/tmp 
calling putenv with: QCTHREADS=32 
Doing General SCFMI
 Exchange:     0.1670 Hartree-Fock + 1.0000 wB97X-V + LR-HF
 Correlation:  1.0000 wB97X-V
 Using Euler-Maclaurin-Lebedev (99,590) quadrature formula
 Nonlocal Correlation:  VV10 with C = 0.0100 and b = 6.00 and scale = 1.00000
 Grid used for NLC:  SG-1 standard quadrature
performing fock build before subrot guess so that all methods have access
Printing subrot_rss_gen Method Specification:
Occupied Subspace Method is 0
Virtual Subspace Method is 0
Energy of the unrelaxed supersystem initial determinant -543.157955656148
performing fock build before subrot guess so that all methods have access
Printing subrot_rss_gen Method Specification:
Occupied Subspace Method is 0
Virtual Subspace Method is 0
Energy of the unrelaxed supersystem initial determinant w/ solvent -543.172787567195
write pseudocanon occs and virts to disk
write pseudocanon orbital energies to disk
Tolerance of ortho_decomp_scf: 1.00e-06
GDM subspace size: 20
Beginning the Orthogonal Decomposition of the Initial Supersystem Wavefunction
    1    -543.1488178293      1.30e-02     ortho_decomp Preconditoned Steepest Descent
    2    -543.1495484511      3.04e-04     ortho_decomp BFGS Step
    3    -543.1495504051      2.19e-05     ortho_decomp BFGS Step
    4    -543.1495504089      9.33e-07     ortho_decomp 00000 Convergence criterion met
 Hartree-Fock
 Hartree-Fock
 Hartree-Fock
Doing General SCFMI
 Exchange:     0.1670 Hartree-Fock + 1.0000 wB97X-V + LR-HF
 Correlation:  1.0000 wB97X-V
 Using Euler-Maclaurin-Lebedev (99,590) quadrature formula
 Nonlocal Correlation:  VV10 with C = 0.0100 and b = 6.00 and scale = 1.00000
 Grid used for NLC:  SG-1 standard quadrature
performing fock build at end of subrot_r(subrot) constructor so that all methods have access
<S^2> of initial wavefunction before polarization iterations 0.0000000000
Beginning iterations for the determination of the polarized wavefunction
Energy prior to optimization (guess energy) = -543.172787567195
Begin Timing: Total SCF Calculation
begin iterations for algorithm: DIIS         
the SCF tolerance is set to 1.00e-08
    1    -543.1727875672      2.56e-05     00000 
    2    -543.1728507546      1.07e-05     00000 
    3    -543.1728585201      6.24e-06     00000 
    4    -543.1728614346      1.48e-06     00000 
    5    -543.1728617306      7.15e-07     00000 
    6    -543.1728617816      1.97e-07     00000 
    7    -543.1728617859      6.58e-08     00000 
    8    -543.1728617862      2.29e-08     00000 
    9    -543.1728617863      5.38e-09     00000 Convergence criterion met
write pseudocanon occs and virts to disk
write pseudocanon orbital energies to disk
Timing for Total SCF: 6410.00s (wall), 12765.08s (cpu)
<S^2> of polarized wavefunction after polarization iterations 0.0000000000
relaxing scfmi constraint to allow all rotations in the entire AO span
Doing General SCFMI
 Exchange:     0.1670 Hartree-Fock + 1.0000 wB97X-V + LR-HF
 Correlation:  1.0000 wB97X-V
 Using Euler-Maclaurin-Lebedev (99,590) quadrature formula
 Nonlocal Correlation:  VV10 with C = 0.0100 and b = 6.00 and scale = 1.00000
 Grid used for NLC:  SG-1 standard quadrature
performing fock build at end of subrot_r(subrot) constructor so that all methods have access
<S^2> of polarized wavefunction before ct-allowed iterations 0.0000000000
Beginning iterations for the determination of the CT-Allowed wavefunction
Energy prior to optimization (guess energy) = -543.172861786280
Begin Timing: Total SCF Calculation
begin iterations for algorithm: DIIS         
the SCF tolerance is set to 1.00e-08
    1    -543.1728617863      4.67e-05     00000 
    2    -543.1733331677      4.83e-06     00000 
    3    -543.1733459449      6.97e-07     00000 
    4    -543.1733463095      1.61e-07     00000 
    5    -543.1733463214      1.01e-07     00000 
    6    -543.1733463247      1.51e-08     00000 
    7    -543.1733463249      7.74e-09     00000 Convergence criterion met
write pseudocanon occs and virts to disk
write pseudocanon orbital energies to disk
Timing for Total SCF: 4760.00s (wall), 9482.09s (cpu)
<S^2> of ct_allowed wavefunction after ct-allowed iterations 0.0000000000

================================
        Results of EDA2         
================================
Basic EDA Quantities
--------------------
Fragment Energies (Ha):
1 -271.5806244449
2 -271.5808914890
--------------------
  E_prp (kJ/mol) = -0.0000
  E_sol (kJ/mol) = -0.6592
  E_frz (kJ/mol) = -3.3939
  E_pol (kJ/mol) = -0.1949
  E_vct (kJ/mol) = -1.2722
  E_int (kJ/mol) = -5.5202
--------------------


Initial Wavefunction Decomposition
--------------------
  --------------------
  Orthogonal Fragment Subspace Decomposition:
  --------------------
     E_elec   (ELEC)   (kJ/mol) = -8.9647
     E_pauli  (PAULI)  (kJ/mol) = 14.2965
     E_disp   (DISP)   (kJ/mol) = -8.7256
     --------------------
     Terms summing to E_pauli:
     --------------------
        E_kep_pauli       (kJ/mol) = 18.6743
        E_disp_free_pauli (kJ/mol) = -4.3779
  --------------------
  Classical Frozen Decomposition:
  --------------------
     E_cls_elec  (CLS ELEC)  (kJ/mol) = -3.0823
     E_cls_pauli (CLS PAULI) (kJ/mol) = -0.3116
    [E_mod_pauli (MOD PAULI) (kJ/mol) = 8.4140 (CLS PAULI - DISP from orthogonal decomposition) ]
  --------------------
--------------------

Simplified EDA Summary (kJ/mol)
--------------------
 PREPARATION     -0.0000
 SOLVATION       -0.6592
 FROZEN          5.3317      (does not include dispersion)
[PAULI           14.2965]     (if this is negligible, then frozen describes electrostatics)
 DISPERSION      -8.7256
 POLARIZATION    -0.1949
 CHARGE TRANSFER -1.2722
 TOTAL           -5.5202     (PRP + SOL + FRZ + DISP + POL + CT)
--------------------
 
 --------------------------------------------------------------
 
                    Orbital Energies (a.u.)
 --------------------------------------------------------------
 
 Alpha MOs
 -- Occupied --
-10.2791 -10.2760 -10.2696 -10.2694 -10.2666 -10.2663 -10.2663 -10.2658
-10.2658 -10.2633 -10.2633 -10.2625 -10.2541 -10.2520  -0.9949  -0.9910
 -0.9030  -0.9010  -0.8749  -0.8726  -0.8078  -0.8070  -0.7265  -0.7239
 -0.7006  -0.6997  -0.6269  -0.6218  -0.5691  -0.5673  -0.5615  -0.5596
 -0.5303  -0.5276  -0.5252  -0.5225  -0.5093  -0.5072  -0.4807  -0.4800
 -0.4705  -0.4683  -0.4371  -0.4359  -0.4344  -0.4321  -0.3467  -0.3448
 -0.3352  -0.3346
 -- Virtual --
  0.0613   0.0628   0.0671   0.0713   0.0734   0.0750   0.0822   0.0849
  0.0922   0.1017   0.1073   0.1104   0.1112   0.1214   0.1310   0.1326
  0.1468   0.1580   0.1607   0.1625   0.1676   0.1734   0.1825   0.1861
  0.1876   0.1916   0.1995   0.2055   0.2086   0.2102   0.2192   0.2239
  0.2291   0.2322   0.2368   0.2397   0.2406   0.2460   0.2503   0.2576
  0.2630   0.2647   0.2651   0.2669   0.2719   0.2740   0.2813   0.2862
  0.2868   0.2907   0.2954   0.2987   0.2995   0.3018   0.3034   0.3076
  0.3085   0.3111   0.3165   0.3204   0.3286   0.3312   0.3346   0.3376
  0.3402   0.3418   0.3489   0.3506   0.3562   0.3577   0.3636   0.3650
  0.3688   0.3697   0.3734   0.3786   0.3801   0.3833   0.3844   0.3864
  0.3882   0.3899   0.3915   0.3989   0.4020   0.4039   0.4055   0.4068
  0.4123   0.4168   0.4208   0.4227   0.4274   0.4340   0.4383   0.4434
  0.4448   0.4478   0.4508   0.4526   0.4556   0.4597   0.4613   0.4657
  0.4711   0.4725   0.4732   0.4781   0.4794   0.4863   0.4901   0.4924
  0.4956   0.4985   0.4998   0.5021   0.5054   0.5072   0.5085   0.5115
  0.5209   0.5228   0.5250   0.5297   0.5306   0.5342   0.5360   0.5400
  0.5472   0.5504   0.5534   0.5575   0.5619   0.5691   0.5699   0.5724
  0.5793   0.5811   0.5836   0.5894   0.5923   0.5982   0.5998   0.6049
  0.6095   0.6135   0.6171   0.6267   0.6319   0.6362   0.6408   0.6440
  0.6557   0.6617   0.6715   0.6739   0.6813   0.6889   0.6897   0.6914
  0.6995   0.7073   0.7099   0.7122   0.7149   0.7162   0.7243   0.7341
  0.7361   0.7393   0.7418   0.7447   0.7473   0.7493   0.7526   0.7577
  0.7636   0.7644   0.7705   0.7718   0.7780   0.7828   0.7855   0.7890
  0.7958   0.7980   0.7996   0.8031   0.8039   0.8100   0.8123   0.8140
  0.8186   0.8218   0.8262   0.8307   0.8324   0.8369   0.8430   0.8455
  0.8472   0.8501   0.8550   0.8557   0.8619   0.8657   0.8735   0.8769
  0.8790   0.8841   0.8910   0.8918   0.8953   0.9007   0.9059   0.9112
  0.9141   0.9268   0.9294   0.9319   0.9365   0.9376   0.9464   0.9526
  0.9653   0.9659   0.9757   0.9840   0.9968   1.0012   1.0120   1.0234
  1.0256   1.0292   1.0434   1.0528   1.0608   1.0685   1.0700   1.0756
  1.0865   1.0884   1.0949   1.0972   1.1049   1.1083   1.1135   1.1226
  1.1254   1.1381   1.1413   1.1542   1.1606   1.1684   1.1895   1.2038
  1.2077   1.2280   1.2501   1.2745   1.2862   1.3053   1.3206   1.3249
  1.3525   1.3681   1.3699   1.3742   1.3756   1.3842   1.3977   1.4157
  1.4206   1.4558   1.4615   1.4648   1.4663   1.4697   1.4813   1.4858
  1.4880   1.5044   1.5098   1.5464   1.5492   1.5705   1.5734   1.6164
  1.6205   1.6277   1.6371   1.6430   1.6450   1.6551   1.6599   1.6714
  1.6863   1.6909   1.6971   1.7464   1.7533   1.7683   1.7824   1.7961
  1.7985   1.8035   1.8094   1.8172   1.8321   1.8416   1.8541   1.8562
  1.8674   1.8814   1.9003   1.9131   1.9239   1.9283   1.9334   1.9404
  1.9447   1.9469   1.9614   1.9774   1.9848   1.9915   1.9951   2.0051
  2.0087   2.0152   2.0240   2.0331   2.0466   2.0494   2.0553   2.0754
  2.0813   2.0854   2.0956   2.1003   2.1132   2.1206   2.1316   2.1471
  2.1629   2.1701   2.1899   2.1986   2.2119   2.2157   2.2244   2.2276
  2.2506   2.2533   2.2589   2.2749   2.2826   2.2856   2.2924   2.3157
  2.3186   2.3376   2.3519   2.3983   2.4075   2.4107   2.4190   2.4298
  2.4359   2.4470   2.4513   2.4738   2.4893   2.5318   2.5399   2.5600
  2.5672   2.5777   2.5802   2.5857   2.5974   2.6163   2.6200   2.6400
  2.6556   2.6613   2.6632   2.6777   2.6795   2.6913   2.7015   2.7130
  2.7177   2.7356   2.7465   2.7710   2.7746   2.7818   2.7882   2.7961
  2.8090   2.8133   2.8220   2.8254   2.8351   2.8549   2.8660   2.8685
  2.8788   2.9075   2.9120   2.9245   2.9303   2.9355   2.9379   2.9452
  2.9486   2.9555   2.9731   2.9954   2.9964   3.0045   3.0068   3.0138
  3.0227   3.0247   3.0333   3.0407   3.0518   3.0655   3.0734   3.0823
  3.0894   3.0994   3.1089   3.1180   3.1242   3.1560   3.1593   3.1791
  3.1834   3.1985   3.2044   3.2195   3.2287   3.2349   3.2465   3.2505
  3.2580   3.2783   3.2829   3.2842   3.2954   3.3123   3.3468   3.3562
  3.3632   3.3684   3.3753   3.3772   3.3881   3.3995   3.4030   3.4270
  3.4339   3.4389   3.4426   3.4469   3.4551   3.4662   3.4684   3.4719
  3.4754   3.4822   3.4944   3.4989   3.5056   3.5137   3.5245   3.5260
  3.5311   3.5462   3.5540   3.5590   3.5645   3.5700   3.5717   3.5750
  3.5764   3.5798   3.5849   3.5925   3.6064   3.6212   3.6278   3.6371
  3.6419   3.6454   3.6623   3.6724   3.6784   3.6938   3.7035   3.7110
  3.7343   3.7404   3.7599   3.7706   3.7777   3.8207   3.8254   3.8563
  3.8675   3.9144   3.9221   3.9375   3.9445   3.9499   3.9645   3.9695
  3.9848   3.9967   4.0107   4.0369   4.0554   4.0714   4.0866   4.1485
  4.1524   4.2319   4.2370   4.2775   4.2849   4.2875   4.2957   4.3016
  4.3047   4.3094   4.3285   4.3392   4.3411   4.3426   4.3553   4.3569
  4.3718   4.3797   4.3875   4.3908   4.4054   4.4081   4.4215   4.4267
  4.4485   4.4610   4.4811   4.5039   4.5295   4.5484   4.5582   4.6014
  4.6154   4.6192   4.6279   4.7825   4.7883   4.7907   4.8130   4.8215
  4.8277   4.8324   4.8679   4.9239   4.9327   4.9633   4.9720   5.0476
  5.0541   5.0584   5.0649   5.1760   5.1958   5.2815   5.2876   5.3687
  5.3791   5.3980   5.4079   5.4934   5.5124   5.5336   5.5430   5.6785
  5.6925   5.8304   5.8649  22.6168  22.6769  22.6930  22.7094  22.8997
 22.9259  22.9323  22.9586  23.0119  23.0441  23.0690  23.1182  23.4101
 23.4523
 --------------------------------------------------------------
 
          Ground-State Mulliken Net Atomic Charges

     Atom                 Charge (a.u.)
  ----------------------------------------
      1 C                    -1.164973
      2 C                    -0.408432
      3 C                    -0.594067
      4 C                    -0.584699
      5 C                     0.809719
      6 C                    -0.546221
      7 C                    -0.419368
      8 H                     0.460670
      9 H                     0.424915
     10 H                     0.372966
     11 H                     0.380879
     12 H                     0.303786
     13 H                     0.282006
     14 H                     0.423864
     15 H                     0.250431
     16 C                    -1.131310
     17 C                    -0.220097
     18 C                    -0.423770
     19 C                    -0.615113
     20 C                     0.575121
     21 C                    -0.701017
     22 C                    -0.373417
     23 H                     0.466526
     24 H                     0.419265
     25 H                     0.377205
     26 H                     0.389144
     27 H                     0.249507
     28 H                     0.298994
     29 H                     0.424500
     30 H                     0.272983
  ----------------------------------------
  Sum of atomic charges =     0.000000

 -----------------------------------------------------------------
                    Cartesian Multipole Moments
 -----------------------------------------------------------------
    Charge (ESU x 10^10)
                -0.0000
    Dipole Moment (Debye)
         X       0.3972      Y       0.1382      Z       0.6461
       Tot       0.7710
    Quadrupole Moments (Debye-Ang)
        XX     -79.0280     XY      -5.0596     YY     -75.5289
        XZ      -0.5354     YZ       1.9049     ZZ     -83.2153
    Octopole Moments (Debye-Ang^2)
       XXX      61.3735    XXY      -4.1400    XYY      -7.0118
       YYY      -4.8180    XXZ      16.9199    XYZ      -3.4205
       YYZ      -7.1820    XZZ     -21.9068    YZZ      13.2584
       ZZZ       3.9498
    Hexadecapole Moments (Debye-Ang^3)
      XXXX   -4414.1157   XXXY    1209.5411   XXYY   -1002.6306
      XYYY    1183.6780   YYYY   -2142.6087   XXXZ     233.0932
      XXYZ     -61.1043   XYYZ      78.9619   YYYZ    -206.9457
      XXZZ    -874.5881   XYZZ     435.8854   YYZZ    -497.2147
      XZZZ     277.3333   YZZZ    -262.3395   ZZZZ    -726.1420
 -----------------------------------------------------------------
Archival summary:
1\1\nid00566\SP\ProcedureUnspecified\BasisUnspecified\1416\meili\MonSep2706:29:002021MonSep2706:29:002021\0\\#,ProcedureUnspecified,BasisUnspecified,\\0,1\C\H,1,1.08186\C,1,1.39439,2,120.014\H,3,1.07986,1,120.505,2,0.160832,0\C,3,1.39546,1,119.61,2,179.984,0\H,5,1.08028,3,120.371,1,178.519,0\C,1,1.40005,2,119.959,3,178.963,0\H,7,1.08116,1,119.369,2,0.162691,0\C,7,1.39598,1,120.73,2,179.684,0\C,9,1.39797,7,118.985,1,0.91436,0\H,10,1.08013,9,120.45,7,-179.093,0\C,9,1.50818,7,120.486,1,179.761,0\H,12,1.08774,9,108.561,7,115.845,0\H,12,1.09214,9,109.514,7,-1.48274,0\H,12,1.1,9,113.748,7,-123.598,0\H,4,2.2345,3,126.913,1,-24.1969,0\C,16,1.07899,4,150.93,3,48.0265,0\C,17,1.38453,16,120.181,4,59.2456,0\H,18,1.07758,17,120.073,16,0.0242159,0\C,18,1.38418,17,120.17,16,178.766,0\H,20,1.08259,18,119.926,17,-179.659,0\C,20,1.38936,18,119.99,17,0.514461,0\H,22,1.08175,20,119.587,18,179.881,0\C,22,1.39328,20,120.316,18,-0.740768,0\C,24,1.38778,22,119.272,20,1.32759,0\H,25,1.08081,24,120.025,22,179.345,0\C,24,1.50295,22,119.702,20,178.234,0\H,27,1.08441,24,110.742,22,172.466,0\H,27,1.08583,24,107.95,22,54.6817,0\H,27,1.1,24,112.978,22,-67.1571,0\\\@

 Total job time:  77308.58s(wall), 44017.48s(cpu) 
 Mon Sep 27 06:29:02 2021

        *************************************************************
        *                                                           *
        *  Thank you very much for using Q-Chem.  Have a nice day.  *
        *                                                           *
        *************************************************************


