                  Welcome to Q-Chem
     A Quantum Leap Into The Future Of Chemistry


 Q-Chem 5.2 (devel), Q-Chem, Inc., Pleasanton, CA (2019)

 Yihan Shao,  Zhengting Gan,  E. Epifanovsky,  A. T. B. Gilbert,  M. Wormit,  
 J. Kussmann,  A. W. Lange,  A. Behn,  Jia Deng,  Xintian Feng,  D. Ghosh,  
 M. Goldey,  P. R. Horn,  L. D. Jacobson,  I. Kaliman,  T. Kus,  A. Landau,  
 Jie Liu,  E. I. Proynov,  R. M. Richard,  R. P. Steele,  E. J. Sundstrom,  
 H. L. Woodcock III,  P. M. Zimmerman,  D. Zuev,  B. Albrecht,  E. Alguire,  
 S. A. Baeppler,  D. Barton,  Z. Benda,  Y. A. Bernard,  E. J. Berquist,  
 K. B. Bravaya,  H. Burton,  D. Casanova,  Chun-Min Chang,  Yunqing Chen,  
 A. Chien,  K. D. Closser,  M. P. Coons,  S. Coriani,  S. Dasgupta,  
 A. L. Dempwolff,  M. Diedenhofen,  Hainam Do,  R. G. Edgar,  Po-Tung Fang,  
 S. Faraji,  S. Fatehi,  Qingguo Feng,  K. D. Fenk,  J. Fosso-Tande,  
 J. Gayvert,  Qinghui Ge,  A. Ghysels,  G. Gidofalvi,  J. Gomes,  
 J. Gonthier,  A. Gunina,  D. Hait,  M. W. D. Hanson-Heine,  
 P. H. P. Harbach,  A. W. Hauser,  M. F. Herbst,  J. E. Herr,  
 E. G. Hohenstein,  Z. C. Holden,  Kerwin Hui,  B. C. Huynh,  T.-C. Jagau,  
 Hyunjun Ji,  B. Kaduk,  K. Khistyaev,  Jaehoon Kim,  P. Klunzinger,  K. Koh,  
 D. Kosenkov,  L. Koulias,  T. Kowalczyk,  C. M. Krauter,  A. Kunitsa,  
 Ka Un Lao,  A. Laurent,  K. V. Lawler,  Joonho Lee,  D. Lefrancois,  
 S. Lehtola,  D. S. Levine,  Yi-Pei Li,  You-Sheng Lin,  Fenglai Liu,  
 E. Livshits,  A. Luenser,  P. Manohar,  E. Mansoor,  S. F. Manzer,  
 Shan-Ping Mao,  Yuezhi Mao,  N. Mardirossian,  A. V. Marenich,  
 T. Markovich,  L. A. Martinez-Martinez,  S. A. Maurer,  N. J. Mayhall,  
 S. C. McKenzie,  J.-M. Mewes,  P. Morgante,  A. F. Morrison,  
 J. W. Mullinax,  K. Nanda,  T. S. Nguyen-Beck,  R. Olivares-Amaya,  
 J. A. Parkhill,  Zheng Pei,  T. M. Perrine,  F. Plasser,  P. Pokhilko,  
 S. Prager,  A. Prociuk,  E. Ramos,  D. R. Rehn,  F. Rob,  M. Scheurer,  
 M. Schneider,  N. Sergueev,  S. M. Sharada,  S. Sharma,  D. W. Small,  
 T. Stauch,  T. Stein,  Yu-Chuan Su,  A. J. W. Thom,  A. Tkatchenko,  
 T. Tsuchimochi,  N. M. Tubman,  L. Vogt,  M. L. Vidal,  O. Vydrov,  
 M. A. Watson,  J. Wenzel,  M. de Wergifosse,  T. A. Wesolowski,  A. White,  
 J. Witte,  A. Yamada,  Jun Yang,  K. Yao,  S. Yeganeh,  S. R. Yost,  
 Zhi-Qiang You,  A. Zech,  Igor Ying Zhang,  Xing Zhang,  Yan Zhao,  
 Ying Zhu,  B. R. Brooks,  G. K. L. Chan,  C. J. Cramer,  M. S. Gordon,  
 W. J. Hehre,  A. Klamt,  M. W. Schmidt,  C. D. Sherrill,  D. G. Truhlar,  
 A. Aspuru-Guzik,  R. Baer,  A. T. Bell,  N. A. Besley,  Jeng-Da Chai,  
 A. E. DePrince, III,  R. A. DiStasio Jr.,  A. Dreuw,  B. D. Dunietz,  
 T. R. Furlani,  Chao-Ping Hsu,  Yousung Jung,  Jing Kong,  D. S. Lambrecht,  
 WanZhen Liang,  C. Ochsenfeld,  V. A. Rassolov,  L. V. Slipchenko,  
 J. E. Subotnik,  T. Van Voorhis,  J. M. Herbert,  A. I. Krylov,  
 P. M. W. Gill,  M. Head-Gordon

 Contributors to earlier versions of Q-Chem not listed above: 
 R. D. Adamson,  B. Austin,  J. Baker,  G. J. O. Beran,  K. Brandhorst,  
 S. T. Brown,  E. F. C. Byrd,  A. K. Chakraborty,  C.-L. Cheng,  
 Siu Hung Chien,  D. M. Chipman,  D. L. Crittenden,  H. Dachsel,  
 R. J. Doerksen,  A. D. Dutoi,  L. Fusti-Molnar,  W. A. Goddard III,  
 A. Golubeva-Zadorozhnaya,  S. R. Gwaltney,  G. Hawkins,  A. Heyden,  
 S. Hirata,  G. Kedziora,  F. J. Keil,  C. Kelley,  Jihan Kim,  R. A. King,  
 R. Z. Khaliullin,  P. P. Korambath,  W. Kurlancheek,  A. M. Lee,  M. S. Lee,  
 S. V. Levchenko,  Ching Yeh Lin,  D. Liotard,  R. C. Lochan,  I. Lotan,  
 P. E. Maslen,  N. Nair,  D. P. O'Neill,  D. Neuhauser,  E. Neuscamman,  
 C. M. Oana,  R. Olson,  B. Peters,  R. Peverati,  P. A. Pieniazek,  
 Y. M. Rhee,  J. Ritchie,  M. A. Rohrdanz,  E. Rosta,  N. J. Russ,  
 H. F. Schaefer III,  N. E. Schultz,  N. Shenvi,  A. C. Simmonett,  A. Sodt,  
 D. Stuck,  K. S. Thanthiriwatte,  V. Vanovschi,  Tao Wang,  A. Warshel,  
 C. F. Williams,  Q. Wu,  X. Xu,  W. Zhang

 Please cite Q-Chem as follows:
 Y. Shao et al., Mol. Phys. 113, 184-215 (2015)
 DOI: 10.1080/00268976.2014.952696

 Q-Chem 5.2.1 for Intel X86 EM64T Linux

 Parts of Q-Chem use Armadillo 8.300.2 (Tropical Shenanigans).
 http://arma.sourceforge.net/

 Q-Chem begins on Wed Sep 29 02:20:45 2021  

compute-0-5.local
Host: 0

     Scratch files written to /home/meili/scratch/qchem14562//
NAlpha2: 108
NElect   108
Mult     1
Symmetry turned off for PCM/SM12/SMD calculation

 Q-Chem warning in module libgen/rem_setup.C, line 2813:

 Neither GIA nor STOLL is specified by user. Use STOLL as the default


Checking the input file for inconsistencies... 	...done.

--------------------------------------------------------------
User input:
--------------------------------------------------------------
$comment
SSI-040PHE-133PHE-1.pdb
$end

$molecule
0 1
--
0 1
C    0.943361447994    2.161430120766   -0.689047647982
C    1.880361447994    3.340430120766   -0.956047647982
C    1.281361447994    0.913430120766   -1.469047647982
C    2.266361447994    0.033430120766   -1.014047647982
C    0.575361447994    0.602430120766   -2.634047647982
C    2.556361447994   -1.134569879234   -1.727047647982
C    0.858361447994   -0.562569879234   -3.346047647982
C    1.847361447994   -1.433569879234   -2.893047647982
H    0.979361447994    1.921430120766    0.374952352018
H   -0.082638552006    2.456430120766   -0.917047647982
H    2.892361447994    3.044430120766   -0.674047647982
H    2.810361447994    0.251430120766   -0.107047647982
H   -0.199638552006    1.266430120766   -2.990047647982
H    3.323361447994   -1.809569879234   -1.375047647982
H    0.299361447994   -0.806569879234   -4.236047647982
H    2.065361447994   -2.340569879234   -3.441047647982
H    1.571413447994    4.196440120766   -0.338151647982
H    1.899049447994    3.602780120766   -2.024140647982
--
0 1
C   -4.009638552006    0.008430120766    2.801952352018
C   -0.943638552006   -0.558569879234    0.642952352018
C   -0.056638552006   -1.132569879234    1.545952352018
C   -2.217638552006   -0.181569879234    1.056952352018
C   -2.625638552006   -0.386569879234    2.370952352018
C   -0.455638552006   -1.345569879234    2.861952352018
C   -1.739638552006   -0.972569879234    3.272952352018
H   -0.654638552006   -0.426569879234   -0.387047647982
H    0.935361447994   -1.421569879234    1.223952352018
H   -2.892638552006    0.282430120766    0.352952352018
H    0.240361447994   -1.780569879234    3.560952352018
H   -4.324638552006    0.879430120766    2.224952352018
H   -3.977638552006    0.317430120766    3.847952352018
H   -2.037638552006   -1.120569879234    4.296952352018
H   -4.756998552006   -0.790519879234    2.687305252018
$end

$rem
JOBTYPE			EDA
EDA2			1
method			wB97X-V
BASIS			def2-TZVPD
XC_GRID			000099000590
NL_GRID			1
UNRESTRICTED		FALSE
MAX_SCF_CYCLES		200
SYMMETRY		FALSE
SYM_IGNORE		TRUE
MEM_STATIC		2000
BASIS_LIN_DEP_THRESH 	6
THRESH 			14
SCF_CONVERGENCE 	8
SCF_PRINT_FRGM 		TRUE
SOLVENT_METHOD          PCM
$end

$PCM
THEORY                  CPCM
METHOD                  SWIG
SOLVER                  INVERSION
RADII                   UFF
HPOINTS                 302
HEAVYPOINTS             302
PRINTLEVEL              0
$END

$SOLVENT
DIELECTRIC              78.390000 ! water
$END
--------------------------------------------------------------
 ----------------------------------------------------------------
             Standard Nuclear Orientation (Angstroms)
    I     Atom           X                Y                Z
 ----------------------------------------------------------------
    1      C       0.9433614480     2.1614301208    -0.6890476480
    2      C       1.8803614480     3.3404301208    -0.9560476480
    3      C       1.2813614480     0.9134301208    -1.4690476480
    4      C       2.2663614480     0.0334301208    -1.0140476480
    5      C       0.5753614480     0.6024301208    -2.6340476480
    6      C       2.5563614480    -1.1345698792    -1.7270476480
    7      C       0.8583614480    -0.5625698792    -3.3460476480
    8      C       1.8473614480    -1.4335698792    -2.8930476480
    9      H       0.9793614480     1.9214301208     0.3749523520
   10      H      -0.0826385520     2.4564301208    -0.9170476480
   11      H       2.8923614480     3.0444301208    -0.6740476480
   12      H       2.8103614480     0.2514301208    -0.1070476480
   13      H      -0.1996385520     1.2664301208    -2.9900476480
   14      H       3.3233614480    -1.8095698792    -1.3750476480
   15      H       0.2993614480    -0.8065698792    -4.2360476480
   16      H       2.0653614480    -2.3405698792    -3.4410476480
   17      H       1.5714134480     4.1964401208    -0.3381516480
   18      H       1.8990494480     3.6027801208    -2.0241406480
   19      C      -4.0096385520     0.0084301208     2.8019523520
   20      C      -0.9436385520    -0.5585698792     0.6429523520
   21      C      -0.0566385520    -1.1325698792     1.5459523520
   22      C      -2.2176385520    -0.1815698792     1.0569523520
   23      C      -2.6256385520    -0.3865698792     2.3709523520
   24      C      -0.4556385520    -1.3455698792     2.8619523520
   25      C      -1.7396385520    -0.9725698792     3.2729523520
   26      H      -0.6546385520    -0.4265698792    -0.3870476480
   27      H       0.9353614480    -1.4215698792     1.2239523520
   28      H      -2.8926385520     0.2824301208     0.3529523520
   29      H       0.2403614480    -1.7805698792     3.5609523520
   30      H      -4.3246385520     0.8794301208     2.2249523520
   31      H      -3.9776385520     0.3174301208     3.8479523520
   32      H      -2.0376385520    -1.1205698792     4.2969523520
   33      H      -4.7569985520    -0.7905198792     2.6873052520
 ----------------------------------------------------------------
 Nuclear Repulsion Energy =         890.62347862 hartrees
 There are       54 alpha and       54 beta electrons
 Requested basis set is def2-TZVPD
 There are 285 shells and 717 basis functions

 Total QAlloc Memory Limit   2000 MB
 Mega-Array Size      1956 MB
 MEM_STATIC part      2000 MB
 Discretize the solute cavity surface with Lebedev spheres
	Using 302 Lebedev grid points for each H atom
	Using 302 Lebedev grid points for other atoms
	Atomic van der Waals radii will be scaled by 1.20
 Remove points where switching function is < 1.0e-08
 Keep 3555 surface tesserae and discard 6411 interior tesserae
 Molecular Surface Area = 339.936 Angst**2
 A cutoff of  1.0D-14 yielded  34631 shell pairs
 There are    220343 function pairs (    277184 Cartesian)
 Smallest overlap matrix eigenvalue = 4.27E-07
 Linear dependence detected in AO basis
 Tighter screening thresholds may be required for diffuse basis sets
 Use S2THRESH > 14 and THRESH = 14 in case of SCF convergence issues
 Number of orthogonalized atomic orbitals = 713
 Maximum deviation from orthogonality = 1.527E-10

 Scale SEOQF with 1.000000e-01/1.000000e-01/1.000000e-01

 Standard Electronic Orientation quadrupole field applied
 Nucleus-field energy     =    -0.0000000253 hartrees

 -----------------------------------------------------------------------
  General SCF calculation program by
  Eric Jon Sundstrom, Paul Horn, Yuezhi Mao, Dmitri Zuev, Alec White,
  David Stuck, Shaama M.S., Shane Yost, Joonho Lee, David Small,
  Daniel Levine, Susi Lehtola, Hugh Burton, Evgeny Epifanovsky,
  Bang C. Huynh
 -----------------------------------------------------------------------
================================================================
                 ALMO-EDA with the EDA2 driver                  
================================================================
 The second-generation ALMO-EDA (for DFT):                      
 P. R. Horn, Y. Mao and M. Head-Gordon, PCCP, 18, 23067 (2016)  
 Decomposition of the frozen energy:                            
 P. R. Horn, Y. Mao and M. Head-Gordon, JCP, 144, 114107 (2016) 
 FERF model for polarization:                                   
 P. R. Horn and M. Head-Gordon, JCP, 143, 114111 (2015)         
Using eda2 option set 1
Option set summary: Frozen orbital wavefunction, initial wavefunction decomposition, and nDQ polarization.
--------------------------------
Printing EDA Options
--------------------------------
eda_child_super_basis      0
fragmo_guess_mode          0
child_mp                   1
child_mp_orders            232
cls_elec                   1
cls_disp                   0
scfmi_mode                 1
scfmi_occs                 0
scfmi_virts                0
frz_relax                  0
frz_relax_method           0
dc_pen_start               0
dc_pen_conv                0
dc_pen_increment           0
dc_pen_steps               0
dc_pen_thresh_factor       0
dc_pen_pre_newton_thresh   0
frz_ortho_decomp           1
frz_ortho_decomp_conv      6
frgm_method                2
scfmi_freeze_ss            0
separate_rehyb             0
plot_diff_den              0
eda_nocv                   0
eda_vct_relax              1
disp_free_x                0
disp_free_c                0
eda_bsse                   0
eda_pct_a                  0
eda_covp                   0
--------------------------------
Attempting to make child job directory: /home/meili/scratch/qchem14562//Frg1/
Attempting to make child job directory: /home/meili/scratch/qchem14562//Frg2/
Creating input file /home/meili/scratch/qchem14562/Frg1.input
using default PutDataFrgm: nothing
calling putenv with: QCSCRATCH=/home/meili/scratch/qchem14562/ 
Spawning Job For Fragment 0
                  Welcome to Q-Chem
     A Quantum Leap Into The Future Of Chemistry


 Q-Chem 5.2 (devel), Q-Chem, Inc., Pleasanton, CA (2019)

 Yihan Shao,  Zhengting Gan,  E. Epifanovsky,  A. T. B. Gilbert,  M. Wormit,  
 J. Kussmann,  A. W. Lange,  A. Behn,  Jia Deng,  Xintian Feng,  D. Ghosh,  
 M. Goldey,  P. R. Horn,  L. D. Jacobson,  I. Kaliman,  T. Kus,  A. Landau,  
 Jie Liu,  E. I. Proynov,  R. M. Richard,  R. P. Steele,  E. J. Sundstrom,  
 H. L. Woodcock III,  P. M. Zimmerman,  D. Zuev,  B. Albrecht,  E. Alguire,  
 S. A. Baeppler,  D. Barton,  Z. Benda,  Y. A. Bernard,  E. J. Berquist,  
 K. B. Bravaya,  H. Burton,  D. Casanova,  Chun-Min Chang,  Yunqing Chen,  
 A. Chien,  K. D. Closser,  M. P. Coons,  S. Coriani,  S. Dasgupta,  
 A. L. Dempwolff,  M. Diedenhofen,  Hainam Do,  R. G. Edgar,  Po-Tung Fang,  
 S. Faraji,  S. Fatehi,  Qingguo Feng,  K. D. Fenk,  J. Fosso-Tande,  
 J. Gayvert,  Qinghui Ge,  A. Ghysels,  G. Gidofalvi,  J. Gomes,  
 J. Gonthier,  A. Gunina,  D. Hait,  M. W. D. Hanson-Heine,  
 P. H. P. Harbach,  A. W. Hauser,  M. F. Herbst,  J. E. Herr,  
 E. G. Hohenstein,  Z. C. Holden,  Kerwin Hui,  B. C. Huynh,  T.-C. Jagau,  
 Hyunjun Ji,  B. Kaduk,  K. Khistyaev,  Jaehoon Kim,  P. Klunzinger,  K. Koh,  
 D. Kosenkov,  L. Koulias,  T. Kowalczyk,  C. M. Krauter,  A. Kunitsa,  
 Ka Un Lao,  A. Laurent,  K. V. Lawler,  Joonho Lee,  D. Lefrancois,  
 S. Lehtola,  D. S. Levine,  Yi-Pei Li,  You-Sheng Lin,  Fenglai Liu,  
 E. Livshits,  A. Luenser,  P. Manohar,  E. Mansoor,  S. F. Manzer,  
 Shan-Ping Mao,  Yuezhi Mao,  N. Mardirossian,  A. V. Marenich,  
 T. Markovich,  L. A. Martinez-Martinez,  S. A. Maurer,  N. J. Mayhall,  
 S. C. McKenzie,  J.-M. Mewes,  P. Morgante,  A. F. Morrison,  
 J. W. Mullinax,  K. Nanda,  T. S. Nguyen-Beck,  R. Olivares-Amaya,  
 J. A. Parkhill,  Zheng Pei,  T. M. Perrine,  F. Plasser,  P. Pokhilko,  
 S. Prager,  A. Prociuk,  E. Ramos,  D. R. Rehn,  F. Rob,  M. Scheurer,  
 M. Schneider,  N. Sergueev,  S. M. Sharada,  S. Sharma,  D. W. Small,  
 T. Stauch,  T. Stein,  Yu-Chuan Su,  A. J. W. Thom,  A. Tkatchenko,  
 T. Tsuchimochi,  N. M. Tubman,  L. Vogt,  M. L. Vidal,  O. Vydrov,  
 M. A. Watson,  J. Wenzel,  M. de Wergifosse,  T. A. Wesolowski,  A. White,  
 J. Witte,  A. Yamada,  Jun Yang,  K. Yao,  S. Yeganeh,  S. R. Yost,  
 Zhi-Qiang You,  A. Zech,  Igor Ying Zhang,  Xing Zhang,  Yan Zhao,  
 Ying Zhu,  B. R. Brooks,  G. K. L. Chan,  C. J. Cramer,  M. S. Gordon,  
 W. J. Hehre,  A. Klamt,  M. W. Schmidt,  C. D. Sherrill,  D. G. Truhlar,  
 A. Aspuru-Guzik,  R. Baer,  A. T. Bell,  N. A. Besley,  Jeng-Da Chai,  
 A. E. DePrince, III,  R. A. DiStasio Jr.,  A. Dreuw,  B. D. Dunietz,  
 T. R. Furlani,  Chao-Ping Hsu,  Yousung Jung,  Jing Kong,  D. S. Lambrecht,  
 WanZhen Liang,  C. Ochsenfeld,  V. A. Rassolov,  L. V. Slipchenko,  
 J. E. Subotnik,  T. Van Voorhis,  J. M. Herbert,  A. I. Krylov,  
 P. M. W. Gill,  M. Head-Gordon

 Contributors to earlier versions of Q-Chem not listed above: 
 R. D. Adamson,  B. Austin,  J. Baker,  G. J. O. Beran,  K. Brandhorst,  
 S. T. Brown,  E. F. C. Byrd,  A. K. Chakraborty,  C.-L. Cheng,  
 Siu Hung Chien,  D. M. Chipman,  D. L. Crittenden,  H. Dachsel,  
 R. J. Doerksen,  A. D. Dutoi,  L. Fusti-Molnar,  W. A. Goddard III,  
 A. Golubeva-Zadorozhnaya,  S. R. Gwaltney,  G. Hawkins,  A. Heyden,  
 S. Hirata,  G. Kedziora,  F. J. Keil,  C. Kelley,  Jihan Kim,  R. A. King,  
 R. Z. Khaliullin,  P. P. Korambath,  W. Kurlancheek,  A. M. Lee,  M. S. Lee,  
 S. V. Levchenko,  Ching Yeh Lin,  D. Liotard,  R. C. Lochan,  I. Lotan,  
 P. E. Maslen,  N. Nair,  D. P. O'Neill,  D. Neuhauser,  E. Neuscamman,  
 C. M. Oana,  R. Olson,  B. Peters,  R. Peverati,  P. A. Pieniazek,  
 Y. M. Rhee,  J. Ritchie,  M. A. Rohrdanz,  E. Rosta,  N. J. Russ,  
 H. F. Schaefer III,  N. E. Schultz,  N. Shenvi,  A. C. Simmonett,  A. Sodt,  
 D. Stuck,  K. S. Thanthiriwatte,  V. Vanovschi,  Tao Wang,  A. Warshel,  
 C. F. Williams,  Q. Wu,  X. Xu,  W. Zhang

 Please cite Q-Chem as follows:
 Y. Shao et al., Mol. Phys. 113, 184-215 (2015)
 DOI: 10.1080/00268976.2014.952696

 Q-Chem 5.2.1 for Intel X86 EM64T Linux

 Parts of Q-Chem use Armadillo 8.300.2 (Tropical Shenanigans).
 http://arma.sourceforge.net/

 Q-Chem begins on Wed Sep 29 02:20:52 2021  

compute-0-5.local
Host: 0

     Scratch files written to /home/meili/scratch/qchem14562//Frg1//
NAlpha2: 58
NElect   58
Mult     1
Symmetry turned off for PCM/SM12/SMD calculation

Checking the input file for inconsistencies... 	...done.

--------------------------------------------------------------
User input:
--------------------------------------------------------------
$molecule
0 1
 6	0.9433614480	2.1614301208	-0.6890476480
 6	1.8803614480	3.3404301208	-0.9560476480
 6	1.2813614480	0.9134301208	-1.4690476480
 6	2.2663614480	0.0334301208	-1.0140476480
 6	0.5753614480	0.6024301208	-2.6340476480
 6	2.5563614480	-1.1345698792	-1.7270476480
 6	0.8583614480	-0.5625698792	-3.3460476480
 6	1.8473614480	-1.4335698792	-2.8930476480
 1	0.9793614480	1.9214301208	0.3749523520
 1	-0.0826385520	2.4564301208	-0.9170476480
 1	2.8923614480	3.0444301208	-0.6740476480
 1	2.8103614480	0.2514301208	-0.1070476480
 1	-0.1996385520	1.2664301208	-2.9900476480
 1	3.3233614480	-1.8095698792	-1.3750476480
 1	0.2993614480	-0.8065698792	-4.2360476480
 1	2.0653614480	-2.3405698792	-3.4410476480
 1	1.5714134480	4.1964401208	-0.3381516480
 1	1.8990494480	3.6027801208	-2.0241406480
$end
$rem
EDA2		1
METHOD		WB97X-V
BASIS		DEF2-TZVPD
XC_GRID		000099000590
NL_GRID		1
UNRESTRICTED		FALSE
MAX_SCF_CYCLES		200
SYMMETRY		FALSE
SYM_IGNORE		TRUE
BASIS_LIN_DEP_THRESH		6
THRESH		14
SCF_CONVERGENCE		8
SCF_PRINT_FRGM		TRUE
SOLVENT_METHOD		PCM
!required keywords
JOBTYPE		SP
SYM_IGNORE		TRUE
SUBSYSTEM		TRUE
GEN_SCFMAN		TRUE
CHILD_INSTRUCTION		2
SYM_IGNORE		TRUE
SCFMI		0
RI_K 0		
PARI_K 0		
MIN_PARI_K 0		
IARI_K 0		
OCC_RI_K 0		
PURECART		1111
MEM_STATIC		2000
MEM_TOTAL		2000
GUI		0
CHILD_MP		1
CHILD_MP_ORDERS		232
FRZ_RELAX		0
FRZ_RELAX_METHOD		0
EDA_CLS_ELEC		1
EDA_CLS_DISP		0
FRZ_ORTHO_DECOMP		1
EDA2		FALSE
FRGM_METHOD		FALSE
CIS_N_ROOTS  0
LOCAL_CIS    0
CIS_RLX_DNS  1
$end
$pcm
THEORY                  CPCM
METHOD                  SWIG
SOLVER                  INVERSION
RADII                   UFF
HPOINTS                 302
HEAVYPOINTS             302
PRINTLEVEL              0
$end
$solvent
DIELECTRIC              78.390000 ! water
$end
--------------------------------------------------------------
 ----------------------------------------------------------------
             Standard Nuclear Orientation (Angstroms)
    I     Atom           X                Y                Z
 ----------------------------------------------------------------
    1      C       0.9433614480     2.1614301208    -0.6890476480
    2      C       1.8803614480     3.3404301208    -0.9560476480
    3      C       1.2813614480     0.9134301208    -1.4690476480
    4      C       2.2663614480     0.0334301208    -1.0140476480
    5      C       0.5753614480     0.6024301208    -2.6340476480
    6      C       2.5563614480    -1.1345698792    -1.7270476480
    7      C       0.8583614480    -0.5625698792    -3.3460476480
    8      C       1.8473614480    -1.4335698792    -2.8930476480
    9      H       0.9793614480     1.9214301208     0.3749523520
   10      H      -0.0826385520     2.4564301208    -0.9170476480
   11      H       2.8923614480     3.0444301208    -0.6740476480
   12      H       2.8103614480     0.2514301208    -0.1070476480
   13      H      -0.1996385520     1.2664301208    -2.9900476480
   14      H       3.3233614480    -1.8095698792    -1.3750476480
   15      H       0.2993614480    -0.8065698792    -4.2360476480
   16      H       2.0653614480    -2.3405698792    -3.4410476480
   17      H       1.5714134480     4.1964401208    -0.3381516480
   18      H       1.8990494480     3.6027801208    -2.0241406480
 ----------------------------------------------------------------
 Nuclear Repulsion Energy =         339.80731385 hartrees
 There are       29 alpha and       29 beta electrons
 Requested basis set is def2-TZVPD
 There are 154 shells and 386 basis functions

 Total QAlloc Memory Limit   2000 MB
 Mega-Array Size      1956 MB
 MEM_STATIC part      2000 MB
 Discretize the solute cavity surface with Lebedev spheres
	Using 302 Lebedev grid points for each H atom
	Using 302 Lebedev grid points for other atoms
	Atomic van der Waals radii will be scaled by 1.20
 Remove points where switching function is < 1.0e-08
 Keep 2070 surface tesserae and discard 3366 interior tesserae
 Molecular Surface Area = 202.558 Angst**2
 A cutoff of  1.0D-14 yielded  11346 shell pairs
 There are     72664 function pairs (     92071 Cartesian)
 Smallest overlap matrix eigenvalue = 5.38E-07
 Linear dependence detected in AO basis
 Tighter screening thresholds may be required for diffuse basis sets
 Use S2THRESH > 14 and THRESH = 14 in case of SCF convergence issues
 Number of orthogonalized atomic orbitals = 385
 Maximum deviation from orthogonality = 1.387E-10

 Scale SEOQF with 1.000000e-01/1.000000e-01/1.000000e-01

 Standard Electronic Orientation quadrupole field applied
 Nucleus-field energy     =    -0.0000000075 hartrees
 Guess from superposition of atomic densities
 Warning:  Energy on first SCF cycle will be non-variational
 SAD guess density has 58.000000 electrons

 -----------------------------------------------------------------------
  General SCF calculation program by
  Eric Jon Sundstrom, Paul Horn, Yuezhi Mao, Dmitri Zuev, Alec White,
  David Stuck, Shaama M.S., Shane Yost, Joonho Lee, David Small,
  Daniel Levine, Susi Lehtola, Hugh Burton, Evgeny Epifanovsky,
  Bang C. Huynh
 -----------------------------------------------------------------------
 Exchange:     0.1670 Hartree-Fock + 1.0000 wB97X-V + LR-HF
 Correlation:  1.0000 wB97X-V
 Using Euler-Maclaurin-Lebedev (99,590) quadrature formula
 Nonlocal Correlation:  VV10 with C = 0.0100 and b = 6.00 and scale = 1.00000
 Grid used for NLC:  SG-1 standard quadrature
Energy prior to optimization (guess energy) = -310.838741171501
Begin Timing: Total SCF Calculation
begin iterations for algorithm: DIIS         
the SCF tolerance is set to 1.00e-08
    1    -310.8387411715      1.66e-03     00000 
    2    -310.8785672342      1.02e-03     00000 
    3    -310.8982998229      1.26e-04     00000 
    4    -310.8987748208      3.08e-05     00000 
    5    -310.8987960889      1.42e-05     00000 
    6    -310.8988002678      3.92e-06     00000 
    7    -310.8988006680      1.37e-06     00000 
    8    -310.8988007141      3.55e-07     00000 
    9    -310.8988007184      8.17e-08     00000 
   10    -310.8988007188      4.24e-08     00000 
   11    -310.8988007188      1.27e-08     00000 
   12    -310.8988007188      4.48e-09     00000 Convergence criterion met
Timing for Total SCF: 870.00s (wall), 5914.67s (cpu)

************** Final PCM Free Energy Summary **************
 G_electrostatic  =      -0.00259985 hartree =      -1.63142807 kcal/mol
 G_cavitation     =       0.00000000 hartree =       0.00000000 kcal/mol
 G_dispersion     =       0.00000000 hartree =       0.00000000 kcal/mol
 G_repulsion      =       0.00000000 hartree =       0.00000000 kcal/mol
 --------------------------------------------------
 Non-electrostatic Free Energy =       0.00000000 hartree =       0.00000000 kcal/mol
 Total                         =      -0.00259985 hartree =      -1.63142807 kcal/mol
 --------------------------------------------------
 SCF Energy (H0 + V/2)                       =    -310.89880072 
 Solute Internal Energy (H0)                 =    -310.89620087 
 Total Free Energy (H0 + V/2 + non-elec)     =    -310.89880072 hartree
                                             = -195091.94197361 kcal/mol
***********************************************************

E_pcm = -0.0025998461
Multipole orders to be included
        2
        3
computing dipole RHS
computing quadrupole RHS
total number of RHS in solve_reponses: 8
RHS batch sizes
        8
Beginning Block Conjugate Gradient Iterations. Batch Number: 0
computing hessian-vector products by finite difference
              1      5.41e-01     00000 Conjugate Gradient Iteration
computing hessian-vector products by finite difference
              2      1.70e-01     00000 Conjugate Gradient Iteration
computing hessian-vector products by finite difference
              3      4.42e-02     00000 Conjugate Gradient Iteration
computing hessian-vector products by finite difference
              4      1.13e-02     00000 Conjugate Gradient Iteration
computing hessian-vector products by finite difference
              5      2.89e-03     00000 Conjugate Gradient Iteration
computing hessian-vector products by finite difference
              6      6.03e-04     00000 Conjugate Gradient Iteration
computing hessian-vector products by finite difference
              7      1.49e-04     00000 Conjugate Gradient Iteration
computing hessian-vector products by finite difference
              8      2.57e-05     00000 Conjugate Gradient Iteration
computing hessian-vector products by finite difference
              9      4.29e-06     00000 Conjugate Gradient Iteration
computing hessian-vector products by finite difference
             10      7.18e-07     00000 Conjugate Gradient Iteration
computing hessian-vector products by finite difference
             11      1.07e-07     00000 Conjugate Gradient Iteration
computing hessian-vector products by finite difference
             12      1.57e-08     00000 Conjugate Gradient Iteration
computing hessian-vector products by finite difference
             13      3.69e-09     00000 CG Converged
batch 0 complete
Done Calculating Responses
TESTING ORTHOGONALIZATION OF MULTIPOLE BASIS
Multipole virts passed orthogonality test
Virts Per Order
           87
          145

 --------------------------------------------------------------

                    Orbital Energies (a.u.)
 --------------------------------------------------------------

 Alpha MOs
 -- Occupied --
-10.2808 -10.2751 -10.2738 -10.2719 -10.2718 -10.2711 -10.2672 -10.2592
 -0.9970  -0.9223  -0.8787  -0.8545  -0.7577  -0.7311  -0.6979  -0.6297
 -0.5820  -0.5735  -0.5420  -0.5343  -0.5250  -0.5061  -0.4820  -0.4628
 -0.4552  -0.4351  -0.4300  -0.3488  -0.3381
 -- Virtual --
  0.0593   0.0632   0.0674   0.0814   0.0833   0.0905   0.1043   0.1085
  0.1134   0.1312   0.1567   0.1639   0.1674   0.1713   0.1856   0.1885
  0.1934   0.1992   0.2124   0.2151   0.2218   0.2311   0.2407   0.2515
  0.2632   0.2663   0.2673   0.2716   0.2766   0.2823   0.2876   0.2923
  0.2946   0.3004   0.3019   0.3079   0.3189   0.3262   0.3300   0.3336
  0.3461   0.3497   0.3504   0.3535   0.3618   0.3657   0.3704   0.3740
  0.3795   0.3851   0.3895   0.3921   0.3984   0.4056   0.4121   0.4191
  0.4227   0.4322   0.4346   0.4389   0.4442   0.4525   0.4545   0.4606
  0.4628   0.4683   0.4746   0.4813   0.4863   0.4896   0.4951   0.5001
  0.5104   0.5184   0.5219   0.5259   0.5295   0.5361   0.5400   0.5449
  0.5509   0.5546   0.5676   0.5751   0.5818   0.5887   0.5922   0.6061
  0.6148   0.6200   0.6335   0.6407   0.6476   0.6585   0.6672   0.6704
  0.6821   0.6897   0.7036   0.7065   0.7145   0.7218   0.7231   0.7260
  0.7337   0.7495   0.7533   0.7588   0.7672   0.7714   0.7814   0.7829
  0.7910   0.7929   0.7969   0.7988   0.8057   0.8109   0.8173   0.8191
  0.8247   0.8352   0.8401   0.8456   0.8471   0.8523   0.8650   0.8733
  0.8853   0.8901   0.9105   0.9158   0.9335   0.9381   0.9545   0.9692
  1.0021   1.0125   1.0213   1.0437   1.0510   1.0634   1.0794   1.0817
  1.0923   1.1022   1.1082   1.1168   1.1601   1.1763   1.1959   1.2084
  1.2222   1.2859   1.3010   1.3161   1.3352   1.3607   1.3797   1.3982
  1.4091   1.4220   1.4425   1.4581   1.4746   1.4916   1.5170   1.5274
  1.5541   1.5702   1.6233   1.6265   1.6343   1.6524   1.6857   1.7345
  1.7630   1.7867   1.7965   1.8066   1.8193   1.8310   1.8407   1.8812
  1.8954   1.9042   1.9189   1.9219   1.9303   1.9532   1.9823   1.9835
  1.9913   2.0047   2.0123   2.0303   2.0356   2.0485   2.0647   2.0775
  2.0881   2.1010   2.1422   2.1454   2.1777   2.2007   2.2088   2.2201
  2.2383   2.2620   2.2958   2.3105   2.3179   2.3822   2.3989   2.4081
  2.4299   2.4695   2.5101   2.5207   2.5408   2.5536   2.5885   2.5993
  2.6072   2.6204   2.6421   2.6641   2.6869   2.6891   2.7203   2.7375
  2.7501   2.7720   2.7875   2.8023   2.8176   2.8292   2.8486   2.8637
  2.8822   2.9066   2.9133   2.9201   2.9263   2.9391   2.9587   2.9738
  2.9911   3.0039   3.0239   3.0348   3.0417   3.0559   3.0700   3.0756
  3.1071   3.1555   3.1692   3.1938   3.2105   3.2309   3.2500   3.2553
  3.2944   3.2986   3.3225   3.3420   3.3723   3.3884   3.4075   3.4095
  3.4233   3.4317   3.4573   3.4753   3.4865   3.4881   3.4971   3.5001
  3.5121   3.5217   3.5383   3.5443   3.5565   3.5624   3.5677   3.6093
  3.6218   3.6317   3.6361   3.6632   3.6833   3.6983   3.7043   3.7200
  3.7418   3.7649   3.7922   3.8306   3.8568   3.8591   3.9213   3.9540
  3.9689   3.9916   4.0371   4.0540   4.1075   4.1306   4.1784   4.1879
  4.2128   4.2685   4.2828   4.3025   4.3255   4.3378   4.3432   4.3685
  4.3836   4.3936   4.4290   4.4458   4.4670   4.4968   4.5460   4.5750
  4.6427   4.6907   4.7269   4.7538   4.8080   4.8626   4.9108   4.9202
  4.9571   5.0110   5.0215   5.1114   5.1771   5.3092   5.3603   5.3784
  5.5087   5.5317   5.6990   5.8606  22.6334  22.6519  22.7834  22.8867
 22.9298  23.0128  23.0687  23.4268
 --------------------------------------------------------------

          Ground-State Mulliken Net Atomic Charges

     Atom                 Charge (a.u.)
  ----------------------------------------
      1 C                    -0.563666
      2 C                    -0.777137
      3 C                     0.824685
      4 C                    -0.272909
      5 C                    -0.362244
      6 C                    -0.592635
      7 C                    -0.590368
      8 C                    -0.479714
      9 H                     0.249912
     10 H                     0.264482
     11 H                     0.235662
     12 H                     0.340154
     13 H                     0.311696
     14 H                     0.315364
     15 H                     0.313983
     16 H                     0.337878
     17 H                     0.204386
     18 H                     0.240470
  ----------------------------------------
  Sum of atomic charges =     0.000000

 -----------------------------------------------------------------
                    Cartesian Multipole Moments
 -----------------------------------------------------------------
    Charge (ESU x 10^10)
                -0.0000
    Dipole Moment (Debye)
         X      -0.1166      Y       0.4001      Z       0.3149
       Tot       0.5223
    Quadrupole Moments (Debye-Ang)
        XX     -49.2354     XY      -2.5754     YY     -46.6751
        XZ       3.7786     YZ       1.8843     ZZ     -48.1933
    Octopole Moments (Debye-Ang^2)
       XXX    -226.2824    XXY     -38.2730    XYY     -71.7612
       YYY     -88.8116    XXZ      99.2616    XYZ       8.4043
       YYZ      83.3209    XZZ     -87.9957    YZZ     -37.9731
       ZZZ     257.4904
    Hexadecapole Moments (Debye-Ang^3)
      XXXX    -928.8990   XXXY    -123.1838   XXYY    -307.8892
      XYYY    -116.2556   YYYY    -972.7959   XXXZ     401.3975
      XXYZ      18.0619   XYYZ     112.4996   YYYZ      18.1851
      XXZZ    -411.4608   XYZZ     -52.9905   YYZZ    -361.0739
      XZZZ     413.0612   YZZZ      39.0301   ZZZZ   -1284.0958
 -----------------------------------------------------------------
Archival summary:
1\1\compute-0-5.local\SP\ProcedureUnspecified\BasisUnspecified\810\meili\WedSep2907:09:352021WedSep2907:09:352021\0\\#,ProcedureUnspecified,BasisUnspecified,\\0,1\C\C,1,1.39701\H,2,1.07987,1,120.105\C,1,1.39728,2,119.183,3,-179.045,0\H,4,1.08086,1,120.011,2,179.091,0\C,4,1.39437,1,120.608,2,-0.784579,0\H,6,1.07894,4,120.331,1,178.985,0\C,6,1.39355,4,120.017,1,0.400697,0\H,8,1.08189,6,120.155,4,179.694,0\C,8,1.39701,6,119.85,4,-0.188299,0\H,10,1.08066,8,119.893,6,179.992,0\C,1,1.51002,2,120.677,3,-1.28952,0\H,12,1.09133,1,108.329,2,-38.406,0\H,12,1.09164,1,109.016,2,-154.627,0\C,12,1.52948,1,114.192,2,82.7802,0\H,15,1.09146,12,108.293,1,-60.4724,0\H,15,1.1,12,109.253,1,-179.126,0\H,15,1.1,12,111.331,1,57.4373,0\\\@

 Total job time:  17323.04s(wall), 119664.89s(cpu) 
 Wed Sep 29 07:09:35 2021

        *************************************************************
        *                                                           *
        *  Thank you very much for using Q-Chem.  Have a nice day.  *
        *                                                           *
        *************************************************************


Done Job For Fragment 0
calling putenv with: QCSCRATCH=/home/meili/scratch 
calling putenv with: QCTHREADS=8 
Creating input file /home/meili/scratch/qchem14562/Frg2.input
using default PutDataFrgm: nothing
calling putenv with: QCSCRATCH=/home/meili/scratch/qchem14562/ 
Spawning Job For Fragment 1
                  Welcome to Q-Chem
     A Quantum Leap Into The Future Of Chemistry


 Q-Chem 5.2 (devel), Q-Chem, Inc., Pleasanton, CA (2019)

 Yihan Shao,  Zhengting Gan,  E. Epifanovsky,  A. T. B. Gilbert,  M. Wormit,  
 J. Kussmann,  A. W. Lange,  A. Behn,  Jia Deng,  Xintian Feng,  D. Ghosh,  
 M. Goldey,  P. R. Horn,  L. D. Jacobson,  I. Kaliman,  T. Kus,  A. Landau,  
 Jie Liu,  E. I. Proynov,  R. M. Richard,  R. P. Steele,  E. J. Sundstrom,  
 H. L. Woodcock III,  P. M. Zimmerman,  D. Zuev,  B. Albrecht,  E. Alguire,  
 S. A. Baeppler,  D. Barton,  Z. Benda,  Y. A. Bernard,  E. J. Berquist,  
 K. B. Bravaya,  H. Burton,  D. Casanova,  Chun-Min Chang,  Yunqing Chen,  
 A. Chien,  K. D. Closser,  M. P. Coons,  S. Coriani,  S. Dasgupta,  
 A. L. Dempwolff,  M. Diedenhofen,  Hainam Do,  R. G. Edgar,  Po-Tung Fang,  
 S. Faraji,  S. Fatehi,  Qingguo Feng,  K. D. Fenk,  J. Fosso-Tande,  
 J. Gayvert,  Qinghui Ge,  A. Ghysels,  G. Gidofalvi,  J. Gomes,  
 J. Gonthier,  A. Gunina,  D. Hait,  M. W. D. Hanson-Heine,  
 P. H. P. Harbach,  A. W. Hauser,  M. F. Herbst,  J. E. Herr,  
 E. G. Hohenstein,  Z. C. Holden,  Kerwin Hui,  B. C. Huynh,  T.-C. Jagau,  
 Hyunjun Ji,  B. Kaduk,  K. Khistyaev,  Jaehoon Kim,  P. Klunzinger,  K. Koh,  
 D. Kosenkov,  L. Koulias,  T. Kowalczyk,  C. M. Krauter,  A. Kunitsa,  
 Ka Un Lao,  A. Laurent,  K. V. Lawler,  Joonho Lee,  D. Lefrancois,  
 S. Lehtola,  D. S. Levine,  Yi-Pei Li,  You-Sheng Lin,  Fenglai Liu,  
 E. Livshits,  A. Luenser,  P. Manohar,  E. Mansoor,  S. F. Manzer,  
 Shan-Ping Mao,  Yuezhi Mao,  N. Mardirossian,  A. V. Marenich,  
 T. Markovich,  L. A. Martinez-Martinez,  S. A. Maurer,  N. J. Mayhall,  
 S. C. McKenzie,  J.-M. Mewes,  P. Morgante,  A. F. Morrison,  
 J. W. Mullinax,  K. Nanda,  T. S. Nguyen-Beck,  R. Olivares-Amaya,  
 J. A. Parkhill,  Zheng Pei,  T. M. Perrine,  F. Plasser,  P. Pokhilko,  
 S. Prager,  A. Prociuk,  E. Ramos,  D. R. Rehn,  F. Rob,  M. Scheurer,  
 M. Schneider,  N. Sergueev,  S. M. Sharada,  S. Sharma,  D. W. Small,  
 T. Stauch,  T. Stein,  Yu-Chuan Su,  A. J. W. Thom,  A. Tkatchenko,  
 T. Tsuchimochi,  N. M. Tubman,  L. Vogt,  M. L. Vidal,  O. Vydrov,  
 M. A. Watson,  J. Wenzel,  M. de Wergifosse,  T. A. Wesolowski,  A. White,  
 J. Witte,  A. Yamada,  Jun Yang,  K. Yao,  S. Yeganeh,  S. R. Yost,  
 Zhi-Qiang You,  A. Zech,  Igor Ying Zhang,  Xing Zhang,  Yan Zhao,  
 Ying Zhu,  B. R. Brooks,  G. K. L. Chan,  C. J. Cramer,  M. S. Gordon,  
 W. J. Hehre,  A. Klamt,  M. W. Schmidt,  C. D. Sherrill,  D. G. Truhlar,  
 A. Aspuru-Guzik,  R. Baer,  A. T. Bell,  N. A. Besley,  Jeng-Da Chai,  
 A. E. DePrince, III,  R. A. DiStasio Jr.,  A. Dreuw,  B. D. Dunietz,  
 T. R. Furlani,  Chao-Ping Hsu,  Yousung Jung,  Jing Kong,  D. S. Lambrecht,  
 WanZhen Liang,  C. Ochsenfeld,  V. A. Rassolov,  L. V. Slipchenko,  
 J. E. Subotnik,  T. Van Voorhis,  J. M. Herbert,  A. I. Krylov,  
 P. M. W. Gill,  M. Head-Gordon

 Contributors to earlier versions of Q-Chem not listed above: 
 R. D. Adamson,  B. Austin,  J. Baker,  G. J. O. Beran,  K. Brandhorst,  
 S. T. Brown,  E. F. C. Byrd,  A. K. Chakraborty,  C.-L. Cheng,  
 Siu Hung Chien,  D. M. Chipman,  D. L. Crittenden,  H. Dachsel,  
 R. J. Doerksen,  A. D. Dutoi,  L. Fusti-Molnar,  W. A. Goddard III,  
 A. Golubeva-Zadorozhnaya,  S. R. Gwaltney,  G. Hawkins,  A. Heyden,  
 S. Hirata,  G. Kedziora,  F. J. Keil,  C. Kelley,  Jihan Kim,  R. A. King,  
 R. Z. Khaliullin,  P. P. Korambath,  W. Kurlancheek,  A. M. Lee,  M. S. Lee,  
 S. V. Levchenko,  Ching Yeh Lin,  D. Liotard,  R. C. Lochan,  I. Lotan,  
 P. E. Maslen,  N. Nair,  D. P. O'Neill,  D. Neuhauser,  E. Neuscamman,  
 C. M. Oana,  R. Olson,  B. Peters,  R. Peverati,  P. A. Pieniazek,  
 Y. M. Rhee,  J. Ritchie,  M. A. Rohrdanz,  E. Rosta,  N. J. Russ,  
 H. F. Schaefer III,  N. E. Schultz,  N. Shenvi,  A. C. Simmonett,  A. Sodt,  
 D. Stuck,  K. S. Thanthiriwatte,  V. Vanovschi,  Tao Wang,  A. Warshel,  
 C. F. Williams,  Q. Wu,  X. Xu,  W. Zhang

 Please cite Q-Chem as follows:
 Y. Shao et al., Mol. Phys. 113, 184-215 (2015)
 DOI: 10.1080/00268976.2014.952696

 Q-Chem 5.2.1 for Intel X86 EM64T Linux

 Parts of Q-Chem use Armadillo 8.300.2 (Tropical Shenanigans).
 http://arma.sourceforge.net/

 Q-Chem begins on Wed Sep 29 07:09:36 2021  

compute-0-5.local
Host: 0

     Scratch files written to /home/meili/scratch/qchem14562//Frg2//
NAlpha2: 50
NElect   50
Mult     1
Symmetry turned off for PCM/SM12/SMD calculation

Checking the input file for inconsistencies... 	...done.

--------------------------------------------------------------
User input:
--------------------------------------------------------------
$molecule
0 1
 6	-4.0096385520	0.0084301208	2.8019523520
 6	-0.9436385520	-0.5585698792	0.6429523520
 6	-0.0566385520	-1.1325698792	1.5459523520
 6	-2.2176385520	-0.1815698792	1.0569523520
 6	-2.6256385520	-0.3865698792	2.3709523520
 6	-0.4556385520	-1.3455698792	2.8619523520
 6	-1.7396385520	-0.9725698792	3.2729523520
 1	-0.6546385520	-0.4265698792	-0.3870476480
 1	0.9353614480	-1.4215698792	1.2239523520
 1	-2.8926385520	0.2824301208	0.3529523520
 1	0.2403614480	-1.7805698792	3.5609523520
 1	-4.3246385520	0.8794301208	2.2249523520
 1	-3.9776385520	0.3174301208	3.8479523520
 1	-2.0376385520	-1.1205698792	4.2969523520
 1	-4.7569985520	-0.7905198792	2.6873052520
$end
$rem
EDA2		1
METHOD		WB97X-V
BASIS		DEF2-TZVPD
XC_GRID		000099000590
NL_GRID		1
UNRESTRICTED		FALSE
MAX_SCF_CYCLES		200
SYMMETRY		FALSE
SYM_IGNORE		TRUE
BASIS_LIN_DEP_THRESH		6
THRESH		14
SCF_CONVERGENCE		8
SCF_PRINT_FRGM		TRUE
SOLVENT_METHOD		PCM
!required keywords
JOBTYPE		SP
SYM_IGNORE		TRUE
SUBSYSTEM		TRUE
GEN_SCFMAN		TRUE
CHILD_INSTRUCTION		2
SYM_IGNORE		TRUE
SCFMI		0
RI_K 0		
PARI_K 0		
MIN_PARI_K 0		
IARI_K 0		
OCC_RI_K 0		
PURECART		1111
MEM_STATIC		2000
MEM_TOTAL		2000
GUI		0
CHILD_MP		1
CHILD_MP_ORDERS		232
FRZ_RELAX		0
FRZ_RELAX_METHOD		0
EDA_CLS_ELEC		1
EDA_CLS_DISP		0
FRZ_ORTHO_DECOMP		1
EDA2		FALSE
FRGM_METHOD		FALSE
CIS_N_ROOTS  0
LOCAL_CIS    0
CIS_RLX_DNS  1
$end
$pcm
THEORY                  CPCM
METHOD                  SWIG
SOLVER                  INVERSION
RADII                   UFF
HPOINTS                 302
HEAVYPOINTS             302
PRINTLEVEL              0
$end
$solvent
DIELECTRIC              78.390000 ! water
$end
--------------------------------------------------------------
 ----------------------------------------------------------------
             Standard Nuclear Orientation (Angstroms)
    I     Atom           X                Y                Z
 ----------------------------------------------------------------
    1      C      -4.0096385520     0.0084301208     2.8019523520
    2      C      -0.9436385520    -0.5585698792     0.6429523520
    3      C      -0.0566385520    -1.1325698792     1.5459523520
    4      C      -2.2176385520    -0.1815698792     1.0569523520
    5      C      -2.6256385520    -0.3865698792     2.3709523520
    6      C      -0.4556385520    -1.3455698792     2.8619523520
    7      C      -1.7396385520    -0.9725698792     3.2729523520
    8      H      -0.6546385520    -0.4265698792    -0.3870476480
    9      H       0.9353614480    -1.4215698792     1.2239523520
   10      H      -2.8926385520     0.2824301208     0.3529523520
   11      H       0.2403614480    -1.7805698792     3.5609523520
   12      H      -4.3246385520     0.8794301208     2.2249523520
   13      H      -3.9776385520     0.3174301208     3.8479523520
   14      H      -2.0376385520    -1.1205698792     4.2969523520
   15      H      -4.7569985520    -0.7905198792     2.6873052520
 ----------------------------------------------------------------
 Nuclear Repulsion Energy =         269.93171191 hartrees
 There are       25 alpha and       25 beta electrons
 Requested basis set is def2-TZVPD
 There are 131 shells and 331 basis functions

 Total QAlloc Memory Limit   2000 MB
 Mega-Array Size      1956 MB
 MEM_STATIC part      2000 MB
 Discretize the solute cavity surface with Lebedev spheres
	Using 302 Lebedev grid points for each H atom
	Using 302 Lebedev grid points for other atoms
	Atomic van der Waals radii will be scaled by 1.20
 Remove points where switching function is < 1.0e-08
 Keep 1792 surface tesserae and discard 2738 interior tesserae
 Molecular Surface Area = 178.037 Angst**2

                       Distance Matrix (Angstroms)
             C (  1)   C (  2)   C (  3)   C (  4)   C (  5)   C (  6)
   C (  2)  3.792509
   C (  3)  4.301817  1.389840
   C (  4)  2.508463  1.391618  2.411108
   C (  5)  1.502412  2.417580  2.799447  1.391073
   C (  6)  3.803660  2.404470  1.391555  2.778051  2.422739
   C (  7)  2.517360  2.778833  2.416737  2.401004  1.393555  1.398823
   H (  8)  4.649190  1.077889  2.143019  2.141992  3.390133  3.382331
   H (  9)  5.384051  2.147783  1.082252  3.392182  3.881695  2.150279
   H ( 10)  2.705617  2.142424  3.386498  1.080063  2.142702  3.858035
   H ( 11)  4.673233  3.377849  2.137367  3.855980  3.401954  1.078073
   H ( 12)  1.091236  4.000216  4.767076  2.632374  2.123835  4.508387
   H ( 13)  1.091156  4.499395  4.772415  3.337107  2.122510  4.017742
   H ( 14)  2.720009  3.855437  3.390060  3.378124  2.143356  2.147690
   H ( 15)  1.100005  4.333001  4.849028  3.078509  2.192248  4.340539
             C (  7)   H (  8)   H (  9)   H ( 10)   H ( 11)   H ( 12)
   H (  8)  3.856286
   H (  9)  3.399357  2.472538
   H ( 10)  3.380952  2.461488  4.279701
   H ( 11)  2.157825  4.268612  2.464442  4.935881
   H ( 12)  3.348198  4.690104  5.827881  2.431341  5.449745
   H ( 13)  2.646388  5.434252  5.834986  3.659710  4.719692  1.752251
   H ( 14)  1.076701  4.932969  4.286334  4.272537  2.483260  3.677438
   H ( 15)  3.079056  5.139403  5.911226  3.174313  5.168855  1.785900
             H ( 13)   H ( 14)
   H ( 14)  2.456226
   H ( 15)  1.783832  3.177234

 A cutoff of  1.0D-14 yielded   8359 shell pairs
 There are     54501 function pairs (     69455 Cartesian)
 Smallest overlap matrix eigenvalue = 5.60E-07
 Linear dependence detected in AO basis
 Tighter screening thresholds may be required for diffuse basis sets
 Use S2THRESH > 14 and THRESH = 14 in case of SCF convergence issues
 Number of orthogonalized atomic orbitals = 330
 Maximum deviation from orthogonality = 1.255E-10

 Scale SEOQF with 1.000000e-01/1.000000e-01/1.000000e-01

 Standard Electronic Orientation quadrupole field applied
 Nucleus-field energy     =    -0.0000000178 hartrees
 Guess from superposition of atomic densities
 Warning:  Energy on first SCF cycle will be non-variational
 SAD guess density has 50.000000 electrons

 -----------------------------------------------------------------------
  General SCF calculation program by
  Eric Jon Sundstrom, Paul Horn, Yuezhi Mao, Dmitri Zuev, Alec White,
  David Stuck, Shaama M.S., Shane Yost, Joonho Lee, David Small,
  Daniel Levine, Susi Lehtola, Hugh Burton, Evgeny Epifanovsky,
  Bang C. Huynh
 -----------------------------------------------------------------------
 Exchange:     0.1670 Hartree-Fock + 1.0000 wB97X-V + LR-HF
 Correlation:  1.0000 wB97X-V
 Using Euler-Maclaurin-Lebedev (99,590) quadrature formula
 Nonlocal Correlation:  VV10 with C = 0.0100 and b = 6.00 and scale = 1.00000
 Grid used for NLC:  SG-1 standard quadrature
Energy prior to optimization (guess energy) = -271.527657034206
Begin Timing: Total SCF Calculation
begin iterations for algorithm: DIIS         
the SCF tolerance is set to 1.00e-08
    1    -271.5276570342      1.83e-03     00000 
    2    -271.5634201324      1.13e-03     00000 
    3    -271.5811816601      1.40e-04     00000 
    4    -271.5816034820      4.19e-05     00000 
    5    -271.5816306478      1.49e-05     00000 
    6    -271.5816345987      3.32e-06     00000 
    7    -271.5816348621      1.20e-06     00000 
    8    -271.5816348875      3.57e-07     00000 
    9    -271.5816348902      5.91e-08     00000 
   10    -271.5816348903      2.39e-08     00000 
   11    -271.5816348903      6.20e-09     00000 Convergence criterion met
Timing for Total SCF: 591.00s (wall), 3364.07s (cpu)

************** Final PCM Free Energy Summary **************
 G_electrostatic  =      -0.00248058 hartree =      -1.55658934 kcal/mol
 G_cavitation     =       0.00000000 hartree =       0.00000000 kcal/mol
 G_dispersion     =       0.00000000 hartree =       0.00000000 kcal/mol
 G_repulsion      =       0.00000000 hartree =       0.00000000 kcal/mol
 --------------------------------------------------
 Non-electrostatic Free Energy =       0.00000000 hartree =       0.00000000 kcal/mol
 Total                         =      -0.00248058 hartree =      -1.55658934 kcal/mol
 --------------------------------------------------
 SCF Energy (H0 + V/2)                       =    -271.58163489 
 Solute Internal Energy (H0)                 =    -271.57915431 
 Total Free Energy (H0 + V/2 + non-elec)     =    -271.58163489 hartree
                                             = -170420.04804335 kcal/mol
***********************************************************

E_pcm = -0.0024805830
Multipole orders to be included
        2
        3
computing dipole RHS
computing quadrupole RHS
total number of RHS in solve_reponses: 8
RHS batch sizes
        8
Beginning Block Conjugate Gradient Iterations. Batch Number: 0
computing hessian-vector products by finite difference
              1      5.76e-01     00000 Conjugate Gradient Iteration
computing hessian-vector products by finite difference
              2      1.91e-01     00000 Conjugate Gradient Iteration
computing hessian-vector products by finite difference
              3      4.40e-02     00000 Conjugate Gradient Iteration
computing hessian-vector products by finite difference
              4      1.01e-02     00000 Conjugate Gradient Iteration
computing hessian-vector products by finite difference
              5      2.20e-03     00000 Conjugate Gradient Iteration
computing hessian-vector products by finite difference
              6      5.80e-04     00000 Conjugate Gradient Iteration
computing hessian-vector products by finite difference
              7      1.90e-04     00000 Conjugate Gradient Iteration
computing hessian-vector products by finite difference
              8      2.99e-05     00000 Conjugate Gradient Iteration
computing hessian-vector products by finite difference
              9      3.64e-06     00000 Conjugate Gradient Iteration
computing hessian-vector products by finite difference
             10      6.05e-07     00000 Conjugate Gradient Iteration
computing hessian-vector products by finite difference
             11      9.69e-08     00000 Conjugate Gradient Iteration
computing hessian-vector products by finite difference
             12      1.61e-08     00000 Conjugate Gradient Iteration
computing hessian-vector products by finite difference
             13      3.04e-09     00000 CG Converged
batch 0 complete
Done Calculating Responses
TESTING ORTHOGONALIZATION OF MULTIPOLE BASIS
Multipole virts passed orthogonality test
Virts Per Order
           75
          125

 --------------------------------------------------------------

                    Orbital Energies (a.u.)
 --------------------------------------------------------------

 Alpha MOs
 -- Occupied --
-10.2816 -10.2740 -10.2727 -10.2705 -10.2704 -10.2692 -10.2626  -0.9977
 -0.9081  -0.8790  -0.8139  -0.7319  -0.7058  -0.6308  -0.5743  -0.5684
 -0.5366  -0.5302  -0.5152  -0.4874  -0.4737  -0.4421  -0.4417  -0.3489
 -0.3390
 -- Virtual --
  0.0625   0.0632   0.0677   0.0789   0.0845   0.1044   0.1104   0.1138
  0.1355   0.1531   0.1658   0.1671   0.1872   0.1883   0.1952   0.2008
  0.2215   0.2237   0.2338   0.2391   0.2501   0.2586   0.2601   0.2674
  0.2797   0.2823   0.2843   0.2911   0.2926   0.3009   0.3039   0.3101
  0.3181   0.3249   0.3332   0.3348   0.3487   0.3530   0.3656   0.3719
  0.3783   0.3805   0.3836   0.3879   0.3892   0.4011   0.4037   0.4081
  0.4097   0.4270   0.4290   0.4355   0.4402   0.4475   0.4504   0.4526
  0.4625   0.4687   0.4736   0.4811   0.4929   0.4956   0.5117   0.5164
  0.5167   0.5245   0.5324   0.5383   0.5399   0.5454   0.5487   0.5673
  0.5834   0.5882   0.5935   0.6005   0.6033   0.6195   0.6392   0.6454
  0.6604   0.6737   0.6825   0.6854   0.6893   0.6936   0.7186   0.7217
  0.7287   0.7303   0.7435   0.7590   0.7636   0.7655   0.7777   0.7868
  0.7890   0.7920   0.7968   0.8028   0.8070   0.8211   0.8265   0.8319
  0.8332   0.8358   0.8390   0.8526   0.8556   0.8759   0.8866   0.8945
  0.9070   0.9143   0.9336   0.9454   0.9520   1.0111   1.0190   1.0404
  1.0443   1.0581   1.0730   1.0800   1.0856   1.0929   1.1025   1.1412
  1.1647   1.1809   1.2461   1.2780   1.2930   1.3168   1.3485   1.3498
  1.3801   1.4340   1.4499   1.4568   1.4639   1.4861   1.5232   1.5365
  1.5983   1.6011   1.6150   1.6229   1.6678   1.6791   1.7350   1.7774
  1.7916   1.7956   1.8043   1.8112   1.8315   1.8699   1.8839   1.9109
  1.9180   1.9270   1.9527   1.9547   1.9811   1.9949   2.0125   2.0238
  2.0299   2.0460   2.0685   2.0970   2.1148   2.1208   2.1700   2.1749
  2.1956   2.2334   2.2385   2.2669   2.2876   2.3115   2.3947   2.3968
  2.4045   2.4067   2.4838   2.5077   2.5333   2.5496   2.5632   2.6119
  2.6131   2.6201   2.6692   2.6747   2.6965   2.7105   2.7514   2.7721
  2.7871   2.8087   2.8203   2.8454   2.8596   2.9037   2.9074   2.9152
  2.9371   2.9399   2.9553   2.9736   2.9922   3.0168   3.0233   3.0469
  3.0607   3.0859   3.1006   3.1294   3.1786   3.1894   3.2047   3.2253
  3.2286   3.2341   3.2896   3.3098   3.3247   3.3525   3.3629   3.3774
  3.3979   3.4397   3.4475   3.4510   3.4577   3.4700   3.4899   3.4982
  3.5083   3.5290   3.5396   3.5430   3.5612   3.5682   3.5903   3.6046
  3.6113   3.6334   3.6512   3.6882   3.7099   3.7497   3.7825   3.8107
  3.8331   3.8893   3.9098   3.9550   3.9614   3.9900   4.0348   4.0529
  4.1143   4.2001   4.2714   4.2775   4.2941   4.3165   4.3215   4.3273
  4.3478   4.3687   4.3847   4.4011   4.4353   4.4485   4.4710   4.5299
  4.5987   4.6283   4.7520   4.7549   4.8285   4.8906   4.9032   4.9452
  5.0241   5.0479   5.1699   5.2623   5.3680   5.3825   5.5048   5.5308
  5.6699   5.8494  22.5760  22.6675  22.8910  22.8966  23.0121  23.0781
 23.4254
 --------------------------------------------------------------

          Ground-State Mulliken Net Atomic Charges

     Atom                 Charge (a.u.)
  ----------------------------------------
      1 C                    -1.045722
      2 C                    -0.497354
      3 C                    -0.476383
      4 C                    -0.354649
      5 C                     0.887317
      6 C                    -0.503588
      7 C                    -0.377216
      8 H                     0.316493
      9 H                     0.327742
     10 H                     0.319726
     11 H                     0.316421
     12 H                     0.274386
     13 H                     0.272140
     14 H                     0.328216
     15 H                     0.212472
  ----------------------------------------
  Sum of atomic charges =     0.000000

 -----------------------------------------------------------------
                    Cartesian Multipole Moments
 -----------------------------------------------------------------
    Charge (ESU x 10^10)
                -0.0000
    Dipole Moment (Debye)
         X      -0.4388      Y       0.1245      Z       0.1303
       Tot       0.4744
    Quadrupole Moments (Debye-Ang)
        XX     -37.4020     XY      -2.4967     YY     -45.0613
        XZ      -1.8668     YZ      -1.4923     ZZ     -38.2181
    Octopole Moments (Debye-Ang^2)
       XXX     207.6141    XXY      29.2395    XYY      81.5363
       YYY      87.4987    XXZ     -76.7168    XYZ      -1.8801
       YYZ     -91.5431    XZZ      65.0195    YZZ      18.3155
       ZZZ    -243.2445
    Hexadecapole Moments (Debye-Ang^3)
      XXXX   -1288.2868   XXXY     -66.6202   XXYY    -268.6289
      XYYY     -76.1319   YYYY    -247.4157   XXXZ     485.7958
      XXYZ      57.9995   XYYZ     187.6076   YYYZ     196.2642
      XXZZ    -426.1405   XYZZ     -21.7441   YYZZ    -278.8913
      XZZZ     479.0415   YZZZ     144.9627   ZZZZ   -1325.0194
 -----------------------------------------------------------------
Archival summary:
1\1\compute-0-5.local\SP\ProcedureUnspecified\BasisUnspecified\78\meili\WedSep2910:47:492021WedSep2910:47:492021\0\\#,ProcedureUnspecified,BasisUnspecified,\\0,1\C\C,1,1.39107\H,2,1.08006,1,119.716\C,2,1.39162,1,120.637,3,179.466,0\H,4,1.07789,2,119.773,1,177.754,0\C,4,1.38984,2,120.189,1,-0.729362,0\H,6,1.08225,4,120.13,2,-179.742,0\C,6,1.39156,4,119.648,2,0.895984,0\H,8,1.07807,6,119.329,4,-179.292,0\C,1,1.39356,2,119.137,3,-179.285,0\H,10,1.0767,1,119.829,2,178.924,0\C,1,1.50241,2,120.16,3,1.31993,0\H,12,1.09116,1,108.81,2,-147.88,0\H,12,1.09124,1,108.91,2,-31.7916,0\H,12,1.10001,1,113.892,2,90.317,0\\\@

 Total job time:  13093.18s(wall), 76661.30s(cpu) 
 Wed Sep 29 10:47:49 2021

        *************************************************************
        *                                                           *
        *  Thank you very much for using Q-Chem.  Have a nice day.  *
        *                                                           *
        *************************************************************


Done Job For Fragment 1
calling putenv with: QCSCRATCH=/home/meili/scratch 
calling putenv with: QCTHREADS=8 
Doing General SCFMI
 Exchange:     0.1670 Hartree-Fock + 1.0000 wB97X-V + LR-HF
 Correlation:  1.0000 wB97X-V
 Using Euler-Maclaurin-Lebedev (99,590) quadrature formula
 Nonlocal Correlation:  VV10 with C = 0.0100 and b = 6.00 and scale = 1.00000
 Grid used for NLC:  SG-1 standard quadrature
performing fock build before subrot guess so that all methods have access
Printing subrot_rss_gen Method Specification:
Occupied Subspace Method is 0
Virtual Subspace Method is 0
Energy of the unrelaxed supersystem initial determinant -582.478208229561
performing fock build before subrot guess so that all methods have access
Printing subrot_rss_gen Method Specification:
Occupied Subspace Method is 0
Virtual Subspace Method is 0
Energy of the unrelaxed supersystem initial determinant w/ solvent -582.482713130634
write pseudocanon occs and virts to disk
write pseudocanon orbital energies to disk
Tolerance of ortho_decomp_scf: 1.00e-06
GDM subspace size: 20
Beginning the Orthogonal Decomposition of the Initial Supersystem Wavefunction
    1    -582.4527260253      2.17e-02     ortho_decomp Preconditoned Steepest Descent
    2    -582.4551817189      5.80e-04     ortho_decomp BFGS Step
    3    -582.4551906261      4.80e-05     ortho_decomp BFGS Step
    4    -582.4551906462      2.13e-06     ortho_decomp BFGS Step
    5    -582.4551906464      7.25e-08     ortho_decomp 00000 Convergence criterion met
 Hartree-Fock
 Hartree-Fock
 Hartree-Fock
Doing General SCFMI
 Exchange:     0.1670 Hartree-Fock + 1.0000 wB97X-V + LR-HF
 Correlation:  1.0000 wB97X-V
 Using Euler-Maclaurin-Lebedev (99,590) quadrature formula
 Nonlocal Correlation:  VV10 with C = 0.0100 and b = 6.00 and scale = 1.00000
 Grid used for NLC:  SG-1 standard quadrature
performing fock build at end of subrot_r(subrot) constructor so that all methods have access
<S^2> of initial wavefunction before polarization iterations 0.0000000000
Beginning iterations for the determination of the polarized wavefunction
Energy prior to optimization (guess energy) = -582.482713130633
Begin Timing: Total SCF Calculation
begin iterations for algorithm: DIIS         
the SCF tolerance is set to 1.00e-08
    1    -582.4827131306      5.25e-05     00000 
    2    -582.4830391112      2.29e-05     00000 
    3    -582.4830736042      1.37e-05     00000 
    4    -582.4830883716      4.08e-06     00000 
    5    -582.4830900172      2.31e-06     00000 
    6    -582.4830905664      1.18e-06     00000 
    7    -582.4830906771      5.59e-07     00000 
    8    -582.4830906946      2.79e-07     00000 
    9    -582.4830906991      1.06e-07     00000 
   10    -582.4830907003      5.18e-08     00000 
   11    -582.4830907006      2.45e-08     00000 
   12    -582.4830907008      1.01e-08     00000 
   13    -582.4830907008      4.50e-09     00000 Convergence criterion met
write pseudocanon occs and virts to disk
write pseudocanon orbital energies to disk
Timing for Total SCF: 5796.00s (wall), 40950.82s (cpu)
<S^2> of polarized wavefunction after polarization iterations 0.0000000000
relaxing scfmi constraint to allow all rotations in the entire AO span
Doing General SCFMI
 Exchange:     0.1670 Hartree-Fock + 1.0000 wB97X-V + LR-HF
 Correlation:  1.0000 wB97X-V
 Using Euler-Maclaurin-Lebedev (99,590) quadrature formula
 Nonlocal Correlation:  VV10 with C = 0.0100 and b = 6.00 and scale = 1.00000
 Grid used for NLC:  SG-1 standard quadrature
performing fock build at end of subrot_r(subrot) constructor so that all methods have access
<S^2> of polarized wavefunction before ct-allowed iterations 0.0000000000
Beginning iterations for the determination of the CT-Allowed wavefunction
Energy prior to optimization (guess energy) = -582.483090700781
Begin Timing: Total SCF Calculation
begin iterations for algorithm: DIIS         
the SCF tolerance is set to 1.00e-08
    1    -582.4830907008      6.65e-05     00000 
    2    -582.4842503393      7.20e-06     00000 
    3    -582.4842875184      1.27e-06     00000 
    4    -582.4842887911      6.35e-07     00000 
    5    -582.4842889056      1.43e-07     00000 
    6    -582.4842889163      5.37e-08     00000 
    7    -582.4842889173      1.41e-08     00000 
    8    -582.4842889174      5.08e-09     00000 Convergence criterion met
write pseudocanon occs and virts to disk
write pseudocanon orbital energies to disk
Timing for Total SCF: 3521.00s (wall), 24348.57s (cpu)
<S^2> of ct_allowed wavefunction after ct-allowed iterations 0.0000000000

================================
        Results of EDA2         
================================
Basic EDA Quantities
--------------------
Fragment Energies (Ha):
1 -310.8988007188
2 -271.5816348903
--------------------
  E_prp (kJ/mol) = 0.0000
  E_sol (kJ/mol) = 1.5111
  E_frz (kJ/mol) = -7.4908
  E_pol (kJ/mol) = -0.9913
  E_vct (kJ/mol) = -3.1460
  E_int (kJ/mol) = -10.1170
--------------------


Initial Wavefunction Decomposition
--------------------
  --------------------
  Orthogonal Fragment Subspace Decomposition:
  --------------------
     E_elec   (ELEC)   (kJ/mol) = -27.1036
     E_pauli  (PAULI)  (kJ/mol) = 41.2273
     E_disp   (DISP)   (kJ/mol) = -21.6146
     --------------------
     Terms summing to E_pauli:
     --------------------
        E_kep_pauli       (kJ/mol) = 52.9426
        E_disp_free_pauli (kJ/mol) = -11.7153
  --------------------
  Classical Frozen Decomposition:
  --------------------
     E_cls_elec  (CLS ELEC)  (kJ/mol) = -12.0450
     E_cls_pauli (CLS PAULI) (kJ/mol) = 4.5542
    [E_mod_pauli (MOD PAULI) (kJ/mol) = 26.1688 (CLS PAULI - DISP from orthogonal decomposition) ]
  --------------------
--------------------

Simplified EDA Summary (kJ/mol)
--------------------
 PREPARATION     0.0000
 SOLVATION       1.5111
 FROZEN          14.1238      (does not include dispersion)
[PAULI           41.2273]     (if this is negligible, then frozen describes electrostatics)
 DISPERSION      -21.6146
 POLARIZATION    -0.9913
 CHARGE TRANSFER -3.1460
 TOTAL           -10.1170     (PRP + SOL + FRZ + DISP + POL + CT)
--------------------

 --------------------------------------------------------------

                    Orbital Energies (a.u.)
 --------------------------------------------------------------

 Alpha MOs
 -- Occupied --
-10.2812 -10.2804 -10.2762 -10.2748 -10.2729 -10.2727 -10.2724 -10.2716
-10.2691 -10.2690 -10.2682 -10.2674 -10.2670 -10.2620 -10.2592  -0.9984
 -0.9957  -0.9228  -0.9067  -0.8797  -0.8772  -0.8551  -0.8127  -0.7581
 -0.7320  -0.7302  -0.7042  -0.6984  -0.6307  -0.6293  -0.5825  -0.5742
 -0.5727  -0.5678  -0.5428  -0.5359  -0.5350  -0.5298  -0.5255  -0.5152
 -0.5032  -0.4866  -0.4823  -0.4728  -0.4625  -0.4555  -0.4407  -0.4396
 -0.4352  -0.4303  -0.3498  -0.3473  -0.3400  -0.3354
 -- Virtual --
  0.0520   0.0579   0.0635   0.0666   0.0693   0.0703   0.0743   0.0783
  0.0883   0.0924   0.0973   0.1040   0.1080   0.1146   0.1181   0.1220
  0.1276   0.1331   0.1445   0.1523   0.1541   0.1642   0.1686   0.1733
  0.1774   0.1793   0.1866   0.1895   0.1969   0.2010   0.2037   0.2091
  0.2172   0.2195   0.2203   0.2227   0.2289   0.2350   0.2391   0.2405
  0.2471   0.2526   0.2533   0.2606   0.2623   0.2665   0.2676   0.2699
  0.2740   0.2777   0.2804   0.2834   0.2851   0.2897   0.2920   0.2941
  0.2962   0.3019   0.3039   0.3078   0.3138   0.3149   0.3200   0.3228
  0.3236   0.3260   0.3282   0.3353   0.3381   0.3405   0.3444   0.3458
  0.3493   0.3522   0.3552   0.3569   0.3612   0.3645   0.3662   0.3712
  0.3731   0.3748   0.3767   0.3788   0.3805   0.3837   0.3888   0.3909
  0.3935   0.3979   0.4022   0.4040   0.4074   0.4099   0.4175   0.4189
  0.4235   0.4245   0.4269   0.4298   0.4336   0.4363   0.4388   0.4414
  0.4442   0.4453   0.4486   0.4498   0.4564   0.4598   0.4634   0.4667
  0.4679   0.4700   0.4733   0.4745   0.4821   0.4830   0.4874   0.4894
  0.4947   0.4986   0.5017   0.5044   0.5083   0.5117   0.5161   0.5171
  0.5211   0.5252   0.5262   0.5290   0.5327   0.5378   0.5403   0.5445
  0.5479   0.5548   0.5581   0.5623   0.5652   0.5698   0.5721   0.5769
  0.5847   0.5860   0.5884   0.5947   0.5975   0.6013   0.6061   0.6075
  0.6157   0.6179   0.6203   0.6268   0.6287   0.6378   0.6381   0.6417
  0.6524   0.6573   0.6598   0.6633   0.6705   0.6722   0.6744   0.6782
  0.6908   0.6917   0.6945   0.6992   0.7010   0.7030   0.7104   0.7143
  0.7165   0.7214   0.7249   0.7278   0.7330   0.7347   0.7384   0.7421
  0.7453   0.7496   0.7499   0.7536   0.7577   0.7653   0.7681   0.7695
  0.7720   0.7749   0.7770   0.7836   0.7864   0.7908   0.7910   0.7967
  0.7989   0.8025   0.8053   0.8110   0.8148   0.8201   0.8220   0.8253
  0.8264   0.8303   0.8349   0.8354   0.8410   0.8438   0.8496   0.8516
  0.8541   0.8587   0.8603   0.8645   0.8712   0.8734   0.8760   0.8815
  0.8846   0.8906   0.8923   0.9021   0.9073   0.9083   0.9140   0.9161
  0.9224   0.9272   0.9305   0.9397   0.9446   0.9480   0.9526   0.9559
  0.9678   0.9747   0.9846   0.9882   0.9919   1.0045   1.0074   1.0172
  1.0216   1.0319   1.0477   1.0505   1.0553   1.0637   1.0710   1.0768
  1.0851   1.0911   1.1001   1.1064   1.1101   1.1145   1.1167   1.1235
  1.1270   1.1332   1.1480   1.1562   1.1618   1.1811   1.1865   1.1928
  1.1970   1.2079   1.2209   1.2348   1.2390   1.2749   1.2784   1.2913
  1.2980   1.3162   1.3214   1.3303   1.3435   1.3533   1.3592   1.3713
  1.3759   1.3844   1.4009   1.4115   1.4236   1.4299   1.4392   1.4411
  1.4547   1.4623   1.4806   1.4886   1.4949   1.4987   1.5063   1.5106
  1.5292   1.5381   1.5451   1.5569   1.5584   1.5789   1.5949   1.6146
  1.6169   1.6216   1.6286   1.6495   1.6589   1.6642   1.6762   1.6816
  1.6900   1.7033   1.7190   1.7328   1.7850   1.7924   1.7966   1.8027
  1.8089   1.8128   1.8226   1.8264   1.8351   1.8454   1.8542   1.8853
  1.8926   1.9035   1.9137   1.9199   1.9278   1.9295   1.9387   1.9440
  1.9492   1.9592   1.9652   1.9699   1.9854   1.9915   1.9983   2.0030
  2.0097   2.0130   2.0148   2.0280   2.0379   2.0457   2.0520   2.0575
  2.0650   2.0704   2.0792   2.0907   2.0965   2.1093   2.1174   2.1299
  2.1327   2.1383   2.1516   2.1638   2.1683   2.1759   2.1892   2.1958
  2.2167   2.2240   2.2351   2.2445   2.2467   2.2562   2.2693   2.2821
  2.2914   2.2953   2.3049   2.3136   2.3384   2.3466   2.3612   2.3659
  2.3901   2.4087   2.4174   2.4204   2.4286   2.4371   2.4502   2.4698
  2.4772   2.4971   2.5137   2.5304   2.5448   2.5649   2.5721   2.5785
  2.5859   2.5938   2.6081   2.6168   2.6180   2.6222   2.6293   2.6416
  2.6484   2.6527   2.6724   2.6882   2.7001   2.7049   2.7137   2.7255
  2.7370   2.7402   2.7482   2.7546   2.7676   2.7827   2.7930   2.7973
  2.7992   2.8136   2.8176   2.8343   2.8427   2.8496   2.8589   2.8685
  2.8728   2.8877   2.8896   2.9007   2.9169   2.9267   2.9335   2.9412
  2.9451   2.9478   2.9593   2.9598   2.9639   2.9765   2.9899   2.9939
  3.0078   3.0139   3.0203   3.0275   3.0318   3.0396   3.0447   3.0494
  3.0610   3.0741   3.0770   3.0934   3.0967   3.1050   3.1086   3.1194
  3.1331   3.1400   3.1504   3.1891   3.1979   3.2091   3.2221   3.2333
  3.2365   3.2519   3.2581   3.2646   3.2773   3.2852   3.2975   3.3138
  3.3222   3.3254   3.3363   3.3589   3.3610   3.3709   3.3762   3.3834
  3.3989   3.4029   3.4085   3.4216   3.4244   3.4317   3.4395   3.4443
  3.4568   3.4590   3.4676   3.4695   3.4720   3.4865   3.4880   3.4950
  3.5046   3.5150   3.5203   3.5282   3.5358   3.5434   3.5474   3.5496
  3.5518   3.5557   3.5593   3.5658   3.5703   3.5721   3.5819   3.5938
  3.5994   3.6095   3.6171   3.6216   3.6246   3.6375   3.6411   3.6476
  3.6554   3.6631   3.6751   3.6826   3.6920   3.6951   3.7074   3.7117
  3.7196   3.7259   3.7317   3.7408   3.7689   3.7837   3.7936   3.8050
  3.8314   3.8397   3.8504   3.8692   3.8962   3.9070   3.9366   3.9588
  3.9641   3.9754   3.9883   3.9952   4.0036   4.0134   4.0502   4.0567
  4.0759   4.0954   4.1250   4.1437   4.1540   4.1905   4.2115   4.2329
  4.2374   4.2770   4.2941   4.2956   4.3052   4.3118   4.3174   4.3299
  4.3322   4.3466   4.3493   4.3548   4.3608   4.3682   4.3723   4.3821
  4.4018   4.4068   4.4112   4.4258   4.4459   4.4552   4.4611   4.4781
  4.4857   4.4997   4.5214   4.5579   4.5741   4.6006   4.6235   4.6377
  4.6569   4.7101   4.7351   4.7565   4.7623   4.7698   4.8241   4.8390
  4.8747   4.9011   4.9264   4.9379   4.9478   4.9676   4.9844   5.0319
  5.0449   5.0605   5.0817   5.1367   5.1862   5.1972   5.2851   5.3233
  5.3689   5.3754   5.3888   5.3916   5.5129   5.5214   5.5263   5.5440
  5.6978   5.7166   5.8275   5.8299  22.6574  22.6628  22.6882  22.7475
 22.8624  22.9035  22.9317  22.9556  23.0047  23.0478  23.0597  23.1002
 23.1312  23.4431  23.4483
 --------------------------------------------------------------

          Ground-State Mulliken Net Atomic Charges

     Atom                 Charge (a.u.)
  ----------------------------------------
      1 C                    -0.441621
      2 C                    -0.987392
      3 C                     0.263028
      4 C                    -0.247190
      5 C                    -0.170940
      6 C                    -0.519895
      7 C                    -0.466046
      8 C                    -0.385018
      9 H                     0.239571
     10 H                     0.276815
     11 H                     0.252898
     12 H                     0.386425
     13 H                     0.319969
     14 H                     0.324303
     15 H                     0.327911
     16 H                     0.361122
     17 H                     0.238343
     18 H                     0.253728
     19 C                    -1.094246
     20 C                    -0.220895
     21 C                    -0.288596
     22 C                    -0.665655
     23 C                     0.695314
     24 C                    -0.579793
     25 C                    -0.433657
     26 H                     0.348478
     27 H                     0.388746
     28 H                     0.350726
     29 H                     0.337432
     30 H                     0.282299
     31 H                     0.280607
     32 H                     0.359127
     33 H                     0.214099
  ----------------------------------------
  Sum of atomic charges =     0.000000

 -----------------------------------------------------------------
                    Cartesian Multipole Moments
 -----------------------------------------------------------------
    Charge (ESU x 10^10)
                 0.0000
    Dipole Moment (Debye)
         X      -0.3958      Y       0.5660      Z       0.2778
       Tot       0.7445
    Quadrupole Moments (Debye-Ang)
        XX     -86.9051     XY      -5.1696     YY     -91.8460
        XZ       2.0626     YZ       0.5931     ZZ     -86.7333
    Octopole Moments (Debye-Ang^2)
       XXX     -16.9309    XXY      -9.1164    XYY      10.0832
       YYY      -1.0527    XXZ      21.4775    XYZ       6.6334
       YYZ      -8.6232    XZZ     -21.8671    YZZ     -19.4888
       ZZZ      11.6170
    Hexadecapole Moments (Debye-Ang^3)
      XXXX   -2221.8958   XXXY    -190.6968   XXYY    -576.9602
      XYYY    -192.9862   YYYY   -1221.4663   XXXZ     889.5469
      XXYZ      76.9102   XYYZ     300.2621   YYYZ     215.4916
      XXZZ    -839.7054   XYZZ     -75.7700   YYZZ    -640.7089
      XZZZ     894.0556   YZZZ     186.6290   ZZZZ   -2613.0239
 -----------------------------------------------------------------
Archival summary:
1\1\compute-0-5.local\SP\ProcedureUnspecified\BasisUnspecified\1518\meili\WedSep2915:18:112021WedSep2915:18:112021\0\\#,ProcedureUnspecified,BasisUnspecified,\\0,1\C\C,1,1.39701\H,2,1.07987,1,120.105\C,1,1.39728,2,119.183,3,-179.045,0\H,4,1.08086,1,120.011,2,179.091,0\C,4,1.39437,1,120.608,2,-0.784579,0\H,6,1.07894,4,120.331,1,178.985,0\C,6,1.39355,4,120.017,1,0.400697,0\H,8,1.08189,6,120.155,4,179.694,0\C,8,1.39701,6,119.85,4,-0.188299,0\H,10,1.08066,8,119.893,6,179.992,0\C,1,1.51002,2,120.677,3,-1.28952,0\H,12,1.09133,1,108.329,2,-38.406,0\H,12,1.09164,1,109.016,2,-154.627,0\C,12,1.52948,1,114.192,2,82.7802,0\H,15,1.09146,12,108.293,1,-60.4724,0\H,15,1.1,12,109.253,1,-179.126,0\H,15,1.1,12,111.331,1,57.4373,0\H,1,2.59122,2,93.7293,3,-96.4807,0\C,19,1.07789,1,131.503,2,71.0717,0\C,20,1.38984,19,120.021,1,-60.0746,0\H,21,1.08225,20,120.13,19,1.77836,0\C,21,1.39156,20,119.648,19,-177.584,0\H,23,1.07807,21,119.329,20,-179.292,0\C,20,1.39162,19,119.773,1,121.439,0\H,25,1.08006,20,119.644,19,-2.77937,0\C,25,1.39107,20,120.637,19,177.754,0\C,27,1.39356,25,119.137,20,0.181275,0\H,28,1.0767,27,119.829,25,178.924,0\C,27,1.50241,25,120.16,20,-179.214,0\H,30,1.09116,27,108.81,25,-147.88,0\H,30,1.09124,27,108.91,25,-31.7916,0\H,30,1.10001,27,113.892,25,90.317,0\\\@

 Total job time:  46645.99s(wall), 118078.15s(cpu) 
 Wed Sep 29 15:18:11 2021

        *************************************************************
        *                                                           *
        *  Thank you very much for using Q-Chem.  Have a nice day.  *
        *                                                           *
        *************************************************************


