
Running Job 1 of 1 SSI-047TYR-053ASP-1_SMD_TZVPD.in
qchem SSI-047TYR-053ASP-1_SMD_TZVPD.in_20206.0 /tmp/qchem20206/ 0
/global/common/cori/software/qchem/5.2/exe/qcprog.exe_s SSI-047TYR-053ASP-1_SMD_TZVPD.in_20206.0 /tmp/qchem20206/
                  Welcome to Q-Chem
     A Quantum Leap Into The Future Of Chemistry


 Q-Chem 5.2, Q-Chem, Inc., Pleasanton, CA (2019)

 License issued to: National Energy Research Scientific Computing Center

 Yihan Shao,  Zhengting Gan,  E. Epifanovsky,  A. T. B. Gilbert,  M. Wormit,  
 J. Kussmann,  A. W. Lange,  A. Behn,  Jia Deng,  Xintian Feng,  D. Ghosh,  
 M. Goldey,  P. R. Horn,  L. D. Jacobson,  I. Kaliman,  T. Kus,  A. Landau,  
 Jie Liu,  E. I. Proynov,  R. M. Richard,  R. P. Steele,  E. J. Sundstrom,  
 H. L. Woodcock III,  P. M. Zimmerman,  D. Zuev,  B. Albrecht,  E. Alguire,  
 S. A. Baeppler,  D. Barton,  Z. Benda,  Y. A. Bernard,  E. J. Berquist,  
 K. B. Bravaya,  H. Burton,  D. Casanova,  Chun-Min Chang,  Yunqing Chen,  
 A. Chien,  K. D. Closser,  M. P. Coons,  S. Coriani,  S. Dasgupta,  
 A. L. Dempwolff,  M. Diedenhofen,  Hainam Do,  R. G. Edgar,  Po-Tung Fang,  
 S. Faraji,  S. Fatehi,  Qingguo Feng,  K. D. Fenk,  J. Fosso-Tande,  
 J. Gayvert,  Qinghui Ge,  A. Ghysels,  G. Gidofalvi,  J. Gomes,  
 J. Gonthier,  A. Gunina,  D. Hait,  M. W. D. Hanson-Heine,  
 P. H. P. Harbach,  A. W. Hauser,  M. F. Herbst,  J. E. Herr,  
 E. G. Hohenstein,  Z. C. Holden,  Kerwin Hui,  B. C. Huynh,  T.-C. Jagau,  
 Hyunjun Ji,  B. Kaduk,  K. Khistyaev,  Jaehoon Kim,  P. Klunzinger,  K. Koh,  
 D. Kosenkov,  L. Koulias,  T. Kowalczyk,  C. M. Krauter,  A. Kunitsa,  
 Ka Un Lao,  A. Laurent,  K. V. Lawler,  Joonho Lee,  D. Lefrancois,  
 S. Lehtola,  D. S. Levine,  Yi-Pei Li,  You-Sheng Lin,  Fenglai Liu,  
 E. Livshits,  A. Luenser,  P. Manohar,  E. Mansoor,  S. F. Manzer,  
 Shan-Ping Mao,  Yuezhi Mao,  N. Mardirossian,  A. V. Marenich,  
 T. Markovich,  L. A. Martinez-Martinez,  S. A. Maurer,  N. J. Mayhall,  
 S. C. McKenzie,  J.-M. Mewes,  P. Morgante,  A. F. Morrison,  
 J. W. Mullinax,  K. Nanda,  T. S. Nguyen-Beck,  R. Olivares-Amaya,  
 J. A. Parkhill,  Zheng Pei,  T. M. Perrine,  F. Plasser,  P. Pokhilko,  
 S. Prager,  A. Prociuk,  E. Ramos,  D. R. Rehn,  F. Rob,  M. Scheurer,  
 M. Schneider,  N. Sergueev,  S. M. Sharada,  S. Sharma,  D. W. Small,  
 T. Stauch,  T. Stein,  Yu-Chuan Su,  A. J. W. Thom,  A. Tkatchenko,  
 T. Tsuchimochi,  N. M. Tubman,  L. Vogt,  M. L. Vidal,  O. Vydrov,  
 M. A. Watson,  J. Wenzel,  M. de Wergifosse,  T. A. Wesolowski,  A. White,  
 J. Witte,  A. Yamada,  Jun Yang,  K. Yao,  S. Yeganeh,  S. R. Yost,  
 Zhi-Qiang You,  A. Zech,  Igor Ying Zhang,  Xing Zhang,  Yan Zhao,  
 Ying Zhu,  B. R. Brooks,  G. K. L. Chan,  C. J. Cramer,  M. S. Gordon,  
 W. J. Hehre,  A. Klamt,  M. W. Schmidt,  C. D. Sherrill,  D. G. Truhlar,  
 A. Aspuru-Guzik,  R. Baer,  A. T. Bell,  N. A. Besley,  Jeng-Da Chai,  
 A. E. DePrince, III,  R. A. DiStasio Jr.,  A. Dreuw,  B. D. Dunietz,  
 T. R. Furlani,  Chao-Ping Hsu,  Yousung Jung,  Jing Kong,  D. S. Lambrecht,  
 WanZhen Liang,  C. Ochsenfeld,  V. A. Rassolov,  L. V. Slipchenko,  
 J. E. Subotnik,  T. Van Voorhis,  J. M. Herbert,  A. I. Krylov,  
 P. M. W. Gill,  M. Head-Gordon

 Contributors to earlier versions of Q-Chem not listed above: 
 R. D. Adamson,  B. Austin,  J. Baker,  G. J. O. Beran,  K. Brandhorst,  
 S. T. Brown,  E. F. C. Byrd,  A. K. Chakraborty,  C.-L. Cheng,  
 Siu Hung Chien,  D. M. Chipman,  D. L. Crittenden,  H. Dachsel,  
 R. J. Doerksen,  A. D. Dutoi,  L. Fusti-Molnar,  W. A. Goddard III,  
 A. Golubeva-Zadorozhnaya,  S. R. Gwaltney,  G. Hawkins,  A. Heyden,  
 S. Hirata,  G. Kedziora,  F. J. Keil,  C. Kelley,  Jihan Kim,  R. A. King,  
 R. Z. Khaliullin,  P. P. Korambath,  W. Kurlancheek,  A. M. Lee,  M. S. Lee,  
 S. V. Levchenko,  Ching Yeh Lin,  D. Liotard,  R. C. Lochan,  I. Lotan,  
 P. E. Maslen,  N. Nair,  D. P. O'Neill,  D. Neuhauser,  E. Neuscamman,  
 C. M. Oana,  R. Olson,  B. Peters,  R. Peverati,  P. A. Pieniazek,  
 Y. M. Rhee,  J. Ritchie,  M. A. Rohrdanz,  E. Rosta,  N. J. Russ,  
 H. F. Schaefer III,  N. E. Schultz,  N. Shenvi,  A. C. Simmonett,  A. Sodt,  
 D. Stuck,  K. S. Thanthiriwatte,  V. Vanovschi,  Tao Wang,  A. Warshel,  
 C. F. Williams,  Q. Wu,  X. Xu,  W. Zhang

 Please cite Q-Chem as follows:
 Y. Shao et al., Mol. Phys. 113, 184-215 (2015)
 DOI: 10.1080/00268976.2014.952696

 Q-Chem 5.2.0 for Intel X86 EM64T Linux

 Parts of Q-Chem use Armadillo 8.300.2 (Tropical Shenanigans).
 http://arma.sourceforge.net/

 Q-Chem begins on Sun Sep 26 08:03:47 2021  

Host: cori01
0

     Scratch files written to /tmp/qchem20206//
 May1019 |scratch|qcdevops|jenkins|workspace|build_RNUM -1
Processing $rem in /global/common/cori/software/qchem/5.2/config/preferences:
	 MEM_TOTAL  96000 
NAlpha2: 90
NElect   90
Mult     1
Symmetry turned off for PCM/SM12/SMD calculation

 Q-Chem warning in module libgen/rem_setup.C, line 2803:

 Neither GIA nor STOLL is specified by user. Use STOLL as the default


Checking the input file for inconsistencies... 	...done.

--------------------------------------------------------------
User input:
--------------------------------------------------------------
$comment
SSI-047TYR-053ASP-1.pdb
$end

$molecule
-1 1
--
0 1
C    1.031976932334   -4.109657625846   -1.723105104147
C   -0.596023067666   -0.228657625846   -0.786105104147
C   -1.233023067666   -1.058657625846   -1.697105104147
C    0.564976932334   -0.656657625846   -0.145105104147
C   -0.693023067666   -2.298657625846   -1.994105104147
C    1.096976932334   -1.910657625846   -0.446105104147
C    0.461976932334   -2.752657625846   -1.365105104147
O   -1.132023067666    0.995342374154   -0.551105104147
H   -2.045023067666    1.056342374154   -0.832105104147
H   -2.182023067666   -0.828657625846   -2.134105104147
H    1.034976932334   -0.016657625846    0.585894895853
H   -1.197023067666   -2.928657625846   -2.698105104147
H    1.980976932334   -2.249657625846    0.072894895853
H    0.228976932334   -4.844657625846   -1.678105104147
H    1.785976932334   -4.392657625846   -0.988105104147
H    1.478564932334   -4.139527625846   -2.727925104147
--
-1 1
C    0.774976932334    2.464342374154    3.252894895853
C    0.120976932334    2.700342374154    1.918894895853
O   -1.092023067666    2.985342374154    1.858894895853
O    0.830976932334    2.615342374154    0.910894895853
H    1.838976932334    2.340342374154    3.106894895853
H    0.410976932334    1.524342374154    3.657894895853
H    0.558685932334    3.275252374154    3.963974895853
$end

$rem
JOBTYPE			EDA
EDA2			1
method			wB97X-V
BASIS			def2-TZVPD
XC_GRID			000099000590
NL_GRID			1
UNRESTRICTED		FALSE
MAX_SCF_CYCLES		200
SYMMETRY		FALSE
SYM_IGNORE		TRUE
MEM_STATIC		2000
BASIS_LIN_DEP_THRESH 	6
THRESH 			14
SCF_CONVERGENCE 	8
SCF_PRINT_FRGM 		TRUE
SOLVENT_METHOD          SMD
$end

$SMX
SOLVENT			WATER
$END
--------------------------------------------------------------
 ----------------------------------------------------------------
             Standard Nuclear Orientation (Angstroms)
    I     Atom           X                Y                Z
 ----------------------------------------------------------------
    1      C       1.0319769323    -4.1096576258    -1.7231051041
    2      C      -0.5960230677    -0.2286576258    -0.7861051041
    3      C      -1.2330230677    -1.0586576258    -1.6971051041
    4      C       0.5649769323    -0.6566576258    -0.1451051041
    5      C      -0.6930230677    -2.2986576258    -1.9941051041
    6      C       1.0969769323    -1.9106576258    -0.4461051041
    7      C       0.4619769323    -2.7526576258    -1.3651051041
    8      O      -1.1320230677     0.9953423742    -0.5511051041
    9      H      -2.0450230677     1.0563423742    -0.8321051041
   10      H      -2.1820230677    -0.8286576258    -2.1341051041
   11      H       1.0349769323    -0.0166576258     0.5858948959
   12      H      -1.1970230677    -2.9286576258    -2.6981051041
   13      H       1.9809769323    -2.2496576258     0.0728948959
   14      H       0.2289769323    -4.8446576258    -1.6781051041
   15      H       1.7859769323    -4.3926576258    -0.9881051041
   16      H       1.4785649323    -4.1395276258    -2.7279251041
   17      C       0.7749769323     2.4643423742     3.2528948959
   18      C       0.1209769323     2.7003423742     1.9188948959
   19      O      -1.0920230677     2.9853423742     1.8588948959
   20      O       0.8309769323     2.6153423742     0.9108948959
   21      H       1.8389769323     2.3403423742     3.1068948959
   22      H       0.4109769323     1.5243423742     3.6578948959
   23      H       0.5586859323     3.2752523742     3.9639748959
 ----------------------------------------------------------------
 Nuclear Repulsion Energy =         644.38453086 hartrees
 There are       45 alpha and       45 beta electrons
 Requested basis set is def2-TZVPD
 There are 214 shells and 552 basis functions

 Total QAlloc Memory Limit  96000 MB
 Mega-Array Size      1956 MB
 MEM_STATIC part      2000 MB
 
 Citation of the SMD model:
 Marenich, A.V.; Cramer, C.J.; Truhlar, D.G.
 J. Phys. Chem. B 2009, 113, 6378-6396.
 iSolventCode=           1
 Solvent: water                                                           
 
 vradii
            1           2           3           4           5           6
    1   1.8500000   1.8500000   1.8500000   1.8500000   1.8500000   1.8500000
            7           8           9          10          11          12
    1   1.8500000   1.5200000   1.2000000   1.2000000   1.2000000   1.2000000
           13          14          15          16          17          18
    1   1.2000000   1.2000000   1.2000000   1.2000000   1.8500000   1.8500000
           19          20          21          22          23
    1   1.5200000   1.5200000   1.2000000   1.2000000   1.2000000
 Changing PCM_VDW_RADII to SMD_RADIUS
 Discretize the solute cavity surface with Lebedev spheres
	Using 110 Lebedev grid points for each H atom
	Using 194 Lebedev grid points for other atoms
	Atomic van der Waals radii will be scaled by 1.20
 Remove points where switching function is < 1.0e-08
 Keep 1808 surface tesserae and discard 1730 interior tesserae
 Molecular Surface Area = 218.486 Angst**2
 A cutoff of  1.0D-14 yielded  19644 shell pairs
 There are    131594 function pairs (    167112 Cartesian)
 Smallest overlap matrix eigenvalue = 5.08E-07
 Linear dependence detected in AO basis
 Tighter screening thresholds may be required for diffuse basis sets
 Use S2THRESH > 14 and THRESH = 14 in case of SCF convergence issues
 Number of orthogonalized atomic orbitals = 551
 Maximum deviation from orthogonality = 2.858E-10

 Scale SEOQF with 1.000000e-01/1.000000e-01/1.000000e-01

 Standard Electronic Orientation quadrupole field applied
 Nucleus-field energy     =     0.0000000121 hartrees

 -----------------------------------------------------------------------
  General SCF calculation program by
  Eric Jon Sundstrom, Paul Horn, Yuezhi Mao, Dmitri Zuev, Alec White,
  David Stuck, Shaama M.S., Shane Yost, Joonho Lee, David Small,
  Daniel Levine, Susi Lehtola, Hugh Burton, Evgeny Epifanovsky
 -----------------------------------------------------------------------
================================================================
                 ALMO-EDA with the EDA2 driver                  
================================================================
 The second-generation ALMO-EDA (for DFT):                      
 P. R. Horn, Y. Mao and M. Head-Gordon, PCCP, 18, 23067 (2016)  
 Decomposition of the frozen energy:                            
 P. R. Horn, Y. Mao and M. Head-Gordon, JCP, 144, 114107 (2016) 
 FERF model for polarization:                                   
 P. R. Horn and M. Head-Gordon, JCP, 143, 114111 (2015)         
Using eda2 option set 1
Option set summary: Frozen orbital wavefunction, initial wavefunction decomposition, and nDQ polarization.
--------------------------------
Printing EDA Options
--------------------------------
eda_child_super_basis      0
fragmo_guess_mode          0
child_mp                   1
child_mp_orders            232
cls_elec                   1
cls_disp                   0
scfmi_mode                 1
scfmi_occs                 0
scfmi_virts                0
frz_relax                  0
frz_relax_method           0
dc_pen_start               0
dc_pen_conv                0
dc_pen_increment           0
dc_pen_steps               0
dc_pen_thresh_factor       0
dc_pen_pre_newton_thresh   0
frz_ortho_decomp           1
frz_ortho_decomp_conv      6
frgm_method                2
scfmi_freeze_ss            0
separate_rehyb             0
plot_diff_den              0
eda_nocv                   0
eda_vct_relax              1
disp_free_x                0
disp_free_c                0
eda_bsse                   0
eda_pct_a                  0
eda_covp                   0
--------------------------------
Attempting to make child job directory: /tmp/qchem20206//Frg1/
Attempting to make child job directory: /tmp/qchem20206//Frg2/
Creating input file /tmp/qchem20206/Frg1.input
using default PutDataFrgm: nothing
calling putenv with: QCSCRATCH=/tmp/qchem20206/ 
calling putenv with: QCLOCALSCR=/tmp/qchem20206/ 
Spawning Job For Fragment 0
                  Welcome to Q-Chem
     A Quantum Leap Into The Future Of Chemistry


 Q-Chem 5.2, Q-Chem, Inc., Pleasanton, CA (2019)

 License issued to: National Energy Research Scientific Computing Center

 Yihan Shao,  Zhengting Gan,  E. Epifanovsky,  A. T. B. Gilbert,  M. Wormit,  
 J. Kussmann,  A. W. Lange,  A. Behn,  Jia Deng,  Xintian Feng,  D. Ghosh,  
 M. Goldey,  P. R. Horn,  L. D. Jacobson,  I. Kaliman,  T. Kus,  A. Landau,  
 Jie Liu,  E. I. Proynov,  R. M. Richard,  R. P. Steele,  E. J. Sundstrom,  
 H. L. Woodcock III,  P. M. Zimmerman,  D. Zuev,  B. Albrecht,  E. Alguire,  
 S. A. Baeppler,  D. Barton,  Z. Benda,  Y. A. Bernard,  E. J. Berquist,  
 K. B. Bravaya,  H. Burton,  D. Casanova,  Chun-Min Chang,  Yunqing Chen,  
 A. Chien,  K. D. Closser,  M. P. Coons,  S. Coriani,  S. Dasgupta,  
 A. L. Dempwolff,  M. Diedenhofen,  Hainam Do,  R. G. Edgar,  Po-Tung Fang,  
 S. Faraji,  S. Fatehi,  Qingguo Feng,  K. D. Fenk,  J. Fosso-Tande,  
 J. Gayvert,  Qinghui Ge,  A. Ghysels,  G. Gidofalvi,  J. Gomes,  
 J. Gonthier,  A. Gunina,  D. Hait,  M. W. D. Hanson-Heine,  
 P. H. P. Harbach,  A. W. Hauser,  M. F. Herbst,  J. E. Herr,  
 E. G. Hohenstein,  Z. C. Holden,  Kerwin Hui,  B. C. Huynh,  T.-C. Jagau,  
 Hyunjun Ji,  B. Kaduk,  K. Khistyaev,  Jaehoon Kim,  P. Klunzinger,  K. Koh,  
 D. Kosenkov,  L. Koulias,  T. Kowalczyk,  C. M. Krauter,  A. Kunitsa,  
 Ka Un Lao,  A. Laurent,  K. V. Lawler,  Joonho Lee,  D. Lefrancois,  
 S. Lehtola,  D. S. Levine,  Yi-Pei Li,  You-Sheng Lin,  Fenglai Liu,  
 E. Livshits,  A. Luenser,  P. Manohar,  E. Mansoor,  S. F. Manzer,  
 Shan-Ping Mao,  Yuezhi Mao,  N. Mardirossian,  A. V. Marenich,  
 T. Markovich,  L. A. Martinez-Martinez,  S. A. Maurer,  N. J. Mayhall,  
 S. C. McKenzie,  J.-M. Mewes,  P. Morgante,  A. F. Morrison,  
 J. W. Mullinax,  K. Nanda,  T. S. Nguyen-Beck,  R. Olivares-Amaya,  
 J. A. Parkhill,  Zheng Pei,  T. M. Perrine,  F. Plasser,  P. Pokhilko,  
 S. Prager,  A. Prociuk,  E. Ramos,  D. R. Rehn,  F. Rob,  M. Scheurer,  
 M. Schneider,  N. Sergueev,  S. M. Sharada,  S. Sharma,  D. W. Small,  
 T. Stauch,  T. Stein,  Yu-Chuan Su,  A. J. W. Thom,  A. Tkatchenko,  
 T. Tsuchimochi,  N. M. Tubman,  L. Vogt,  M. L. Vidal,  O. Vydrov,  
 M. A. Watson,  J. Wenzel,  M. de Wergifosse,  T. A. Wesolowski,  A. White,  
 J. Witte,  A. Yamada,  Jun Yang,  K. Yao,  S. Yeganeh,  S. R. Yost,  
 Zhi-Qiang You,  A. Zech,  Igor Ying Zhang,  Xing Zhang,  Yan Zhao,  
 Ying Zhu,  B. R. Brooks,  G. K. L. Chan,  C. J. Cramer,  M. S. Gordon,  
 W. J. Hehre,  A. Klamt,  M. W. Schmidt,  C. D. Sherrill,  D. G. Truhlar,  
 A. Aspuru-Guzik,  R. Baer,  A. T. Bell,  N. A. Besley,  Jeng-Da Chai,  
 A. E. DePrince, III,  R. A. DiStasio Jr.,  A. Dreuw,  B. D. Dunietz,  
 T. R. Furlani,  Chao-Ping Hsu,  Yousung Jung,  Jing Kong,  D. S. Lambrecht,  
 WanZhen Liang,  C. Ochsenfeld,  V. A. Rassolov,  L. V. Slipchenko,  
 J. E. Subotnik,  T. Van Voorhis,  J. M. Herbert,  A. I. Krylov,  
 P. M. W. Gill,  M. Head-Gordon

 Contributors to earlier versions of Q-Chem not listed above: 
 R. D. Adamson,  B. Austin,  J. Baker,  G. J. O. Beran,  K. Brandhorst,  
 S. T. Brown,  E. F. C. Byrd,  A. K. Chakraborty,  C.-L. Cheng,  
 Siu Hung Chien,  D. M. Chipman,  D. L. Crittenden,  H. Dachsel,  
 R. J. Doerksen,  A. D. Dutoi,  L. Fusti-Molnar,  W. A. Goddard III,  
 A. Golubeva-Zadorozhnaya,  S. R. Gwaltney,  G. Hawkins,  A. Heyden,  
 S. Hirata,  G. Kedziora,  F. J. Keil,  C. Kelley,  Jihan Kim,  R. A. King,  
 R. Z. Khaliullin,  P. P. Korambath,  W. Kurlancheek,  A. M. Lee,  M. S. Lee,  
 S. V. Levchenko,  Ching Yeh Lin,  D. Liotard,  R. C. Lochan,  I. Lotan,  
 P. E. Maslen,  N. Nair,  D. P. O'Neill,  D. Neuhauser,  E. Neuscamman,  
 C. M. Oana,  R. Olson,  B. Peters,  R. Peverati,  P. A. Pieniazek,  
 Y. M. Rhee,  J. Ritchie,  M. A. Rohrdanz,  E. Rosta,  N. J. Russ,  
 H. F. Schaefer III,  N. E. Schultz,  N. Shenvi,  A. C. Simmonett,  A. Sodt,  
 D. Stuck,  K. S. Thanthiriwatte,  V. Vanovschi,  Tao Wang,  A. Warshel,  
 C. F. Williams,  Q. Wu,  X. Xu,  W. Zhang

 Please cite Q-Chem as follows:
 Y. Shao et al., Mol. Phys. 113, 184-215 (2015)
 DOI: 10.1080/00268976.2014.952696

 Q-Chem 5.2.0 for Intel X86 EM64T Linux

 Parts of Q-Chem use Armadillo 8.300.2 (Tropical Shenanigans).
 http://arma.sourceforge.net/

 Q-Chem begins on Sun Sep 26 08:03:51 2021  

Host: cori01
0

     Scratch files written to /tmp/qchem20206//Frg1//
 May1019 |scratch|qcdevops|jenkins|workspace|build_RNUM -1
Processing $rem in /global/common/cori/software/qchem/5.2/config/preferences:
	 MEM_TOTAL  96000 
NAlpha2: 58
NElect   58
Mult     1
Symmetry turned off for PCM/SM12/SMD calculation

Checking the input file for inconsistencies... 	...done.

--------------------------------------------------------------
User input:
--------------------------------------------------------------
$molecule
0 1
 6	1.0319769323	-4.1096576258	-1.7231051041
 6	-0.5960230677	-0.2286576258	-0.7861051041
 6	-1.2330230677	-1.0586576258	-1.6971051041
 6	0.5649769323	-0.6566576258	-0.1451051041
 6	-0.6930230677	-2.2986576258	-1.9941051041
 6	1.0969769323	-1.9106576258	-0.4461051041
 6	0.4619769323	-2.7526576258	-1.3651051041
 8	-1.1320230677	0.9953423742	-0.5511051041
 1	-2.0450230677	1.0563423742	-0.8321051041
 1	-2.1820230677	-0.8286576258	-2.1341051041
 1	1.0349769323	-0.0166576258	0.5858948959
 1	-1.1970230677	-2.9286576258	-2.6981051041
 1	1.9809769323	-2.2496576258	0.0728948959
 1	0.2289769323	-4.8446576258	-1.6781051041
 1	1.7859769323	-4.3926576258	-0.9881051041
 1	1.4785649323	-4.1395276258	-2.7279251041
$end
$rem
EDA2		1
METHOD		WB97X-V
BASIS		DEF2-TZVPD
XC_GRID		000099000590
NL_GRID		1
UNRESTRICTED		FALSE
MAX_SCF_CYCLES		200
SYMMETRY		FALSE
SYM_IGNORE		TRUE
BASIS_LIN_DEP_THRESH		6
THRESH		14
SCF_CONVERGENCE		8
SCF_PRINT_FRGM		TRUE
SOLVENT_METHOD		SMD
!required keywords
JOBTYPE		SP
SYM_IGNORE		TRUE
SUBSYSTEM		TRUE
GEN_SCFMAN		TRUE
CHILD_INSTRUCTION		2
SYM_IGNORE		TRUE
SCFMI		0
RI_K 0		
PARI_K 0		
MIN_PARI_K 0		
IARI_K 0		
OCC_RI_K 0		
PURECART		1111
MEM_STATIC		2000
MEM_TOTAL		96000
GUI		0
CHILD_MP		1
CHILD_MP_ORDERS		232
FRZ_RELAX		0
FRZ_RELAX_METHOD		0
EDA_CLS_ELEC		1
EDA_CLS_DISP		0
FRZ_ORTHO_DECOMP		1
EDA2		FALSE
FRGM_METHOD		FALSE
CIS_N_ROOTS  0
LOCAL_CIS    0
CIS_RLX_DNS  1
$end
$smx
SOLVENT			WATER
$end
--------------------------------------------------------------
 ----------------------------------------------------------------
             Standard Nuclear Orientation (Angstroms)
    I     Atom           X                Y                Z
 ----------------------------------------------------------------
    1      C       1.0319769323    -4.1096576258    -1.7231051041
    2      C      -0.5960230677    -0.2286576258    -0.7861051041
    3      C      -1.2330230677    -1.0586576258    -1.6971051041
    4      C       0.5649769323    -0.6566576258    -0.1451051041
    5      C      -0.6930230677    -2.2986576258    -1.9941051041
    6      C       1.0969769323    -1.9106576258    -0.4461051041
    7      C       0.4619769323    -2.7526576258    -1.3651051041
    8      O      -1.1320230677     0.9953423742    -0.5511051041
    9      H      -2.0450230677     1.0563423742    -0.8321051041
   10      H      -2.1820230677    -0.8286576258    -2.1341051041
   11      H       1.0349769323    -0.0166576258     0.5858948959
   12      H      -1.1970230677    -2.9286576258    -2.6981051041
   13      H       1.9809769323    -2.2496576258     0.0728948959
   14      H       0.2289769323    -4.8446576258    -1.6781051041
   15      H       1.7859769323    -4.3926576258    -0.9881051041
   16      H       1.4785649323    -4.1395276258    -2.7279251041
 ----------------------------------------------------------------
 Nuclear Repulsion Energy =         343.45499810 hartrees
 There are       29 alpha and       29 beta electrons
 Requested basis set is def2-TZVPD
 There are 145 shells and 371 basis functions

 Total QAlloc Memory Limit  96000 MB
 Mega-Array Size      1956 MB
 MEM_STATIC part      2000 MB
 
 Citation of the SMD model:
 Marenich, A.V.; Cramer, C.J.; Truhlar, D.G.
 J. Phys. Chem. B 2009, 113, 6378-6396.
 iSolventCode=           1
 Solvent: water                                                           
 
 vradii
            1           2           3           4           5           6
    1   1.8500000   1.8500000   1.8500000   1.8500000   1.8500000   1.8500000
            7           8           9          10          11          12
    1   1.8500000   1.5200000   1.2000000   1.2000000   1.2000000   1.2000000
           13          14          15          16
    1   1.2000000   1.2000000   1.2000000   1.2000000
 Changing PCM_VDW_RADII to SMD_RADIUS
 Discretize the solute cavity surface with Lebedev spheres
	Using 110 Lebedev grid points for each H atom
	Using 194 Lebedev grid points for other atoms
	Atomic van der Waals radii will be scaled by 1.20
 Remove points where switching function is < 1.0e-08
 Keep 1166 surface tesserae and discard 1266 interior tesserae
 Molecular Surface Area = 141.690 Angst**2
 A cutoff of  1.0D-14 yielded  10045 shell pairs
 There are     67073 function pairs (     85762 Cartesian)
 Smallest overlap matrix eigenvalue = 5.77E-07
 Linear dependence detected in AO basis
 Tighter screening thresholds may be required for diffuse basis sets
 Use S2THRESH > 14 and THRESH = 14 in case of SCF convergence issues
 Number of orthogonalized atomic orbitals = 370
 Maximum deviation from orthogonality = 2.186E-10

 Scale SEOQF with 1.000000e-01/1.000000e-01/1.000000e-01

 Standard Electronic Orientation quadrupole field applied
 Nucleus-field energy     =     0.0000000123 hartrees
 Guess from superposition of atomic densities
 Warning:  Energy on first SCF cycle will be non-variational
 SAD guess density has 57.738434 electrons

 -----------------------------------------------------------------------
  General SCF calculation program by
  Eric Jon Sundstrom, Paul Horn, Yuezhi Mao, Dmitri Zuev, Alec White,
  David Stuck, Shaama M.S., Shane Yost, Joonho Lee, David Small,
  Daniel Levine, Susi Lehtola, Hugh Burton, Evgeny Epifanovsky
 -----------------------------------------------------------------------
 Exchange:     0.1670 Hartree-Fock + 1.0000 wB97X-V + LR-HF
 Correlation:  1.0000 wB97X-V
 Using Euler-Maclaurin-Lebedev (99,590) quadrature formula
 Nonlocal Correlation:  VV10 with C = 0.0100 and b = 6.00 and scale = 1.00000
 Grid used for NLC:  SG-1 standard quadrature
Energy prior to optimization (guess energy) = -346.495809196481
Begin Timing: Total SCF Calculation
begin iterations for algorithm: DIIS         
the SCF tolerance is set to 1.00e-08
    1    -346.4958091965      5.17e-03     00000 
    2    -346.4459111498      5.53e-03     00000 
    3    -346.8181508734      5.24e-04     00000 
    4    -346.8228726131      1.72e-04     00000 
    5    -346.8235434569      3.60e-05     00000 
    6    -346.8235906796      1.24e-05     00000 
    7    -346.8235950321      4.67e-06     00000 
    8    -346.8235956774      1.35e-06     00000 
    9    -346.8235957585      4.49e-07     00000 
   10    -346.8235957695      2.31e-07     00000 
   11    -346.8235957727      7.04e-08     00000 
   12    -346.8235957733      3.39e-08     00000 
   13    -346.8235957734      1.38e-08     00000 
   14    -346.8235957734      3.37e-09     00000 Convergence criterion met
Timing for Total SCF: 2116.00s (wall), 4204.92s (cpu)
(3)  G-ENP(liq) elect-nuc-pol free energy of system     -346.823595773 a.u.
(4)  G-CDS(liq) cavity-dispersion-solvent structure 
     free energy                                                3.8130 kcal/mol
(6)  G-S(liq) free energy of system                     -346.817519348 a.u.
E_pcm = -0.0172211861
E_cds = 0.0060764258
Multipole orders to be included
        2
        3
computing dipole RHS
computing quadrupole RHS
total number of RHS in solve_reponses: 8
RHS batch sizes
        8
Beginning Block Conjugate Gradient Iterations. Batch Number: 0
computing hessian-vector products by finite difference
              1      6.51e-01     00000 Conjugate Gradient Iteration
computing hessian-vector products by finite difference
              2      1.90e-01     00000 Conjugate Gradient Iteration
computing hessian-vector products by finite difference
              3      5.01e-02     00000 Conjugate Gradient Iteration
computing hessian-vector products by finite difference
              4      1.53e-02     00000 Conjugate Gradient Iteration
computing hessian-vector products by finite difference
              5      3.99e-03     00000 Conjugate Gradient Iteration
computing hessian-vector products by finite difference
              6      1.59e-03     00000 Conjugate Gradient Iteration
computing hessian-vector products by finite difference
              7      3.78e-04     00000 Conjugate Gradient Iteration
computing hessian-vector products by finite difference
              8      7.35e-05     00000 Conjugate Gradient Iteration
computing hessian-vector products by finite difference
              9      1.36e-05     00000 Conjugate Gradient Iteration
computing hessian-vector products by finite difference
             10      2.05e-06     00000 Conjugate Gradient Iteration
computing hessian-vector products by finite difference
             11      2.75e-07     00000 Conjugate Gradient Iteration
computing hessian-vector products by finite difference
             12      4.39e-08     00000 Conjugate Gradient Iteration
computing hessian-vector products by finite difference
             13      6.93e-09     00000 CG Converged
batch 0 complete
Done Calculating Responses
TESTING ORTHOGONALIZATION OF MULTIPOLE BASIS
Multipole virts passed orthogonality test
Virts Per Order
           87
          145
 
 --------------------------------------------------------------
 
                    Orbital Energies (a.u.)
 --------------------------------------------------------------
 
 Alpha MOs
 -- Occupied --
-19.2378 -10.3303 -10.2712 -10.2695 -10.2670 -10.2639 -10.2617 -10.2532
 -1.1922  -0.9910  -0.8950  -0.8799  -0.8042  -0.7411  -0.7111  -0.6632
 -0.5970  -0.5759  -0.5470  -0.5352  -0.5278  -0.5179  -0.5023  -0.4702
 -0.4485  -0.4402  -0.4318  -0.3494  -0.3100
 -- Virtual --
  0.0638   0.0645   0.0746   0.0814   0.0889   0.0997   0.1146   0.1153
  0.1180   0.1370   0.1515   0.1550   0.1608   0.1798   0.1808   0.1983
  0.2061   0.2111   0.2202   0.2298   0.2399   0.2447   0.2552   0.2619
  0.2689   0.2731   0.2755   0.2798   0.2925   0.3005   0.3009   0.3061
  0.3094   0.3138   0.3183   0.3286   0.3395   0.3452   0.3533   0.3566
  0.3584   0.3656   0.3687   0.3777   0.3817   0.3850   0.3866   0.3952
  0.4000   0.4030   0.4070   0.4108   0.4187   0.4252   0.4320   0.4385
  0.4424   0.4563   0.4624   0.4653   0.4753   0.4798   0.4812   0.4909
  0.4931   0.4988   0.5031   0.5098   0.5171   0.5198   0.5361   0.5410
  0.5453   0.5484   0.5556   0.5568   0.5642   0.5727   0.5814   0.5900
  0.6037   0.6071   0.6227   0.6384   0.6462   0.6574   0.6617   0.6722
  0.6813   0.6870   0.6958   0.6997   0.7097   0.7105   0.7233   0.7335
  0.7395   0.7433   0.7494   0.7571   0.7641   0.7737   0.7849   0.7888
  0.7956   0.7994   0.8015   0.8046   0.8139   0.8231   0.8339   0.8387
  0.8471   0.8551   0.8593   0.8600   0.8670   0.8830   0.8840   0.8974
  0.9107   0.9148   0.9354   0.9515   0.9624   0.9795   1.0019   1.0122
  1.0276   1.0405   1.0459   1.0547   1.0577   1.0672   1.0782   1.0824
  1.1022   1.1305   1.1308   1.1738   1.2000   1.2232   1.2738   1.2917
  1.3117   1.3223   1.3279   1.3613   1.3731   1.3838   1.4005   1.4454
  1.4610   1.4709   1.4756   1.4980   1.5396   1.5619   1.6048   1.6296
  1.6349   1.6481   1.6925   1.7042   1.7222   1.7316   1.7675   1.8054
  1.8263   1.8326   1.8444   1.8553   1.8646   1.9062   1.9190   1.9384
  1.9510   1.9616   1.9892   1.9937   2.0004   2.0289   2.0332   2.0493
  2.0687   2.0830   2.0949   2.1179   2.1329   2.1613   2.2009   2.2091
  2.2385   2.2514   2.2694   2.2909   2.3042   2.3227   2.3430   2.3737
  2.4098   2.4245   2.4270   2.4739   2.4870   2.5076   2.5425   2.5583
  2.5985   2.6151   2.6277   2.6426   2.6610   2.6685   2.6970   2.7500
  2.7637   2.7704   2.7923   2.8121   2.8196   2.8324   2.8669   2.8751
  2.9044   2.9287   2.9429   2.9548   2.9748   2.9805   2.9935   3.0197
  3.0239   3.0484   3.0688   3.0879   3.1011   3.1419   3.1601   3.1709
  3.1865   3.2103   3.2205   3.2238   3.2430   3.2613   3.2942   3.3016
  3.3218   3.3662   3.3928   3.3950   3.4031   3.4145   3.4457   3.4562
  3.4707   3.4761   3.4853   3.5106   3.5283   3.5309   3.5480   3.5533
  3.5542   3.5661   3.5812   3.6028   3.6101   3.6460   3.6492   3.6730
  3.6986   3.7130   3.7388   3.7624   3.7803   3.8220   3.8576   3.9203
  3.9437   3.9647   3.9745   4.0044   4.0611   4.0850   4.1532   4.1677
  4.2598   4.2842   4.3037   4.3112   4.3242   4.3466   4.3602   4.3784
  4.3891   4.4014   4.4293   4.4680   4.4852   4.5431   4.6092   4.6230
  4.7504   4.7692   4.7986   4.8229   4.8567   4.9238   5.0200   5.0676
  5.0934   5.1261   5.1583   5.2980   5.3261   5.4326   5.4605   5.5350
  5.5900   5.6951   5.7363   5.7573   5.9783   6.2195   6.5124   6.5612
  6.7070   6.8864   7.0049   7.2972   7.4494  22.6769  22.6891  22.9514
 23.0066  23.0651  23.1968  23.5269  44.4261
 --------------------------------------------------------------
 
          Ground-State Mulliken Net Atomic Charges

     Atom                 Charge (a.u.)
  ----------------------------------------
      1 C                    -1.054556
      2 C                     0.665405
      3 C                    -0.430820
      4 C                    -0.761942
      5 C                    -0.616097
      6 C                    -0.452942
      7 C                     0.500104
      8 O                    -0.544816
      9 H                     0.335735
     10 H                     0.371911
     11 H                     0.397544
     12 H                     0.400507
     13 H                     0.373655
     14 H                     0.274828
     15 H                     0.294260
     16 H                     0.247223
  ----------------------------------------
  Sum of atomic charges =     0.000000

 -----------------------------------------------------------------
                    Cartesian Multipole Moments
 -----------------------------------------------------------------
    Charge (ESU x 10^10)
                 0.0000
    Dipole Moment (Debye)
         X      -1.5794      Y      -1.2070      Z      -0.8386
       Tot       2.1575
    Quadrupole Moments (Debye-Ang)
        XX     -39.2641     XY      -2.7491     YY     -44.7672
        XZ       6.0689     YZ       2.8181     ZZ     -46.4095
    Octopole Moments (Debye-Ang^2)
       XXX     -12.3333    XXY      76.9251    XYY       5.2134
       YYY     207.9631    XXZ      43.4063    XYZ      -1.8783
       YYZ      40.0901    XZZ      -7.1640    YZZ      68.6060
       ZZZ     156.2204
    Hexadecapole Moments (Debye-Ang^3)
      XXXX    -289.7566   XXXY     108.3989   XXYY    -286.9862
      XYYY     119.4002   YYYY   -1449.8890   XXXZ       0.3325
      XXYZ    -117.4959   XYYZ       0.3503   YYYZ    -303.4599
      XXZZ    -129.5268   XYZZ      52.3268   YYZZ    -313.2359
      XZZZ     -16.8244   YZZZ    -326.0148   ZZZZ    -554.4750
 -----------------------------------------------------------------
Archival summary:
1\1\nid00566\SP\ProcedureUnspecified\BasisUnspecified\178\meili\SunSep2618:48:022021SunSep2618:48:022021\0\\#,ProcedureUnspecified,BasisUnspecified,\\0,1\C\O,1,1.35672\H,2,0.95721,1,112.549\C,1,1.3873,2,118.171,3,18.1513,0\H,4,1.0698,1,123.157,2,-7.39326,0\C,4,1.38471,1,119.838,2,178.005,0\H,6,1.07076,4,118.969,1,179.905,0\C,6,1.39132,4,121.264,1,1.9655,0\C,1,1.39355,2,121.773,3,-162.144,0\H,9,1.07929,1,119.487,2,2.29881,0\C,9,1.39504,1,119.64,2,-178.335,0\H,11,1.07969,9,119.39,1,-178.304,0\C,8,1.51476,6,119.858,4,-179.471,0\H,13,1.08952,8,108.497,6,-49.7898,0\H,13,1.09033,8,109.477,6,-167.266,0\H,13,1.1,8,113.141,6,70.7645,0\\\@

 Total job time:  38656.64s(wall), 76798.90s(cpu) 
 Sun Sep 26 18:48:08 2021

        *************************************************************
        *                                                           *
        *  Thank you very much for using Q-Chem.  Have a nice day.  *
        *                                                           *
        *************************************************************


Done Job For Fragment 0
calling putenv with: QCSCRATCH=/global/cscratch1/sd/meili 
calling putenv with: QCLOCALSCR=/tmp 
calling putenv with: QCTHREADS=32 
Creating input file /tmp/qchem20206/Frg2.input
using default PutDataFrgm: nothing
calling putenv with: QCSCRATCH=/tmp/qchem20206/ 
calling putenv with: QCLOCALSCR=/tmp/qchem20206/ 
Spawning Job For Fragment 1
                  Welcome to Q-Chem
     A Quantum Leap Into The Future Of Chemistry


 Q-Chem 5.2, Q-Chem, Inc., Pleasanton, CA (2019)

 License issued to: National Energy Research Scientific Computing Center

 Yihan Shao,  Zhengting Gan,  E. Epifanovsky,  A. T. B. Gilbert,  M. Wormit,  
 J. Kussmann,  A. W. Lange,  A. Behn,  Jia Deng,  Xintian Feng,  D. Ghosh,  
 M. Goldey,  P. R. Horn,  L. D. Jacobson,  I. Kaliman,  T. Kus,  A. Landau,  
 Jie Liu,  E. I. Proynov,  R. M. Richard,  R. P. Steele,  E. J. Sundstrom,  
 H. L. Woodcock III,  P. M. Zimmerman,  D. Zuev,  B. Albrecht,  E. Alguire,  
 S. A. Baeppler,  D. Barton,  Z. Benda,  Y. A. Bernard,  E. J. Berquist,  
 K. B. Bravaya,  H. Burton,  D. Casanova,  Chun-Min Chang,  Yunqing Chen,  
 A. Chien,  K. D. Closser,  M. P. Coons,  S. Coriani,  S. Dasgupta,  
 A. L. Dempwolff,  M. Diedenhofen,  Hainam Do,  R. G. Edgar,  Po-Tung Fang,  
 S. Faraji,  S. Fatehi,  Qingguo Feng,  K. D. Fenk,  J. Fosso-Tande,  
 J. Gayvert,  Qinghui Ge,  A. Ghysels,  G. Gidofalvi,  J. Gomes,  
 J. Gonthier,  A. Gunina,  D. Hait,  M. W. D. Hanson-Heine,  
 P. H. P. Harbach,  A. W. Hauser,  M. F. Herbst,  J. E. Herr,  
 E. G. Hohenstein,  Z. C. Holden,  Kerwin Hui,  B. C. Huynh,  T.-C. Jagau,  
 Hyunjun Ji,  B. Kaduk,  K. Khistyaev,  Jaehoon Kim,  P. Klunzinger,  K. Koh,  
 D. Kosenkov,  L. Koulias,  T. Kowalczyk,  C. M. Krauter,  A. Kunitsa,  
 Ka Un Lao,  A. Laurent,  K. V. Lawler,  Joonho Lee,  D. Lefrancois,  
 S. Lehtola,  D. S. Levine,  Yi-Pei Li,  You-Sheng Lin,  Fenglai Liu,  
 E. Livshits,  A. Luenser,  P. Manohar,  E. Mansoor,  S. F. Manzer,  
 Shan-Ping Mao,  Yuezhi Mao,  N. Mardirossian,  A. V. Marenich,  
 T. Markovich,  L. A. Martinez-Martinez,  S. A. Maurer,  N. J. Mayhall,  
 S. C. McKenzie,  J.-M. Mewes,  P. Morgante,  A. F. Morrison,  
 J. W. Mullinax,  K. Nanda,  T. S. Nguyen-Beck,  R. Olivares-Amaya,  
 J. A. Parkhill,  Zheng Pei,  T. M. Perrine,  F. Plasser,  P. Pokhilko,  
 S. Prager,  A. Prociuk,  E. Ramos,  D. R. Rehn,  F. Rob,  M. Scheurer,  
 M. Schneider,  N. Sergueev,  S. M. Sharada,  S. Sharma,  D. W. Small,  
 T. Stauch,  T. Stein,  Yu-Chuan Su,  A. J. W. Thom,  A. Tkatchenko,  
 T. Tsuchimochi,  N. M. Tubman,  L. Vogt,  M. L. Vidal,  O. Vydrov,  
 M. A. Watson,  J. Wenzel,  M. de Wergifosse,  T. A. Wesolowski,  A. White,  
 J. Witte,  A. Yamada,  Jun Yang,  K. Yao,  S. Yeganeh,  S. R. Yost,  
 Zhi-Qiang You,  A. Zech,  Igor Ying Zhang,  Xing Zhang,  Yan Zhao,  
 Ying Zhu,  B. R. Brooks,  G. K. L. Chan,  C. J. Cramer,  M. S. Gordon,  
 W. J. Hehre,  A. Klamt,  M. W. Schmidt,  C. D. Sherrill,  D. G. Truhlar,  
 A. Aspuru-Guzik,  R. Baer,  A. T. Bell,  N. A. Besley,  Jeng-Da Chai,  
 A. E. DePrince, III,  R. A. DiStasio Jr.,  A. Dreuw,  B. D. Dunietz,  
 T. R. Furlani,  Chao-Ping Hsu,  Yousung Jung,  Jing Kong,  D. S. Lambrecht,  
 WanZhen Liang,  C. Ochsenfeld,  V. A. Rassolov,  L. V. Slipchenko,  
 J. E. Subotnik,  T. Van Voorhis,  J. M. Herbert,  A. I. Krylov,  
 P. M. W. Gill,  M. Head-Gordon

 Contributors to earlier versions of Q-Chem not listed above: 
 R. D. Adamson,  B. Austin,  J. Baker,  G. J. O. Beran,  K. Brandhorst,  
 S. T. Brown,  E. F. C. Byrd,  A. K. Chakraborty,  C.-L. Cheng,  
 Siu Hung Chien,  D. M. Chipman,  D. L. Crittenden,  H. Dachsel,  
 R. J. Doerksen,  A. D. Dutoi,  L. Fusti-Molnar,  W. A. Goddard III,  
 A. Golubeva-Zadorozhnaya,  S. R. Gwaltney,  G. Hawkins,  A. Heyden,  
 S. Hirata,  G. Kedziora,  F. J. Keil,  C. Kelley,  Jihan Kim,  R. A. King,  
 R. Z. Khaliullin,  P. P. Korambath,  W. Kurlancheek,  A. M. Lee,  M. S. Lee,  
 S. V. Levchenko,  Ching Yeh Lin,  D. Liotard,  R. C. Lochan,  I. Lotan,  
 P. E. Maslen,  N. Nair,  D. P. O'Neill,  D. Neuhauser,  E. Neuscamman,  
 C. M. Oana,  R. Olson,  B. Peters,  R. Peverati,  P. A. Pieniazek,  
 Y. M. Rhee,  J. Ritchie,  M. A. Rohrdanz,  E. Rosta,  N. J. Russ,  
 H. F. Schaefer III,  N. E. Schultz,  N. Shenvi,  A. C. Simmonett,  A. Sodt,  
 D. Stuck,  K. S. Thanthiriwatte,  V. Vanovschi,  Tao Wang,  A. Warshel,  
 C. F. Williams,  Q. Wu,  X. Xu,  W. Zhang

 Please cite Q-Chem as follows:
 Y. Shao et al., Mol. Phys. 113, 184-215 (2015)
 DOI: 10.1080/00268976.2014.952696

 Q-Chem 5.2.0 for Intel X86 EM64T Linux

 Parts of Q-Chem use Armadillo 8.300.2 (Tropical Shenanigans).
 http://arma.sourceforge.net/

 Q-Chem begins on Sun Sep 26 18:48:15 2021  

Host: cori01
0

     Scratch files written to /tmp/qchem20206//Frg2//
 May1019 |scratch|qcdevops|jenkins|workspace|build_RNUM -1
Processing $rem in /global/common/cori/software/qchem/5.2/config/preferences:
	 MEM_TOTAL  96000 
NAlpha2: 32
NElect   32
Mult     1
Symmetry turned off for PCM/SM12/SMD calculation

Checking the input file for inconsistencies... 	...done.

--------------------------------------------------------------
User input:
--------------------------------------------------------------
$molecule
-1 1
 6	0.7749769323	2.4643423742	3.2528948959
 6	0.1209769323	2.7003423742	1.9188948959
 8	-1.0920230677	2.9853423742	1.8588948959
 8	0.8309769323	2.6153423742	0.9108948959
 1	1.8389769323	2.3403423742	3.1068948959
 1	0.4109769323	1.5243423742	3.6578948959
 1	0.5586859323	3.2752523742	3.9639748959
$end
$rem
EDA2		1
METHOD		WB97X-V
BASIS		DEF2-TZVPD
XC_GRID		000099000590
NL_GRID		1
UNRESTRICTED		FALSE
MAX_SCF_CYCLES		200
SYMMETRY		FALSE
SYM_IGNORE		TRUE
BASIS_LIN_DEP_THRESH		6
THRESH		14
SCF_CONVERGENCE		8
SCF_PRINT_FRGM		TRUE
SOLVENT_METHOD		SMD
!required keywords
JOBTYPE		SP
SYM_IGNORE		TRUE
SUBSYSTEM		TRUE
GEN_SCFMAN		TRUE
CHILD_INSTRUCTION		2
SYM_IGNORE		TRUE
SCFMI		0
RI_K 0		
PARI_K 0		
MIN_PARI_K 0		
IARI_K 0		
OCC_RI_K 0		
PURECART		1111
MEM_STATIC		2000
MEM_TOTAL		96000
GUI		0
CHILD_MP		1
CHILD_MP_ORDERS		232
FRZ_RELAX		0
FRZ_RELAX_METHOD		0
EDA_CLS_ELEC		1
EDA_CLS_DISP		0
FRZ_ORTHO_DECOMP		1
EDA2		FALSE
FRGM_METHOD		FALSE
CIS_N_ROOTS  0
LOCAL_CIS    0
CIS_RLX_DNS  1
$end
$smx
SOLVENT			WATER
$end
--------------------------------------------------------------
 ----------------------------------------------------------------
             Standard Nuclear Orientation (Angstroms)
    I     Atom           X                Y                Z
 ----------------------------------------------------------------
    1      C       0.7749769323     2.4643423742     3.2528948959
    2      C       0.1209769323     2.7003423742     1.9188948959
    3      O      -1.0920230677     2.9853423742     1.8588948959
    4      O       0.8309769323     2.6153423742     0.9108948959
    5      H       1.8389769323     2.3403423742     3.1068948959
    6      H       0.4109769323     1.5243423742     3.6578948959
    7      H       0.5586859323     3.2752523742     3.9639748959
 ----------------------------------------------------------------
 Nuclear Repulsion Energy =         113.62214608 hartrees
 There are       16 alpha and       16 beta electrons
 Requested basis set is def2-TZVPD
 There are 69 shells and 181 basis functions

 Total QAlloc Memory Limit  96000 MB
 Mega-Array Size      1956 MB
 MEM_STATIC part      2000 MB
 
 Citation of the SMD model:
 Marenich, A.V.; Cramer, C.J.; Truhlar, D.G.
 J. Phys. Chem. B 2009, 113, 6378-6396.
 iSolventCode=           1
 Solvent: water                                                           
 
 vradii
            1           2           3           4           5           6
    1   1.8500000   1.8500000   1.5200000   1.5200000   1.2000000   1.2000000
            7
    1   1.2000000
 Changing PCM_VDW_RADII to SMD_RADIUS
 Discretize the solute cavity surface with Lebedev spheres
	Using 110 Lebedev grid points for each H atom
	Using 194 Lebedev grid points for other atoms
	Atomic van der Waals radii will be scaled by 1.20
 Remove points where switching function is < 1.0e-08
 Keep 642 surface tesserae and discard 464 interior tesserae
 Molecular Surface Area = 79.423 Angst**2

                       Distance Matrix (Angstroms)
             C (  1)   C (  2)   O (  3)   O (  4)   H (  5)   H (  6)
   C (  2)  1.504316
   O (  3)  2.387544  1.247475
   O (  4)  2.347531  1.235876  2.175668
   H (  5)  1.081105  2.119544  3.250275  2.431893
   H (  6)  1.086334  2.119244  2.762233  2.985413  1.734543
   H (  7)  1.099996  2.168977  2.690771  3.135430  1.802162  1.783589

 
 A cutoff of  1.0D-14 yielded   2391 shell pairs
 There are     16695 function pairs (     21491 Cartesian)
 Smallest overlap matrix eigenvalue = 1.51E-05

 Scale SEOQF with 1.000000e-01/1.000000e-01/1.000000e-01

 Standard Electronic Orientation quadrupole field applied
 Nucleus-field energy     =    -0.0000000001 hartrees
 Guess from superposition of atomic densities
 Warning:  Energy on first SCF cycle will be non-variational
 SAD guess density has 30.625312 electrons

 -----------------------------------------------------------------------
  General SCF calculation program by
  Eric Jon Sundstrom, Paul Horn, Yuezhi Mao, Dmitri Zuev, Alec White,
  David Stuck, Shaama M.S., Shane Yost, Joonho Lee, David Small,
  Daniel Levine, Susi Lehtola, Hugh Burton, Evgeny Epifanovsky
 -----------------------------------------------------------------------
 Exchange:     0.1670 Hartree-Fock + 1.0000 wB97X-V + LR-HF
 Correlation:  1.0000 wB97X-V
 Using Euler-Maclaurin-Lebedev (99,590) quadrature formula
 Nonlocal Correlation:  VV10 with C = 0.0100 and b = 6.00 and scale = 1.00000
 Grid used for NLC:  SG-1 standard quadrature
Energy prior to optimization (guess energy) = -227.765285199684
Begin Timing: Total SCF Calculation
begin iterations for algorithm: DIIS         
the SCF tolerance is set to 1.00e-08
    1    -227.7652851997      1.66e-02     00000 
    2    -225.6285510806      2.49e-02     00000 
    3    -228.6045407686      4.07e-03     00000 
    4    -228.6576772836      1.36e-03     00000 
    5    -228.6635252738      2.20e-04     00000 
    6    -228.6637701361      1.20e-04     00000 
    7    -228.6638061342      5.80e-05     00000 
    8    -228.6638170494      1.33e-05     00000 
    9    -228.6638181667      3.57e-06     00000 
   10    -228.6638182689      1.04e-06     00000 
   11    -228.6638182770      2.23e-07     00000 
   12    -228.6638182774      4.86e-08     00000 
   13    -228.6638182774      1.17e-08     00000 
   14    -228.6638182774      2.92e-09     00000 Convergence criterion met
Timing for Total SCF: 283.00s (wall), 552.14s (cpu)
(3)  G-ENP(liq) elect-nuc-pol free energy of system     -228.663818277 a.u.
(4)  G-CDS(liq) cavity-dispersion-solvent structure 
     free energy                                                3.9327 kcal/mol
(6)  G-S(liq) free energy of system                     -228.657551092 a.u.
E_pcm = -0.1312644219
E_cds = 0.0062671856
Multipole orders to be included
        2
        3
computing dipole RHS
computing quadrupole RHS
total number of RHS in solve_reponses: 8
RHS batch sizes
        8
Beginning Block Conjugate Gradient Iterations. Batch Number: 0
computing hessian-vector products by finite difference
              1      7.22e-01     00000 Conjugate Gradient Iteration
computing hessian-vector products by finite difference
              2      2.29e-01     00000 Conjugate Gradient Iteration
computing hessian-vector products by finite difference
              3      6.25e-02     00000 Conjugate Gradient Iteration
computing hessian-vector products by finite difference
              4      1.65e-02     00000 Conjugate Gradient Iteration
computing hessian-vector products by finite difference
              5      2.44e-03     00000 Conjugate Gradient Iteration
computing hessian-vector products by finite difference
              6      6.34e-04     00000 Conjugate Gradient Iteration
computing hessian-vector products by finite difference
              7      9.16e-05     00000 Conjugate Gradient Iteration
computing hessian-vector products by finite difference
              8      1.13e-05     00000 Conjugate Gradient Iteration
computing hessian-vector products by finite difference
              9      1.73e-06     00000 Conjugate Gradient Iteration
computing hessian-vector products by finite difference
             10      1.70e-07     00000 Conjugate Gradient Iteration
computing hessian-vector products by finite difference
             11      2.34e-08     00000 Conjugate Gradient Iteration
computing hessian-vector products by finite difference
             12      4.15e-09     00000 CG Converged
batch 0 complete
Done Calculating Responses
TESTING ORTHOGONALIZATION OF MULTIPOLE BASIS
Multipole virts passed orthogonality test
Virts Per Order
        48
        80
 
 --------------------------------------------------------------
 
                    Orbital Energies (a.u.)
 --------------------------------------------------------------
 
 Alpha MOs
 -- Occupied --
-19.1504 -19.1496 -10.3486 -10.2429  -1.1704  -1.0669  -0.8437  -0.6163
 -0.5505  -0.5485  -0.5429  -0.4833  -0.4631  -0.3649  -0.3578  -0.3424
 -- Virtual --
  0.0673   0.0999   0.1010   0.1075   0.1353   0.1457   0.1469   0.1502
  0.1582   0.1904   0.2035   0.2248   0.2354   0.2397   0.2602   0.2675
  0.3001   0.3165   0.3336   0.3463   0.3555   0.3610   0.3747   0.3859
  0.3883   0.4015   0.4162   0.4275   0.4313   0.4556   0.4661   0.4734
  0.4855   0.4923   0.5066   0.5087   0.5509   0.5658   0.5875   0.6005
  0.6080   0.6272   0.6305   0.6460   0.6592   0.6729   0.6850   0.6994
  0.7114   0.7212   0.7687   0.7967   0.8065   0.8098   0.8388   0.8560
  0.8638   0.9512   0.9701   0.9779   0.9889   1.0303   1.0427   1.1068
  1.1601   1.2033   1.2436   1.2652   1.2805   1.3058   1.3335   1.3426
  1.4393   1.5559   1.5914   1.7431   1.8089   1.8488   1.8562   1.9023
  1.9132   1.9417   1.9480   1.9642   1.9987   2.1078   2.1176   2.1556
  2.1950   2.2060   2.3076   2.3420   2.3988   2.4395   2.4725   2.4793
  2.5590   2.5746   2.6258   2.6567   2.7991   2.8126   2.8827   2.9129
  2.9523   2.9902   3.0256   3.1710   3.1880   3.2464   3.2725   3.2974
  3.3236   3.3345   3.3864   3.3931   3.4255   3.5346   3.5472   3.5720
  3.6108   3.6622   3.6914   3.7399   3.7702   3.8865   3.9466   4.0681
  4.0902   4.1962   4.3491   4.5304   4.6601   4.6688   4.7803   4.8267
  4.9771   5.2975   5.3252   5.3374   5.3455   5.4764   5.6990   5.7666
  5.8185   6.0275   6.2234   6.3373   6.3534   6.6010   6.6168   6.7007
  6.7186   6.7355   6.9521   6.9570   7.0170   7.2334   7.3384   7.3823
  7.3950  22.6144  23.7977  44.1939  44.3403
 --------------------------------------------------------------
 
          Ground-State Mulliken Net Atomic Charges

     Atom                 Charge (a.u.)
  ----------------------------------------
      1 C                    -0.579083
      2 C                     0.493716
      3 O                    -0.788131
      4 O                    -0.759585
      5 H                     0.205098
      6 H                     0.201627
      7 H                     0.226357
  ----------------------------------------
  Sum of atomic charges =    -1.000000

 -----------------------------------------------------------------
                    Cartesian Multipole Moments
 -----------------------------------------------------------------
    Charge (ESU x 10^10)
                -4.8032
    Dipole Moment (Debye)
         X       1.7007      Y     -13.8981      Z      -4.6260
       Tot      14.7462
    Quadrupole Moments (Debye-Ang)
        XX     -33.7956     XY       6.3049     YY     -65.2467
        XZ       6.6219     YZ     -14.5574     ZZ     -30.0246
    Octopole Moments (Debye-Ang^2)
       XXX     -10.7276    XXY     -92.0429    XYY      17.0741
       YYY    -317.9738    XXZ     -65.2107    XYZ      20.7266
       YYZ     -95.5564    XZZ      11.2920    YZZ     -84.5117
       ZZZ    -160.3362
    Hexadecapole Moments (Debye-Ang^3)
      XXXX    -149.1953   XXXY     -15.2067   XXYY    -282.4023
      XYYY      47.3616   YYYY   -1458.0073   XXXZ     -27.0466
      XXYZ    -175.8885   XYYZ      51.6633   YYYZ    -538.9330
      XXZZ    -182.2770   XYZZ      40.2570   YYZZ    -371.4375
      XZZZ      -4.2029   YZZZ    -428.2762   ZZZZ    -805.7025
 -----------------------------------------------------------------
Archival summary:
1\1\nid00566\SP\ProcedureUnspecified\BasisUnspecified\223(1-,1)\meili\SunSep2620:06:032021SunSep2620:06:032021\0\\#,ProcedureUnspecified,BasisUnspecified,\\-1,1\C\O,1,1.23588\O,1,1.24748,2,122.351\C,1,1.50432,2,117.563,3,-179.175,0\H,4,1.0811,1,109.033,2,5.38994,0\H,4,1.08633,1,108.704,2,-110.108,0\H,4,1.1,1,111.846,2,129.08,0\\\@

 Total job time:  4674.13s(wall), 9085.69s(cpu) 
 Sun Sep 26 20:06:09 2021

        *************************************************************
        *                                                           *
        *  Thank you very much for using Q-Chem.  Have a nice day.  *
        *                                                           *
        *************************************************************


Done Job For Fragment 1
calling putenv with: QCSCRATCH=/global/cscratch1/sd/meili 
calling putenv with: QCLOCALSCR=/tmp 
calling putenv with: QCTHREADS=32 
Doing General SCFMI
 Exchange:     0.1670 Hartree-Fock + 1.0000 wB97X-V + LR-HF
 Correlation:  1.0000 wB97X-V
 Using Euler-Maclaurin-Lebedev (99,590) quadrature formula
 Nonlocal Correlation:  VV10 with C = 0.0100 and b = 6.00 and scale = 1.00000
 Grid used for NLC:  SG-1 standard quadrature
performing fock build before subrot guess so that all methods have access
Printing subrot_rss_gen Method Specification:
Occupied Subspace Method is 0
Virtual Subspace Method is 0
Energy of the unrelaxed supersystem initial determinant -575.322317230732
performing fock build before subrot guess so that all methods have access
Printing subrot_rss_gen Method Specification:
Occupied Subspace Method is 0
Virtual Subspace Method is 0
Energy of the unrelaxed supersystem initial determinant w/ solvent -575.484869223427
write pseudocanon occs and virts to disk
write pseudocanon orbital energies to disk
Tolerance of ortho_decomp_scf: 1.00e-06
GDM subspace size: 20
Beginning the Orthogonal Decomposition of the Initial Supersystem Wavefunction
    1    -575.3025783009      5.54e-02     ortho_decomp Preconditoned Steepest Descent
    2    -575.3083595108      1.09e-03     ortho_decomp BFGS Step
    3    -575.3083739355      8.74e-05     ortho_decomp BFGS Step
    4    -575.3083739634      3.29e-06     ortho_decomp BFGS Step
    5    -575.3083739635      1.22e-07     ortho_decomp 00000 Convergence criterion met
 Hartree-Fock
 Hartree-Fock
 Hartree-Fock
Doing General SCFMI
 Exchange:     0.1670 Hartree-Fock + 1.0000 wB97X-V + LR-HF
 Correlation:  1.0000 wB97X-V
 Using Euler-Maclaurin-Lebedev (99,590) quadrature formula
 Nonlocal Correlation:  VV10 with C = 0.0100 and b = 6.00 and scale = 1.00000
 Grid used for NLC:  SG-1 standard quadrature
performing fock build at end of subrot_r(subrot) constructor so that all methods have access
<S^2> of initial wavefunction before polarization iterations 0.0000000000
Beginning iterations for the determination of the polarized wavefunction
Energy prior to optimization (guess energy) = -575.484869223427
Begin Timing: Total SCF Calculation
begin iterations for algorithm: DIIS         
the SCF tolerance is set to 1.00e-08
    1    -575.4848692234      5.77e-05     00000 
    2    -575.4850366292      5.20e-05     00000 
    3    -575.4851192811      1.01e-05     00000 
    4    -575.4851316738      5.70e-06     00000 
    5    -575.4851345351      2.79e-06     00000 
    6    -575.4851354336      1.37e-06     00000 
    7    -575.4851355876      3.40e-07     00000 
    8    -575.4851355991      1.13e-07     00000 
    9    -575.4851356001      5.55e-08     00000 
   10    -575.4851356003      1.47e-08     00000 
   11    -575.4851356003      7.64e-09     00000 Convergence criterion met
write pseudocanon occs and virts to disk
write pseudocanon orbital energies to disk
Timing for Total SCF: 4795.00s (wall), 9542.51s (cpu)
<S^2> of polarized wavefunction after polarization iterations 0.0000000000
relaxing scfmi constraint to allow all rotations in the entire AO span
Doing General SCFMI
 Exchange:     0.1670 Hartree-Fock + 1.0000 wB97X-V + LR-HF
 Correlation:  1.0000 wB97X-V
 Using Euler-Maclaurin-Lebedev (99,590) quadrature formula
 Nonlocal Correlation:  VV10 with C = 0.0100 and b = 6.00 and scale = 1.00000
 Grid used for NLC:  SG-1 standard quadrature
performing fock build at end of subrot_r(subrot) constructor so that all methods have access
<S^2> of polarized wavefunction before ct-allowed iterations 0.0000000000
Beginning iterations for the determination of the CT-Allowed wavefunction
Energy prior to optimization (guess energy) = -575.485135600277
Begin Timing: Total SCF Calculation
begin iterations for algorithm: DIIS         
the SCF tolerance is set to 1.00e-08
    1    -575.4851356003      6.74e-05     00000 
    2    -575.4857216945      6.71e-06     00000 
    3    -575.4857397210      1.78e-06     00000 
    4    -575.4857402835      1.71e-06     00000 
    5    -575.4857405929      1.92e-07     00000 
    6    -575.4857406009      1.28e-07     00000 
    7    -575.4857406035      2.98e-08     00000 
    8    -575.4857406037      1.05e-08     00000 
    9    -575.4857406038      3.46e-09     00000 Convergence criterion met
write pseudocanon occs and virts to disk
write pseudocanon orbital energies to disk
Timing for Total SCF: 3813.00s (wall), 7590.74s (cpu)
<S^2> of ct_allowed wavefunction after ct-allowed iterations 0.0000000000

================================
        Results of EDA2         
================================
Basic EDA Quantities
--------------------
Fragment Energies (Ha):
1 -346.8175193476
2 -228.6575510918
--------------------
  E_prp (kJ/mol) = 0.0000
  E_sol (kJ/mol) = -39.9624
  E_frz (kJ/mol) = 43.6133
  E_pol (kJ/mol) = -0.6994
  E_vct (kJ/mol) = -1.5885
  E_int (kJ/mol) = 1.3630
--------------------


Initial Wavefunction Decomposition
--------------------
  --------------------
  Orthogonal Fragment Subspace Decomposition:
  --------------------
     E_elec   (ELEC)   (kJ/mol) = -4.0678
     E_pauli  (PAULI)  (kJ/mol) = 64.5091
     E_disp   (DISP)   (kJ/mol) = -16.8280
     --------------------
     Terms summing to E_pauli:
     --------------------
        E_kep_pauli       (kJ/mol) = 80.2217
        E_disp_free_pauli (kJ/mol) = -15.7127
  --------------------
  Classical Frozen Decomposition:
  --------------------
     E_cls_elec  (CLS ELEC)  (kJ/mol) = 35.7166
     E_cls_pauli (CLS PAULI) (kJ/mol) = 7.8966
    [E_mod_pauli (MOD PAULI) (kJ/mol) = 24.7247 (CLS PAULI - DISP from orthogonal decomposition) ]
  --------------------
--------------------

Simplified EDA Summary (kJ/mol)
--------------------
 PREPARATION     0.0000
 SOLVATION       -39.9624
 FROZEN          60.4413      (does not include dispersion)
[PAULI           64.5091]     (if this is negligible, then frozen describes electrostatics)
 DISPERSION      -16.8280
 POLARIZATION    -0.6994
 CHARGE TRANSFER -1.5885
 TOTAL           1.3630     (PRP + SOL + FRZ + DISP + POL + CT)
--------------------
 
 --------------------------------------------------------------
 
                    Orbital Energies (a.u.)
 --------------------------------------------------------------
 
 Alpha MOs
 -- Occupied --
-19.2319 -19.1479 -19.1473 -10.3464 -10.3276 -10.2694 -10.2675 -10.2639
-10.2621 -10.2596 -10.2521 -10.2421  -1.1880  -1.1682  -1.0650  -0.9889
 -0.8930  -0.8778  -0.8428  -0.8022  -0.7389  -0.7086  -0.6605  -0.6154
 -0.5947  -0.5747  -0.5502  -0.5473  -0.5456  -0.5405  -0.5327  -0.5251
 -0.5157  -0.4999  -0.4823  -0.4692  -0.4613  -0.4462  -0.4380  -0.4278
 -0.3625  -0.3540  -0.3473  -0.3406  -0.3074
 -- Virtual --
  0.0617   0.0659   0.0742   0.0802   0.0821   0.0947   0.0984   0.1008
  0.1117   0.1149   0.1261   0.1319   0.1395   0.1450   0.1498   0.1530
  0.1590   0.1617   0.1677   0.1691   0.1915   0.1938   0.1974   0.1989
  0.2072   0.2110   0.2156   0.2236   0.2265   0.2366   0.2386   0.2420
  0.2511   0.2531   0.2593   0.2672   0.2682   0.2748   0.2776   0.2819
  0.2874   0.2893   0.2949   0.3000   0.3047   0.3120   0.3139   0.3168
  0.3229   0.3265   0.3342   0.3366   0.3424   0.3474   0.3535   0.3537
  0.3583   0.3616   0.3641   0.3717   0.3729   0.3780   0.3800   0.3840
  0.3851   0.3894   0.3900   0.3930   0.3981   0.4007   0.4078   0.4104
  0.4123   0.4132   0.4202   0.4260   0.4307   0.4344   0.4411   0.4460
  0.4492   0.4547   0.4587   0.4641   0.4670   0.4689   0.4759   0.4801
  0.4831   0.4852   0.4878   0.4959   0.4975   0.5009   0.5056   0.5084
  0.5184   0.5206   0.5217   0.5292   0.5321   0.5389   0.5421   0.5483
  0.5540   0.5587   0.5595   0.5646   0.5714   0.5786   0.5831   0.5888
  0.5962   0.6011   0.6068   0.6145   0.6188   0.6300   0.6333   0.6390
  0.6414   0.6483   0.6555   0.6664   0.6694   0.6717   0.6809   0.6863
  0.6946   0.7012   0.7076   0.7095   0.7154   0.7179   0.7228   0.7261
  0.7369   0.7394   0.7433   0.7478   0.7581   0.7594   0.7623   0.7671
  0.7720   0.7765   0.7834   0.7876   0.8001   0.8020   0.8073   0.8101
  0.8136   0.8151   0.8196   0.8223   0.8255   0.8305   0.8374   0.8427
  0.8483   0.8511   0.8615   0.8661   0.8705   0.8791   0.8816   0.8852
  0.8889   0.8960   0.9008   0.9070   0.9183   0.9270   0.9363   0.9428
  0.9547   0.9676   0.9760   0.9821   0.9881   0.9986   1.0092   1.0190
  1.0261   1.0314   1.0363   1.0498   1.0568   1.0635   1.0708   1.0747
  1.0790   1.0910   1.0976   1.1147   1.1242   1.1273   1.1414   1.1598
  1.1722   1.1750   1.1923   1.2041   1.2398   1.2417   1.2637   1.2665
  1.2786   1.2923   1.3260   1.3283   1.3445   1.3529   1.3575   1.3665
  1.3745   1.3798   1.3843   1.4027   1.4193   1.4231   1.4507   1.4712
  1.4816   1.4849   1.5120   1.5292   1.5387   1.5537   1.5795   1.5922
  1.6319   1.6520   1.6537   1.6601   1.6763   1.7172   1.7347   1.7471
  1.7599   1.7706   1.8012   1.8278   1.8407   1.8504   1.8653   1.8723
  1.8812   1.8941   1.9226   1.9332   1.9407   1.9433   1.9489   1.9526
  1.9648   1.9723   1.9832   1.9925   1.9970   2.0097   2.0183   2.0264
  2.0409   2.0465   2.0554   2.0707   2.0814   2.0915   2.1116   2.1164
  2.1343   2.1467   2.1544   2.1720   2.1864   2.2151   2.2167   2.2211
  2.2369   2.2497   2.2668   2.2874   2.3034   2.3079   2.3223   2.3467
  2.3569   2.3758   2.3905   2.4090   2.4320   2.4340   2.4413   2.4699
  2.4879   2.4937   2.4985   2.5018   2.5239   2.5356   2.5679   2.5825
  2.6001   2.6158   2.6240   2.6303   2.6473   2.6540   2.6709   2.6740
  2.6880   2.6979   2.7129   2.7655   2.7736   2.7843   2.8080   2.8189
  2.8284   2.8333   2.8505   2.8621   2.8860   2.8998   2.9018   2.9265
  2.9480   2.9517   2.9554   2.9729   2.9822   2.9881   3.0044   3.0113
  3.0314   3.0451   3.0642   3.0793   3.0925   3.0955   3.1120   3.1372
  3.1718   3.1766   3.1839   3.2017   3.2103   3.2188   3.2378   3.2403
  3.2446   3.2570   3.2674   3.2792   3.2992   3.3083   3.3183   3.3337
  3.3429   3.3680   3.3788   3.3851   3.4020   3.4055   3.4179   3.4229
  3.4254   3.4327   3.4578   3.4667   3.4747   3.4829   3.4955   3.5060
  3.5261   3.5384   3.5486   3.5578   3.5629   3.5694   3.5739   3.5824
  3.5928   3.6148   3.6173   3.6313   3.6387   3.6548   3.6633   3.6738
  3.6925   3.6988   3.7096   3.7212   3.7295   3.7580   3.7666   3.7759
  3.7931   3.8003   3.8477   3.8625   3.8991   3.9262   3.9590   3.9698
  3.9787   3.9948   4.0128   4.0676   4.0885   4.1016   4.1187   4.1677
  4.1873   4.2105   4.2783   4.3043   4.3115   4.3202   4.3309   4.3541
  4.3677   4.3762   4.3852   4.3975   4.4242   4.4385   4.4793   4.4949
  4.5592   4.5664   4.6163   4.6294   4.6828   4.6839   4.7669   4.7739
  4.8088   4.8168   4.8299   4.8545   4.8804   4.9335   5.0037   5.0333
  5.0878   5.1166   5.1361   5.1814   5.3054   5.3112   5.3284   5.3412
  5.3549   5.3699   5.4445   5.4702   5.4851   5.5456   5.6196   5.7068
  5.7092   5.7588   5.7769   5.7837   5.8258   5.9979   6.0388   6.2470
  6.2513   6.3560   6.3713   6.5224   6.5866   6.6315   6.6605   6.7318
  6.7353   6.7686   6.7839   6.9051   6.9766   7.0089   7.0489   7.0721
  7.2462   7.3447   7.3513   7.4042   7.4134   7.4804  22.6490  22.6824
 22.7250  22.9727  23.0305  23.0777  23.2073  23.5386  23.8331  44.3211
 44.4034  44.4783
 --------------------------------------------------------------
 
          Ground-State Mulliken Net Atomic Charges

     Atom                 Charge (a.u.)
  ----------------------------------------
      1 C                    -1.090550
      2 C                     0.690712
      3 C                    -0.706778
      4 C                    -0.375015
      5 C                    -0.642375
      6 C                    -0.679087
      7 C                     0.506876
      8 O                    -0.440823
      9 H                     0.318483
     10 H                     0.382712
     11 H                     0.415294
     12 H                     0.400060
     13 H                     0.372791
     14 H                     0.279887
     15 H                     0.296709
     16 H                     0.253737
     17 C                    -0.769813
     18 C                     0.638231
     19 O                    -0.810633
     20 O                    -0.755843
     21 H                     0.235222
     22 H                     0.210933
     23 H                     0.269270
  ----------------------------------------
  Sum of atomic charges =    -1.000000

 -----------------------------------------------------------------
                    Cartesian Multipole Moments
 -----------------------------------------------------------------
    Charge (ESU x 10^10)
                -4.8032
    Dipole Moment (Debye)
         X       0.1078      Y     -14.9786      Z      -5.4847
       Tot      15.9515
    Quadrupole Moments (Debye-Ang)
        XX     -73.3344     XY       3.4869     YY    -110.5893
        XZ      12.5743     YZ     -12.2001     ZZ     -76.9881
    Octopole Moments (Debye-Ang^2)
       XXX     -22.9739    XXY     -15.2368    XYY      21.8408
       YYY    -110.0761    XXZ     -21.8246    XYZ      18.7512
       YYZ     -56.0165    XZZ       4.1560    YZZ     -16.4481
       ZZZ      -4.9551
    Hexadecapole Moments (Debye-Ang^3)
      XXXX    -440.5833   XXXY      93.1937   XXYY    -571.2871
      XYYY     166.7671   YYYY   -2919.8929   XXXZ     -27.1936
      XXYZ    -294.3903   XYYZ      52.0125   YYYZ    -848.6123
      XXZZ    -313.0603   XYZZ      92.4981   YYZZ    -689.0928
      XZZZ     -21.7112   YZZZ    -758.5697   ZZZZ   -1366.6910
 -----------------------------------------------------------------
Archival summary:
1\1\nid00566\SP\ProcedureUnspecified\BasisUnspecified\3911(1-,1)\meili\MonSep2700:32:442021MonSep2700:32:442021\0\\#,ProcedureUnspecified,BasisUnspecified,\\-1,1\O\H,1,0.95721\C,1,1.35672,2,112.549\C,3,1.3873,1,118.171,2,18.1513,0\H,4,1.0698,3,123.157,1,-7.39326,0\C,4,1.38471,3,119.838,1,178.005,0\H,6,1.07076,4,118.969,3,179.905,0\C,6,1.39132,4,121.264,3,1.9655,0\C,3,1.39355,1,121.773,2,-162.144,0\H,9,1.07929,3,119.487,1,2.29881,0\C,9,1.39504,3,119.64,1,-178.335,0\H,11,1.07969,9,119.39,3,-178.304,0\C,8,1.51476,6,119.858,4,-179.471,0\H,13,1.08952,8,108.497,6,-49.7898,0\H,13,1.09033,8,109.477,6,-167.266,0\H,13,1.1,8,113.141,6,70.7645,0\O,10,2.65982,9,129.505,3,-21.5389,0\C,17,1.23588,10,102.227,9,106.036,0\O,18,1.24748,17,122.351,10,-102.696,0\C,18,1.50432,17,117.563,10,78.129,0\H,20,1.0811,18,109.033,17,5.38994,0\H,20,1.08633,18,108.704,17,-110.108,0\H,20,1.1,18,111.846,17,129.08,0\\\@

 Total job time:  59343.86s(wall), 31859.29s(cpu) 
 Mon Sep 27 00:32:50 2021

        *************************************************************
        *                                                           *
        *  Thank you very much for using Q-Chem.  Have a nice day.  *
        *                                                           *
        *************************************************************


