
Running Job 1 of 1 SSI-084ASP-087PHE-1_SMD_TZVPD.in
qchem SSI-084ASP-087PHE-1_SMD_TZVPD.in_52568.0 /tmp/qchem52568/ 0
/global/common/cori/software/qchem/5.2/exe/qcprog.exe_s SSI-084ASP-087PHE-1_SMD_TZVPD.in_52568.0 /tmp/qchem52568/
                  Welcome to Q-Chem
     A Quantum Leap Into The Future Of Chemistry


 Q-Chem 5.2, Q-Chem, Inc., Pleasanton, CA (2019)

 License issued to: National Energy Research Scientific Computing Center

 Yihan Shao,  Zhengting Gan,  E. Epifanovsky,  A. T. B. Gilbert,  M. Wormit,  
 J. Kussmann,  A. W. Lange,  A. Behn,  Jia Deng,  Xintian Feng,  D. Ghosh,  
 M. Goldey,  P. R. Horn,  L. D. Jacobson,  I. Kaliman,  T. Kus,  A. Landau,  
 Jie Liu,  E. I. Proynov,  R. M. Richard,  R. P. Steele,  E. J. Sundstrom,  
 H. L. Woodcock III,  P. M. Zimmerman,  D. Zuev,  B. Albrecht,  E. Alguire,  
 S. A. Baeppler,  D. Barton,  Z. Benda,  Y. A. Bernard,  E. J. Berquist,  
 K. B. Bravaya,  H. Burton,  D. Casanova,  Chun-Min Chang,  Yunqing Chen,  
 A. Chien,  K. D. Closser,  M. P. Coons,  S. Coriani,  S. Dasgupta,  
 A. L. Dempwolff,  M. Diedenhofen,  Hainam Do,  R. G. Edgar,  Po-Tung Fang,  
 S. Faraji,  S. Fatehi,  Qingguo Feng,  K. D. Fenk,  J. Fosso-Tande,  
 J. Gayvert,  Qinghui Ge,  A. Ghysels,  G. Gidofalvi,  J. Gomes,  
 J. Gonthier,  A. Gunina,  D. Hait,  M. W. D. Hanson-Heine,  
 P. H. P. Harbach,  A. W. Hauser,  M. F. Herbst,  J. E. Herr,  
 E. G. Hohenstein,  Z. C. Holden,  Kerwin Hui,  B. C. Huynh,  T.-C. Jagau,  
 Hyunjun Ji,  B. Kaduk,  K. Khistyaev,  Jaehoon Kim,  P. Klunzinger,  K. Koh,  
 D. Kosenkov,  L. Koulias,  T. Kowalczyk,  C. M. Krauter,  A. Kunitsa,  
 Ka Un Lao,  A. Laurent,  K. V. Lawler,  Joonho Lee,  D. Lefrancois,  
 S. Lehtola,  D. S. Levine,  Yi-Pei Li,  You-Sheng Lin,  Fenglai Liu,  
 E. Livshits,  A. Luenser,  P. Manohar,  E. Mansoor,  S. F. Manzer,  
 Shan-Ping Mao,  Yuezhi Mao,  N. Mardirossian,  A. V. Marenich,  
 T. Markovich,  L. A. Martinez-Martinez,  S. A. Maurer,  N. J. Mayhall,  
 S. C. McKenzie,  J.-M. Mewes,  P. Morgante,  A. F. Morrison,  
 J. W. Mullinax,  K. Nanda,  T. S. Nguyen-Beck,  R. Olivares-Amaya,  
 J. A. Parkhill,  Zheng Pei,  T. M. Perrine,  F. Plasser,  P. Pokhilko,  
 S. Prager,  A. Prociuk,  E. Ramos,  D. R. Rehn,  F. Rob,  M. Scheurer,  
 M. Schneider,  N. Sergueev,  S. M. Sharada,  S. Sharma,  D. W. Small,  
 T. Stauch,  T. Stein,  Yu-Chuan Su,  A. J. W. Thom,  A. Tkatchenko,  
 T. Tsuchimochi,  N. M. Tubman,  L. Vogt,  M. L. Vidal,  O. Vydrov,  
 M. A. Watson,  J. Wenzel,  M. de Wergifosse,  T. A. Wesolowski,  A. White,  
 J. Witte,  A. Yamada,  Jun Yang,  K. Yao,  S. Yeganeh,  S. R. Yost,  
 Zhi-Qiang You,  A. Zech,  Igor Ying Zhang,  Xing Zhang,  Yan Zhao,  
 Ying Zhu,  B. R. Brooks,  G. K. L. Chan,  C. J. Cramer,  M. S. Gordon,  
 W. J. Hehre,  A. Klamt,  M. W. Schmidt,  C. D. Sherrill,  D. G. Truhlar,  
 A. Aspuru-Guzik,  R. Baer,  A. T. Bell,  N. A. Besley,  Jeng-Da Chai,  
 A. E. DePrince, III,  R. A. DiStasio Jr.,  A. Dreuw,  B. D. Dunietz,  
 T. R. Furlani,  Chao-Ping Hsu,  Yousung Jung,  Jing Kong,  D. S. Lambrecht,  
 WanZhen Liang,  C. Ochsenfeld,  V. A. Rassolov,  L. V. Slipchenko,  
 J. E. Subotnik,  T. Van Voorhis,  J. M. Herbert,  A. I. Krylov,  
 P. M. W. Gill,  M. Head-Gordon

 Contributors to earlier versions of Q-Chem not listed above: 
 R. D. Adamson,  B. Austin,  J. Baker,  G. J. O. Beran,  K. Brandhorst,  
 S. T. Brown,  E. F. C. Byrd,  A. K. Chakraborty,  C.-L. Cheng,  
 Siu Hung Chien,  D. M. Chipman,  D. L. Crittenden,  H. Dachsel,  
 R. J. Doerksen,  A. D. Dutoi,  L. Fusti-Molnar,  W. A. Goddard III,  
 A. Golubeva-Zadorozhnaya,  S. R. Gwaltney,  G. Hawkins,  A. Heyden,  
 S. Hirata,  G. Kedziora,  F. J. Keil,  C. Kelley,  Jihan Kim,  R. A. King,  
 R. Z. Khaliullin,  P. P. Korambath,  W. Kurlancheek,  A. M. Lee,  M. S. Lee,  
 S. V. Levchenko,  Ching Yeh Lin,  D. Liotard,  R. C. Lochan,  I. Lotan,  
 P. E. Maslen,  N. Nair,  D. P. O'Neill,  D. Neuhauser,  E. Neuscamman,  
 C. M. Oana,  R. Olson,  B. Peters,  R. Peverati,  P. A. Pieniazek,  
 Y. M. Rhee,  J. Ritchie,  M. A. Rohrdanz,  E. Rosta,  N. J. Russ,  
 H. F. Schaefer III,  N. E. Schultz,  N. Shenvi,  A. C. Simmonett,  A. Sodt,  
 D. Stuck,  K. S. Thanthiriwatte,  V. Vanovschi,  Tao Wang,  A. Warshel,  
 C. F. Williams,  Q. Wu,  X. Xu,  W. Zhang

 Please cite Q-Chem as follows:
 Y. Shao et al., Mol. Phys. 113, 184-215 (2015)
 DOI: 10.1080/00268976.2014.952696

 Q-Chem 5.2.0 for Intel X86 EM64T Linux

 Parts of Q-Chem use Armadillo 8.300.2 (Tropical Shenanigans).
 http://arma.sourceforge.net/

 Q-Chem begins on Sun Sep 26 11:58:22 2021  

Host: cori01
0

     Scratch files written to /tmp/qchem52568//
 May1019 |scratch|qcdevops|jenkins|workspace|build_RNUM -1
Processing $rem in /global/common/cori/software/qchem/5.2/config/preferences:
	 MEM_TOTAL  96000 
NAlpha2: 90
NElect   90
Mult     1
Symmetry turned off for PCM/SM12/SMD calculation

 Q-Chem warning in module libgen/rem_setup.C, line 2803:

 Neither GIA nor STOLL is specified by user. Use STOLL as the default


Checking the input file for inconsistencies... 	...done.

--------------------------------------------------------------
User input:
--------------------------------------------------------------
$comment
SSI-084ASP-087PHE-1.pdb
$end

$molecule
-1 1
--
-1 1
C    1.236493660913    2.039268712181    1.083799713757
C    1.996493660913    2.222268712181    2.395799713757
C   -0.084506339087    2.809268712181    1.063799713757
O   -0.846506339087    2.770268712181    2.059799713757
O   -0.358506339087    3.477268712181    0.044799713757
H    1.865493660913    2.360268712181    0.250799713757
H    1.024493660913    0.977268712181    0.956799713757
H    1.342493660913    1.921268712181    3.214799713757
H    2.306583660913    3.266758712181    2.547065713757
H    2.895693660913    1.588688712181    2.400153713757
--
0 1
C    0.160493660913   -4.507731287819   -1.296200286243
C   -0.675506339087   -0.307731287819   -0.881200286243
C   -1.427506339087   -1.246731287819   -0.190200286243
C    0.378493660913   -0.731731287819   -1.684200286243
C   -1.145506339087   -2.598731287819   -0.336200286243
C    0.647493660913   -2.092731287819   -1.838200286243
C   -0.122506339087   -3.036731287819   -1.165200286243
H   -0.897506339087    0.746268712181   -0.784200286243
H   -2.224506339087   -0.922731287819    0.459799713757
H    0.977493660913   -0.001731287819   -2.212200286243
H   -1.739506339087   -3.320731287819    0.207799713757
H    1.460493660913   -2.410731287819   -2.478200286243
H    0.752493660913   -4.682731287819   -2.196200286243
H   -0.797506339087   -5.012731287819   -1.428200286243
H    0.680783660913   -4.940581287819   -0.429054576243
$end

$rem
JOBTYPE			EDA
EDA2			1
method			wB97X-V
BASIS			def2-TZVPD
XC_GRID			000099000590
NL_GRID			1
UNRESTRICTED		FALSE
MAX_SCF_CYCLES		200
SYMMETRY		FALSE
SYM_IGNORE		TRUE
MEM_STATIC		2000
BASIS_LIN_DEP_THRESH 	6
THRESH 			14
SCF_CONVERGENCE 	8
SCF_PRINT_FRGM 		TRUE
SOLVENT_METHOD          SMD
$end

$SMX
SOLVENT			WATER
$END
--------------------------------------------------------------
 ----------------------------------------------------------------
             Standard Nuclear Orientation (Angstroms)
    I     Atom           X                Y                Z
 ----------------------------------------------------------------
    1      C       1.2364936609     2.0392687122     1.0837997138
    2      C       1.9964936609     2.2222687122     2.3957997138
    3      C      -0.0845063391     2.8092687122     1.0637997138
    4      O      -0.8465063391     2.7702687122     2.0597997138
    5      O      -0.3585063391     3.4772687122     0.0447997138
    6      H       1.8654936609     2.3602687122     0.2507997138
    7      H       1.0244936609     0.9772687122     0.9567997138
    8      H       1.3424936609     1.9212687122     3.2147997138
    9      H       2.3065836609     3.2667587122     2.5470657138
   10      H       2.8956936609     1.5886887122     2.4001537138
   11      C       0.1604936609    -4.5077312878    -1.2962002862
   12      C      -0.6755063391    -0.3077312878    -0.8812002862
   13      C      -1.4275063391    -1.2467312878    -0.1902002862
   14      C       0.3784936609    -0.7317312878    -1.6842002862
   15      C      -1.1455063391    -2.5987312878    -0.3362002862
   16      C       0.6474936609    -2.0927312878    -1.8382002862
   17      C      -0.1225063391    -3.0367312878    -1.1652002862
   18      H      -0.8975063391     0.7462687122    -0.7842002862
   19      H      -2.2245063391    -0.9227312878     0.4597997138
   20      H       0.9774936609    -0.0017312878    -2.2122002862
   21      H      -1.7395063391    -3.3207312878     0.2077997138
   22      H       1.4604936609    -2.4107312878    -2.4782002862
   23      H       0.7524936609    -4.6827312878    -2.1962002862
   24      H      -0.7975063391    -5.0127312878    -1.4282002862
   25      H       0.6807836609    -4.9405812878    -0.4290545762
 ----------------------------------------------------------------
 Nuclear Repulsion Energy =         628.51671737 hartrees
 There are       45 alpha and       45 beta electrons
 Requested basis set is def2-TZVPD
 There are 223 shells and 567 basis functions

 Total QAlloc Memory Limit  96000 MB
 Mega-Array Size      1956 MB
 MEM_STATIC part      2000 MB
 
 Citation of the SMD model:
 Marenich, A.V.; Cramer, C.J.; Truhlar, D.G.
 J. Phys. Chem. B 2009, 113, 6378-6396.
 iSolventCode=           1
 Solvent: water                                                           
 
 vradii
            1           2           3           4           5           6
    1   1.8500000   1.8500000   1.8500000   1.5200000   1.5200000   1.2000000
            7           8           9          10          11          12
    1   1.2000000   1.2000000   1.2000000   1.2000000   1.8500000   1.8500000
           13          14          15          16          17          18
    1   1.8500000   1.8500000   1.8500000   1.8500000   1.8500000   1.2000000
           19          20          21          22          23          24
    1   1.2000000   1.2000000   1.2000000   1.2000000   1.2000000   1.2000000
           25
    1   1.2000000
 Changing PCM_VDW_RADII to SMD_RADIUS
 Discretize the solute cavity surface with Lebedev spheres
	Using 110 Lebedev grid points for each H atom
	Using 194 Lebedev grid points for other atoms
	Atomic van der Waals radii will be scaled by 1.20
 Remove points where switching function is < 1.0e-08
 Keep 1921 surface tesserae and discard 1837 interior tesserae
 Molecular Surface Area = 227.679 Angst**2
 A cutoff of  1.0D-14 yielded  21348 shell pairs
 There are    138254 function pairs (    174280 Cartesian)
 Smallest overlap matrix eigenvalue = 4.69E-07
 Linear dependence detected in AO basis
 Tighter screening thresholds may be required for diffuse basis sets
 Use S2THRESH > 14 and THRESH = 14 in case of SCF convergence issues
 Number of orthogonalized atomic orbitals = 565
 Maximum deviation from orthogonality = 2.519E-10

 Scale SEOQF with 1.000000e-01/1.000000e-01/1.000000e-01

 Standard Electronic Orientation quadrupole field applied
 Nucleus-field energy     =     0.0000000287 hartrees

 -----------------------------------------------------------------------
  General SCF calculation program by
  Eric Jon Sundstrom, Paul Horn, Yuezhi Mao, Dmitri Zuev, Alec White,
  David Stuck, Shaama M.S., Shane Yost, Joonho Lee, David Small,
  Daniel Levine, Susi Lehtola, Hugh Burton, Evgeny Epifanovsky
 -----------------------------------------------------------------------
================================================================
                 ALMO-EDA with the EDA2 driver                  
================================================================
 The second-generation ALMO-EDA (for DFT):                      
 P. R. Horn, Y. Mao and M. Head-Gordon, PCCP, 18, 23067 (2016)  
 Decomposition of the frozen energy:                            
 P. R. Horn, Y. Mao and M. Head-Gordon, JCP, 144, 114107 (2016) 
 FERF model for polarization:                                   
 P. R. Horn and M. Head-Gordon, JCP, 143, 114111 (2015)         
Using eda2 option set 1
Option set summary: Frozen orbital wavefunction, initial wavefunction decomposition, and nDQ polarization.
--------------------------------
Printing EDA Options
--------------------------------
eda_child_super_basis      0
fragmo_guess_mode          0
child_mp                   1
child_mp_orders            232
cls_elec                   1
cls_disp                   0
scfmi_mode                 1
scfmi_occs                 0
scfmi_virts                0
frz_relax                  0
frz_relax_method           0
dc_pen_start               0
dc_pen_conv                0
dc_pen_increment           0
dc_pen_steps               0
dc_pen_thresh_factor       0
dc_pen_pre_newton_thresh   0
frz_ortho_decomp           1
frz_ortho_decomp_conv      6
frgm_method                2
scfmi_freeze_ss            0
separate_rehyb             0
plot_diff_den              0
eda_nocv                   0
eda_vct_relax              1
disp_free_x                0
disp_free_c                0
eda_bsse                   0
eda_pct_a                  0
eda_covp                   0
--------------------------------
Attempting to make child job directory: /tmp/qchem52568//Frg1/
Attempting to make child job directory: /tmp/qchem52568//Frg2/
Creating input file /tmp/qchem52568/Frg1.input
using default PutDataFrgm: nothing
calling putenv with: QCSCRATCH=/tmp/qchem52568/ 
calling putenv with: QCLOCALSCR=/tmp/qchem52568/ 
Spawning Job For Fragment 0
                  Welcome to Q-Chem
     A Quantum Leap Into The Future Of Chemistry


 Q-Chem 5.2, Q-Chem, Inc., Pleasanton, CA (2019)

 License issued to: National Energy Research Scientific Computing Center

 Yihan Shao,  Zhengting Gan,  E. Epifanovsky,  A. T. B. Gilbert,  M. Wormit,  
 J. Kussmann,  A. W. Lange,  A. Behn,  Jia Deng,  Xintian Feng,  D. Ghosh,  
 M. Goldey,  P. R. Horn,  L. D. Jacobson,  I. Kaliman,  T. Kus,  A. Landau,  
 Jie Liu,  E. I. Proynov,  R. M. Richard,  R. P. Steele,  E. J. Sundstrom,  
 H. L. Woodcock III,  P. M. Zimmerman,  D. Zuev,  B. Albrecht,  E. Alguire,  
 S. A. Baeppler,  D. Barton,  Z. Benda,  Y. A. Bernard,  E. J. Berquist,  
 K. B. Bravaya,  H. Burton,  D. Casanova,  Chun-Min Chang,  Yunqing Chen,  
 A. Chien,  K. D. Closser,  M. P. Coons,  S. Coriani,  S. Dasgupta,  
 A. L. Dempwolff,  M. Diedenhofen,  Hainam Do,  R. G. Edgar,  Po-Tung Fang,  
 S. Faraji,  S. Fatehi,  Qingguo Feng,  K. D. Fenk,  J. Fosso-Tande,  
 J. Gayvert,  Qinghui Ge,  A. Ghysels,  G. Gidofalvi,  J. Gomes,  
 J. Gonthier,  A. Gunina,  D. Hait,  M. W. D. Hanson-Heine,  
 P. H. P. Harbach,  A. W. Hauser,  M. F. Herbst,  J. E. Herr,  
 E. G. Hohenstein,  Z. C. Holden,  Kerwin Hui,  B. C. Huynh,  T.-C. Jagau,  
 Hyunjun Ji,  B. Kaduk,  K. Khistyaev,  Jaehoon Kim,  P. Klunzinger,  K. Koh,  
 D. Kosenkov,  L. Koulias,  T. Kowalczyk,  C. M. Krauter,  A. Kunitsa,  
 Ka Un Lao,  A. Laurent,  K. V. Lawler,  Joonho Lee,  D. Lefrancois,  
 S. Lehtola,  D. S. Levine,  Yi-Pei Li,  You-Sheng Lin,  Fenglai Liu,  
 E. Livshits,  A. Luenser,  P. Manohar,  E. Mansoor,  S. F. Manzer,  
 Shan-Ping Mao,  Yuezhi Mao,  N. Mardirossian,  A. V. Marenich,  
 T. Markovich,  L. A. Martinez-Martinez,  S. A. Maurer,  N. J. Mayhall,  
 S. C. McKenzie,  J.-M. Mewes,  P. Morgante,  A. F. Morrison,  
 J. W. Mullinax,  K. Nanda,  T. S. Nguyen-Beck,  R. Olivares-Amaya,  
 J. A. Parkhill,  Zheng Pei,  T. M. Perrine,  F. Plasser,  P. Pokhilko,  
 S. Prager,  A. Prociuk,  E. Ramos,  D. R. Rehn,  F. Rob,  M. Scheurer,  
 M. Schneider,  N. Sergueev,  S. M. Sharada,  S. Sharma,  D. W. Small,  
 T. Stauch,  T. Stein,  Yu-Chuan Su,  A. J. W. Thom,  A. Tkatchenko,  
 T. Tsuchimochi,  N. M. Tubman,  L. Vogt,  M. L. Vidal,  O. Vydrov,  
 M. A. Watson,  J. Wenzel,  M. de Wergifosse,  T. A. Wesolowski,  A. White,  
 J. Witte,  A. Yamada,  Jun Yang,  K. Yao,  S. Yeganeh,  S. R. Yost,  
 Zhi-Qiang You,  A. Zech,  Igor Ying Zhang,  Xing Zhang,  Yan Zhao,  
 Ying Zhu,  B. R. Brooks,  G. K. L. Chan,  C. J. Cramer,  M. S. Gordon,  
 W. J. Hehre,  A. Klamt,  M. W. Schmidt,  C. D. Sherrill,  D. G. Truhlar,  
 A. Aspuru-Guzik,  R. Baer,  A. T. Bell,  N. A. Besley,  Jeng-Da Chai,  
 A. E. DePrince, III,  R. A. DiStasio Jr.,  A. Dreuw,  B. D. Dunietz,  
 T. R. Furlani,  Chao-Ping Hsu,  Yousung Jung,  Jing Kong,  D. S. Lambrecht,  
 WanZhen Liang,  C. Ochsenfeld,  V. A. Rassolov,  L. V. Slipchenko,  
 J. E. Subotnik,  T. Van Voorhis,  J. M. Herbert,  A. I. Krylov,  
 P. M. W. Gill,  M. Head-Gordon

 Contributors to earlier versions of Q-Chem not listed above: 
 R. D. Adamson,  B. Austin,  J. Baker,  G. J. O. Beran,  K. Brandhorst,  
 S. T. Brown,  E. F. C. Byrd,  A. K. Chakraborty,  C.-L. Cheng,  
 Siu Hung Chien,  D. M. Chipman,  D. L. Crittenden,  H. Dachsel,  
 R. J. Doerksen,  A. D. Dutoi,  L. Fusti-Molnar,  W. A. Goddard III,  
 A. Golubeva-Zadorozhnaya,  S. R. Gwaltney,  G. Hawkins,  A. Heyden,  
 S. Hirata,  G. Kedziora,  F. J. Keil,  C. Kelley,  Jihan Kim,  R. A. King,  
 R. Z. Khaliullin,  P. P. Korambath,  W. Kurlancheek,  A. M. Lee,  M. S. Lee,  
 S. V. Levchenko,  Ching Yeh Lin,  D. Liotard,  R. C. Lochan,  I. Lotan,  
 P. E. Maslen,  N. Nair,  D. P. O'Neill,  D. Neuhauser,  E. Neuscamman,  
 C. M. Oana,  R. Olson,  B. Peters,  R. Peverati,  P. A. Pieniazek,  
 Y. M. Rhee,  J. Ritchie,  M. A. Rohrdanz,  E. Rosta,  N. J. Russ,  
 H. F. Schaefer III,  N. E. Schultz,  N. Shenvi,  A. C. Simmonett,  A. Sodt,  
 D. Stuck,  K. S. Thanthiriwatte,  V. Vanovschi,  Tao Wang,  A. Warshel,  
 C. F. Williams,  Q. Wu,  X. Xu,  W. Zhang

 Please cite Q-Chem as follows:
 Y. Shao et al., Mol. Phys. 113, 184-215 (2015)
 DOI: 10.1080/00268976.2014.952696

 Q-Chem 5.2.0 for Intel X86 EM64T Linux

 Parts of Q-Chem use Armadillo 8.300.2 (Tropical Shenanigans).
 http://arma.sourceforge.net/

 Q-Chem begins on Sun Sep 26 11:58:27 2021  

Host: cori01
0

     Scratch files written to /tmp/qchem52568//Frg1//
 May1019 |scratch|qcdevops|jenkins|workspace|build_RNUM -1
Processing $rem in /global/common/cori/software/qchem/5.2/config/preferences:
	 MEM_TOTAL  96000 
NAlpha2: 40
NElect   40
Mult     1
Symmetry turned off for PCM/SM12/SMD calculation

Checking the input file for inconsistencies... 	...done.

--------------------------------------------------------------
User input:
--------------------------------------------------------------
$molecule
-1 1
 6	1.2364936609	2.0392687122	1.0837997138
 6	1.9964936609	2.2222687122	2.3957997138
 6	-0.0845063391	2.8092687122	1.0637997138
 8	-0.8465063391	2.7702687122	2.0597997138
 8	-0.3585063391	3.4772687122	0.0447997138
 1	1.8654936609	2.3602687122	0.2507997138
 1	1.0244936609	0.9772687122	0.9567997138
 1	1.3424936609	1.9212687122	3.2147997138
 1	2.3065836609	3.2667587122	2.5470657138
 1	2.8956936609	1.5886887122	2.4001537138
$end
$rem
EDA2		1
METHOD		WB97X-V
BASIS		DEF2-TZVPD
XC_GRID		000099000590
NL_GRID		1
UNRESTRICTED		FALSE
MAX_SCF_CYCLES		200
SYMMETRY		FALSE
SYM_IGNORE		TRUE
BASIS_LIN_DEP_THRESH		6
THRESH		14
SCF_CONVERGENCE		8
SCF_PRINT_FRGM		TRUE
SOLVENT_METHOD		SMD
!required keywords
JOBTYPE		SP
SYM_IGNORE		TRUE
SUBSYSTEM		TRUE
GEN_SCFMAN		TRUE
CHILD_INSTRUCTION		2
SYM_IGNORE		TRUE
SCFMI		0
RI_K 0		
PARI_K 0		
MIN_PARI_K 0		
IARI_K 0		
OCC_RI_K 0		
PURECART		1111
MEM_STATIC		2000
MEM_TOTAL		96000
GUI		0
CHILD_MP		1
CHILD_MP_ORDERS		232
FRZ_RELAX		0
FRZ_RELAX_METHOD		0
EDA_CLS_ELEC		1
EDA_CLS_DISP		0
FRZ_ORTHO_DECOMP		1
EDA2		FALSE
FRGM_METHOD		FALSE
CIS_N_ROOTS  0
LOCAL_CIS    0
CIS_RLX_DNS  1
$end
$smx
SOLVENT			WATER
$end
--------------------------------------------------------------
 ----------------------------------------------------------------
             Standard Nuclear Orientation (Angstroms)
    I     Atom           X                Y                Z
 ----------------------------------------------------------------
    1      C       1.2364936609     2.0392687122     1.0837997138
    2      C       1.9964936609     2.2222687122     2.3957997138
    3      C      -0.0845063391     2.8092687122     1.0637997138
    4      O      -0.8465063391     2.7702687122     2.0597997138
    5      O      -0.3585063391     3.4772687122     0.0447997138
    6      H       1.8654936609     2.3602687122     0.2507997138
    7      H       1.0244936609     0.9772687122     0.9567997138
    8      H       1.3424936609     1.9212687122     3.2147997138
    9      H       2.3065836609     3.2667587122     2.5470657138
   10      H       2.8956936609     1.5886887122     2.4001537138
 ----------------------------------------------------------------
 Nuclear Repulsion Energy =         168.99146208 hartrees
 There are       20 alpha and       20 beta electrons
 Requested basis set is def2-TZVPD
 There are 92 shells and 236 basis functions

 Total QAlloc Memory Limit  96000 MB
 Mega-Array Size      1956 MB
 MEM_STATIC part      2000 MB
 
 Citation of the SMD model:
 Marenich, A.V.; Cramer, C.J.; Truhlar, D.G.
 J. Phys. Chem. B 2009, 113, 6378-6396.
 iSolventCode=           1
 Solvent: water                                                           
 
 vradii
            1           2           3           4           5           6
    1   1.8500000   1.8500000   1.8500000   1.5200000   1.5200000   1.2000000
            7           8           9          10
    1   1.2000000   1.2000000   1.2000000   1.2000000
 Changing PCM_VDW_RADII to SMD_RADIUS
 Discretize the solute cavity surface with Lebedev spheres
	Using 110 Lebedev grid points for each H atom
	Using 194 Lebedev grid points for other atoms
	Atomic van der Waals radii will be scaled by 1.20
 Remove points where switching function is < 1.0e-08
 Keep 838 surface tesserae and discard 682 interior tesserae
 Molecular Surface Area = 99.843 Angst**2

                       Distance Matrix (Angstroms)
             C (  1)   C (  2)   C (  3)   O (  4)   O (  5)   H (  6)
   C (  2)  1.527230
   C (  3)  1.529163  2.539558
   O (  4)  2.413675  2.914764  1.254664
   O (  5)  2.385663  3.556438  1.248864  2.190484
   H (  6)  1.092049  2.153423  2.159877  3.285654  2.497259
   H (  7)  1.090375  2.136710  2.144191  2.816398  2.999072  1.765901
   H (  8)  2.136895  1.090449  2.729775  2.616591  3.919622  3.041635
   H (  9)  2.189286  1.099998  2.850734  3.228917  3.661742  2.507812
   H ( 10)  2.165353  1.100001  3.486725  3.939040  4.438946  2.505269
             H (  7)   H (  8)   H (  9)
   H (  8)  2.467959
   H (  9)  3.068300  1.784848
   H ( 10)  2.441003  1.785130  1.784531
 
 A cutoff of  1.0D-14 yielded   4192 shell pairs
 There are     28050 function pairs (     35746 Cartesian)
 Smallest overlap matrix eigenvalue = 1.01E-05

 Scale SEOQF with 1.000000e-01/1.000000e-01/1.000000e-01

 Standard Electronic Orientation quadrupole field applied
 Nucleus-field energy     =     0.0000000111 hartrees
 Guess from superposition of atomic densities
 Warning:  Energy on first SCF cycle will be non-variational
 SAD guess density has 38.612942 electrons

 -----------------------------------------------------------------------
  General SCF calculation program by
  Eric Jon Sundstrom, Paul Horn, Yuezhi Mao, Dmitri Zuev, Alec White,
  David Stuck, Shaama M.S., Shane Yost, Joonho Lee, David Small,
  Daniel Levine, Susi Lehtola, Hugh Burton, Evgeny Epifanovsky
 -----------------------------------------------------------------------
 Exchange:     0.1670 Hartree-Fock + 1.0000 wB97X-V + LR-HF
 Correlation:  1.0000 wB97X-V
 Using Euler-Maclaurin-Lebedev (99,590) quadrature formula
 Nonlocal Correlation:  VV10 with C = 0.0100 and b = 6.00 and scale = 1.00000
 Grid used for NLC:  SG-1 standard quadrature
Energy prior to optimization (guess energy) = -267.071479285760
Begin Timing: Total SCF Calculation
begin iterations for algorithm: DIIS         
the SCF tolerance is set to 1.00e-08
    1    -267.0714792858      1.28e-02     00000 
    2    -263.2946308405      2.03e-02     00000 
    3    -267.8356180953      4.97e-03     00000 
    4    -267.9555209710      2.15e-03     00000 
    5    -267.9799776961      3.56e-04     00000 
    6    -267.9810957541      1.38e-04     00000 
    7    -267.9811768740      7.87e-05     00000 
    8    -267.9812070076      1.70e-05     00000 
    9    -267.9812091111      5.76e-06     00000 
   10    -267.9812094054      2.06e-06     00000 
   11    -267.9812094624      2.68e-07     00000 
   12    -267.9812094645      6.62e-08     00000 
   13    -267.9812094645      2.77e-08     00000 
   14    -267.9812094645      8.66e-09     00000 Convergence criterion met
Timing for Total SCF: 588.00s (wall), 1167.07s (cpu)
(3)  G-ENP(liq) elect-nuc-pol free energy of system     -267.981209465 a.u.
(4)  G-CDS(liq) cavity-dispersion-solvent structure 
     free energy                                                4.0414 kcal/mol
(6)  G-S(liq) free energy of system                     -267.974769067 a.u.
E_pcm = -0.1311004975
E_cds = 0.0064403977
Multipole orders to be included
        2
        3
computing dipole RHS
computing quadrupole RHS
total number of RHS in solve_reponses: 8
RHS batch sizes
        8
Beginning Block Conjugate Gradient Iterations. Batch Number: 0
computing hessian-vector products by finite difference
              1      6.91e-01     00000 Conjugate Gradient Iteration
computing hessian-vector products by finite difference
              2      2.13e-01     00000 Conjugate Gradient Iteration
computing hessian-vector products by finite difference
              3      5.77e-02     00000 Conjugate Gradient Iteration
computing hessian-vector products by finite difference
              4      1.58e-02     00000 Conjugate Gradient Iteration
computing hessian-vector products by finite difference
              5      2.36e-03     00000 Conjugate Gradient Iteration
computing hessian-vector products by finite difference
              6      5.63e-04     00000 Conjugate Gradient Iteration
computing hessian-vector products by finite difference
              7      8.57e-05     00000 Conjugate Gradient Iteration
computing hessian-vector products by finite difference
              8      1.32e-05     00000 Conjugate Gradient Iteration
computing hessian-vector products by finite difference
              9      2.01e-06     00000 Conjugate Gradient Iteration
computing hessian-vector products by finite difference
             10      2.94e-07     00000 Conjugate Gradient Iteration
computing hessian-vector products by finite difference
             11      3.97e-08     00000 Conjugate Gradient Iteration
computing hessian-vector products by finite difference
             12      9.32e-09     00000 CG Converged
batch 0 complete
Done Calculating Responses
TESTING ORTHOGONALIZATION OF MULTIPOLE BASIS
Multipole virts passed orthogonality test
Virts Per Order
           60
          100
 
 --------------------------------------------------------------
 
                    Orbital Energies (a.u.)
 --------------------------------------------------------------
 
 Alpha MOs
 -- Occupied --
-19.1524 -19.1523 -10.3511 -10.2518 -10.2468  -1.1652  -1.0638  -0.8892
 -0.7499  -0.6166  -0.5626  -0.5605  -0.5303  -0.5074  -0.4752  -0.4483
 -0.4352  -0.3646  -0.3539  -0.3434
 -- Virtual --
  0.0677   0.0900   0.0962   0.1035   0.1234   0.1354   0.1424   0.1501
  0.1517   0.1546   0.1854   0.1985   0.2040   0.2107   0.2312   0.2428
  0.2478   0.2585   0.2638   0.2916   0.2977   0.3014   0.3200   0.3319
  0.3431   0.3547   0.3596   0.3657   0.3751   0.3778   0.3792   0.3932
  0.4064   0.4106   0.4139   0.4203   0.4278   0.4383   0.4552   0.4598
  0.4750   0.4935   0.4952   0.5034   0.5134   0.5187   0.5304   0.5445
  0.5463   0.5509   0.5636   0.5883   0.5963   0.6258   0.6388   0.6446
  0.6484   0.6547   0.6786   0.6849   0.6965   0.7000   0.7224   0.7362
  0.7629   0.7737   0.7856   0.7897   0.7970   0.8065   0.8099   0.8162
  0.8375   0.8450   0.8736   0.8871   0.8960   0.9291   0.9635   0.9774
  1.0154   1.0416   1.0581   1.0720   1.1009   1.1157   1.1580   1.1949
  1.2275   1.2770   1.2859   1.3142   1.3257   1.3388   1.3942   1.4094
  1.4404   1.4743   1.5107   1.5979   1.6336   1.7587   1.8413   1.8563
  1.8793   1.9045   1.9156   1.9320   1.9546   1.9602   1.9764   1.9925
  2.0186   2.0332   2.0511   2.1289   2.1407   2.1715   2.1890   2.2505
  2.2800   2.3060   2.3597   2.3883   2.4509   2.4599   2.4925   2.5100
  2.5481   2.5916   2.6242   2.6341   2.6599   2.7211   2.7422   2.7779
  2.8119   2.8403   2.8733   2.9249   2.9516   2.9762   3.0186   3.0662
  3.0939   3.1491   3.1948   3.2329   3.2669   3.2927   3.3225   3.3393
  3.3603   3.3716   3.4443   3.4592   3.4948   3.4986   3.5316   3.5684
  3.5829   3.6126   3.6237   3.6697   3.6810   3.7140   3.7422   3.7507
  3.7957   3.8120   3.9435   4.0589   4.0897   4.1094   4.2099   4.2275
  4.2934   4.3888   4.5444   4.5843   4.6759   4.7387   4.7552   4.8191
  4.8857   5.0207   5.0776   5.3020   5.3310   5.3406   5.3489   5.4690
  5.6889   5.7529   5.7934   6.0059   6.2054   6.3203   6.3389   6.5891
  6.6085   6.7053   6.7290   6.7496   6.9434   6.9666   7.0247   7.2296
  7.3223   7.3716   7.3892  22.6271  22.7462  23.7400  44.2447  44.3902
 --------------------------------------------------------------
 
          Ground-State Mulliken Net Atomic Charges

     Atom                 Charge (a.u.)
  ----------------------------------------
      1 C                     0.040834
      2 C                    -0.878849
      3 C                     0.353686
      4 O                    -0.789763
      5 O                    -0.781422
      6 H                     0.179681
      7 H                     0.182313
      8 H                     0.213936
      9 H                     0.252393
     10 H                     0.227192
  ----------------------------------------
  Sum of atomic charges =    -1.000000

 -----------------------------------------------------------------
                    Cartesian Multipole Moments
 -----------------------------------------------------------------
    Charge (ESU x 10^10)
                -4.8032
    Dipole Moment (Debye)
         X       4.9009      Y     -16.2778      Z      -5.0252
       Tot      17.7268
    Quadrupole Moments (Debye-Ang)
        XX     -35.6660     XY      14.6855     YY     -86.9584
        XZ       7.0070     YZ     -13.8851     ZZ     -46.8162
    Octopole Moments (Debye-Ang^2)
       XXX     -41.2706    XXY     -95.9109    XYY      30.5744
       YYY    -439.6837    XXZ     -51.4721    XYZ      19.6065
       YYZ     -81.9035    XZZ      -2.4361    YZZ    -124.5055
       ZZZ    -169.1086
    Hexadecapole Moments (Debye-Ang^3)
      XXXX    -337.8619   XXXY     -65.1781   XXYY    -330.0794
      XYYY      70.6927   YYYY   -2074.5302   XXXZ     -97.0303
      XXYZ    -128.3254   XYYZ      23.8433   YYYZ    -422.7843
      XXZZ    -168.5587   XYZZ      11.4101   YYZZ    -442.3297
      XZZZ     -80.9318   YZZZ    -420.8133   ZZZZ    -653.0104
 -----------------------------------------------------------------
Archival summary:
1\1\nid00537\SP\ProcedureUnspecified\BasisUnspecified\235(1-,1)\meili\SunSep2614:45:332021SunSep2614:45:332021\0\\#,ProcedureUnspecified,BasisUnspecified,\\-1,1\C\O,1,1.24886\O,1,1.25466,2,122.08\C,1,1.52916,2,118.005,3,-179.08,0\H,4,1.09037,1,108.721,2,-106.149,0\H,4,1.09205,1,109.852,2,11.8671,0\C,4,1.52723,1,112.383,2,134.013,0\H,7,1.09045,4,108.282,1,56.175,0\H,7,1.1,4,111.851,1,-64.1251,0\H,7,1.1,4,109.948,1,175.367,0\\\@

 Total job time:  10026.26s(wall), 19846.62s(cpu) 
 Sun Sep 26 14:45:33 2021

        *************************************************************
        *                                                           *
        *  Thank you very much for using Q-Chem.  Have a nice day.  *
        *                                                           *
        *************************************************************


Done Job For Fragment 0
calling putenv with: QCSCRATCH=/global/cscratch1/sd/meili 
calling putenv with: QCLOCALSCR=/tmp 
calling putenv with: QCTHREADS=32 
Creating input file /tmp/qchem52568/Frg2.input
using default PutDataFrgm: nothing
calling putenv with: QCSCRATCH=/tmp/qchem52568/ 
calling putenv with: QCLOCALSCR=/tmp/qchem52568/ 
Spawning Job For Fragment 1
                  Welcome to Q-Chem
     A Quantum Leap Into The Future Of Chemistry


 Q-Chem 5.2, Q-Chem, Inc., Pleasanton, CA (2019)

 License issued to: National Energy Research Scientific Computing Center

 Yihan Shao,  Zhengting Gan,  E. Epifanovsky,  A. T. B. Gilbert,  M. Wormit,  
 J. Kussmann,  A. W. Lange,  A. Behn,  Jia Deng,  Xintian Feng,  D. Ghosh,  
 M. Goldey,  P. R. Horn,  L. D. Jacobson,  I. Kaliman,  T. Kus,  A. Landau,  
 Jie Liu,  E. I. Proynov,  R. M. Richard,  R. P. Steele,  E. J. Sundstrom,  
 H. L. Woodcock III,  P. M. Zimmerman,  D. Zuev,  B. Albrecht,  E. Alguire,  
 S. A. Baeppler,  D. Barton,  Z. Benda,  Y. A. Bernard,  E. J. Berquist,  
 K. B. Bravaya,  H. Burton,  D. Casanova,  Chun-Min Chang,  Yunqing Chen,  
 A. Chien,  K. D. Closser,  M. P. Coons,  S. Coriani,  S. Dasgupta,  
 A. L. Dempwolff,  M. Diedenhofen,  Hainam Do,  R. G. Edgar,  Po-Tung Fang,  
 S. Faraji,  S. Fatehi,  Qingguo Feng,  K. D. Fenk,  J. Fosso-Tande,  
 J. Gayvert,  Qinghui Ge,  A. Ghysels,  G. Gidofalvi,  J. Gomes,  
 J. Gonthier,  A. Gunina,  D. Hait,  M. W. D. Hanson-Heine,  
 P. H. P. Harbach,  A. W. Hauser,  M. F. Herbst,  J. E. Herr,  
 E. G. Hohenstein,  Z. C. Holden,  Kerwin Hui,  B. C. Huynh,  T.-C. Jagau,  
 Hyunjun Ji,  B. Kaduk,  K. Khistyaev,  Jaehoon Kim,  P. Klunzinger,  K. Koh,  
 D. Kosenkov,  L. Koulias,  T. Kowalczyk,  C. M. Krauter,  A. Kunitsa,  
 Ka Un Lao,  A. Laurent,  K. V. Lawler,  Joonho Lee,  D. Lefrancois,  
 S. Lehtola,  D. S. Levine,  Yi-Pei Li,  You-Sheng Lin,  Fenglai Liu,  
 E. Livshits,  A. Luenser,  P. Manohar,  E. Mansoor,  S. F. Manzer,  
 Shan-Ping Mao,  Yuezhi Mao,  N. Mardirossian,  A. V. Marenich,  
 T. Markovich,  L. A. Martinez-Martinez,  S. A. Maurer,  N. J. Mayhall,  
 S. C. McKenzie,  J.-M. Mewes,  P. Morgante,  A. F. Morrison,  
 J. W. Mullinax,  K. Nanda,  T. S. Nguyen-Beck,  R. Olivares-Amaya,  
 J. A. Parkhill,  Zheng Pei,  T. M. Perrine,  F. Plasser,  P. Pokhilko,  
 S. Prager,  A. Prociuk,  E. Ramos,  D. R. Rehn,  F. Rob,  M. Scheurer,  
 M. Schneider,  N. Sergueev,  S. M. Sharada,  S. Sharma,  D. W. Small,  
 T. Stauch,  T. Stein,  Yu-Chuan Su,  A. J. W. Thom,  A. Tkatchenko,  
 T. Tsuchimochi,  N. M. Tubman,  L. Vogt,  M. L. Vidal,  O. Vydrov,  
 M. A. Watson,  J. Wenzel,  M. de Wergifosse,  T. A. Wesolowski,  A. White,  
 J. Witte,  A. Yamada,  Jun Yang,  K. Yao,  S. Yeganeh,  S. R. Yost,  
 Zhi-Qiang You,  A. Zech,  Igor Ying Zhang,  Xing Zhang,  Yan Zhao,  
 Ying Zhu,  B. R. Brooks,  G. K. L. Chan,  C. J. Cramer,  M. S. Gordon,  
 W. J. Hehre,  A. Klamt,  M. W. Schmidt,  C. D. Sherrill,  D. G. Truhlar,  
 A. Aspuru-Guzik,  R. Baer,  A. T. Bell,  N. A. Besley,  Jeng-Da Chai,  
 A. E. DePrince, III,  R. A. DiStasio Jr.,  A. Dreuw,  B. D. Dunietz,  
 T. R. Furlani,  Chao-Ping Hsu,  Yousung Jung,  Jing Kong,  D. S. Lambrecht,  
 WanZhen Liang,  C. Ochsenfeld,  V. A. Rassolov,  L. V. Slipchenko,  
 J. E. Subotnik,  T. Van Voorhis,  J. M. Herbert,  A. I. Krylov,  
 P. M. W. Gill,  M. Head-Gordon

 Contributors to earlier versions of Q-Chem not listed above: 
 R. D. Adamson,  B. Austin,  J. Baker,  G. J. O. Beran,  K. Brandhorst,  
 S. T. Brown,  E. F. C. Byrd,  A. K. Chakraborty,  C.-L. Cheng,  
 Siu Hung Chien,  D. M. Chipman,  D. L. Crittenden,  H. Dachsel,  
 R. J. Doerksen,  A. D. Dutoi,  L. Fusti-Molnar,  W. A. Goddard III,  
 A. Golubeva-Zadorozhnaya,  S. R. Gwaltney,  G. Hawkins,  A. Heyden,  
 S. Hirata,  G. Kedziora,  F. J. Keil,  C. Kelley,  Jihan Kim,  R. A. King,  
 R. Z. Khaliullin,  P. P. Korambath,  W. Kurlancheek,  A. M. Lee,  M. S. Lee,  
 S. V. Levchenko,  Ching Yeh Lin,  D. Liotard,  R. C. Lochan,  I. Lotan,  
 P. E. Maslen,  N. Nair,  D. P. O'Neill,  D. Neuhauser,  E. Neuscamman,  
 C. M. Oana,  R. Olson,  B. Peters,  R. Peverati,  P. A. Pieniazek,  
 Y. M. Rhee,  J. Ritchie,  M. A. Rohrdanz,  E. Rosta,  N. J. Russ,  
 H. F. Schaefer III,  N. E. Schultz,  N. Shenvi,  A. C. Simmonett,  A. Sodt,  
 D. Stuck,  K. S. Thanthiriwatte,  V. Vanovschi,  Tao Wang,  A. Warshel,  
 C. F. Williams,  Q. Wu,  X. Xu,  W. Zhang

 Please cite Q-Chem as follows:
 Y. Shao et al., Mol. Phys. 113, 184-215 (2015)
 DOI: 10.1080/00268976.2014.952696

 Q-Chem 5.2.0 for Intel X86 EM64T Linux

 Parts of Q-Chem use Armadillo 8.300.2 (Tropical Shenanigans).
 http://arma.sourceforge.net/

 Q-Chem begins on Sun Sep 26 14:45:36 2021  

Host: cori01
0

     Scratch files written to /tmp/qchem52568//Frg2//
 May1019 |scratch|qcdevops|jenkins|workspace|build_RNUM -1
Processing $rem in /global/common/cori/software/qchem/5.2/config/preferences:
	 MEM_TOTAL  96000 
NAlpha2: 50
NElect   50
Mult     1
Symmetry turned off for PCM/SM12/SMD calculation

Checking the input file for inconsistencies... 	...done.

--------------------------------------------------------------
User input:
--------------------------------------------------------------
$molecule
0 1
 6	0.1604936609	-4.5077312878	-1.2962002862
 6	-0.6755063391	-0.3077312878	-0.8812002862
 6	-1.4275063391	-1.2467312878	-0.1902002862
 6	0.3784936609	-0.7317312878	-1.6842002862
 6	-1.1455063391	-2.5987312878	-0.3362002862
 6	0.6474936609	-2.0927312878	-1.8382002862
 6	-0.1225063391	-3.0367312878	-1.1652002862
 1	-0.8975063391	0.7462687122	-0.7842002862
 1	-2.2245063391	-0.9227312878	0.4597997138
 1	0.9774936609	-0.0017312878	-2.2122002862
 1	-1.7395063391	-3.3207312878	0.2077997138
 1	1.4604936609	-2.4107312878	-2.4782002862
 1	0.7524936609	-4.6827312878	-2.1962002862
 1	-0.7975063391	-5.0127312878	-1.4282002862
 1	0.6807836609	-4.9405812878	-0.4290545762
$end
$rem
EDA2		1
METHOD		WB97X-V
BASIS		DEF2-TZVPD
XC_GRID		000099000590
NL_GRID		1
UNRESTRICTED		FALSE
MAX_SCF_CYCLES		200
SYMMETRY		FALSE
SYM_IGNORE		TRUE
BASIS_LIN_DEP_THRESH		6
THRESH		14
SCF_CONVERGENCE		8
SCF_PRINT_FRGM		TRUE
SOLVENT_METHOD		SMD
!required keywords
JOBTYPE		SP
SYM_IGNORE		TRUE
SUBSYSTEM		TRUE
GEN_SCFMAN		TRUE
CHILD_INSTRUCTION		2
SYM_IGNORE		TRUE
SCFMI		0
RI_K 0		
PARI_K 0		
MIN_PARI_K 0		
IARI_K 0		
OCC_RI_K 0		
PURECART		1111
MEM_STATIC		2000
MEM_TOTAL		96000
GUI		0
CHILD_MP		1
CHILD_MP_ORDERS		232
FRZ_RELAX		0
FRZ_RELAX_METHOD		0
EDA_CLS_ELEC		1
EDA_CLS_DISP		0
FRZ_ORTHO_DECOMP		1
EDA2		FALSE
FRGM_METHOD		FALSE
CIS_N_ROOTS  0
LOCAL_CIS    0
CIS_RLX_DNS  1
$end
$smx
SOLVENT			WATER
$end
--------------------------------------------------------------
 ----------------------------------------------------------------
             Standard Nuclear Orientation (Angstroms)
    I     Atom           X                Y                Z
 ----------------------------------------------------------------
    1      C       0.1604936609    -4.5077312878    -1.2962002862
    2      C      -0.6755063391    -0.3077312878    -0.8812002862
    3      C      -1.4275063391    -1.2467312878    -0.1902002862
    4      C       0.3784936609    -0.7317312878    -1.6842002862
    5      C      -1.1455063391    -2.5987312878    -0.3362002862
    6      C       0.6474936609    -2.0927312878    -1.8382002862
    7      C      -0.1225063391    -3.0367312878    -1.1652002862
    8      H      -0.8975063391     0.7462687122    -0.7842002862
    9      H      -2.2245063391    -0.9227312878     0.4597997138
   10      H       0.9774936609    -0.0017312878    -2.2122002862
   11      H      -1.7395063391    -3.3207312878     0.2077997138
   12      H       1.4604936609    -2.4107312878    -2.4782002862
   13      H       0.7524936609    -4.6827312878    -2.1962002862
   14      H      -0.7975063391    -5.0127312878    -1.4282002862
   15      H       0.6807836609    -4.9405812878    -0.4290545762
 ----------------------------------------------------------------
 Nuclear Repulsion Energy =         270.17825184 hartrees
 There are       25 alpha and       25 beta electrons
 Requested basis set is def2-TZVPD
 There are 131 shells and 331 basis functions

 Total QAlloc Memory Limit  96000 MB
 Mega-Array Size      1956 MB
 MEM_STATIC part      2000 MB
 
 Citation of the SMD model:
 Marenich, A.V.; Cramer, C.J.; Truhlar, D.G.
 J. Phys. Chem. B 2009, 113, 6378-6396.
 iSolventCode=           1
 Solvent: water                                                           
 
 vradii
            1           2           3           4           5           6
    1   1.8500000   1.8500000   1.8500000   1.8500000   1.8500000   1.8500000
            7           8           9          10          11          12
    1   1.8500000   1.2000000   1.2000000   1.2000000   1.2000000   1.2000000
           13          14          15
    1   1.2000000   1.2000000   1.2000000
 Changing PCM_VDW_RADII to SMD_RADIUS
 Discretize the solute cavity surface with Lebedev spheres
	Using 110 Lebedev grid points for each H atom
	Using 194 Lebedev grid points for other atoms
	Atomic van der Waals radii will be scaled by 1.20
 Remove points where switching function is < 1.0e-08
 Keep 1083 surface tesserae and discard 1155 interior tesserae
 Molecular Surface Area = 131.906 Angst**2

                       Distance Matrix (Angstroms)
             C (  1)   C (  2)   C (  3)   C (  4)   C (  5)   C (  6)
   C (  2)  4.302455
   C (  3)  3.791979  1.387338
   C (  4)  3.802137  1.391223  2.399770
   C (  5)  2.504300  2.401376  1.388792  2.761407
   C (  6)  2.522530  2.419174  2.781590  1.395850  2.393092
   C (  7)  1.503692  2.798912  2.420279  2.415241  1.387665  1.391749
   H (  8)  5.383867  1.081485  2.146109  2.150037  3.383967  3.399686
   H (  9)  4.650160  2.139137  1.078279  3.377695  2.146353  3.859804
   H ( 10)  4.670180  2.144203  3.379724  1.081890  3.843295  2.149664
   H ( 11)  2.698330  3.375824  2.134766  3.842982  1.081691  3.375184
   H ( 12)  2.735787  3.396397  3.863986  2.149465  3.378571  1.082448
   H ( 13)  1.091370  4.786338  4.536798  4.001552  3.377138  2.616733
   H ( 14)  1.090969  4.738261  4.014013  4.446962  2.672258  3.283676
   H ( 15)  1.100001  4.848428  4.259867  4.402407  2.971232  3.177585
             C (  7)   H (  8)   H (  9)   H ( 10)   H ( 11)   H ( 12)
   H (  8)  3.880319
   H (  9)  3.395295  2.468608
   H ( 10)  3.393735  2.472714  4.270905
   H ( 11)  2.140204  4.270072  2.459499  4.924860
   H ( 12)  2.149822  4.289108  4.942187  2.471300  4.275827
   H ( 13)  2.130235  5.847246  5.482195  4.686432  3.720796  2.396408
   H ( 14)  2.104607  5.795759  4.725354  5.373584  2.535098  3.601592
   H ( 15)  2.193588  5.912478  5.037250  5.259267  2.981158  3.347699
             H ( 13)   H ( 14)
   H ( 14)  1.761029
   H ( 15)  1.787298  1.785732
 
 A cutoff of  1.0D-14 yielded   8365 shell pairs
 There are     54521 function pairs (     69476 Cartesian)
 Smallest overlap matrix eigenvalue = 5.49E-07
 Linear dependence detected in AO basis
 Tighter screening thresholds may be required for diffuse basis sets
 Use S2THRESH > 14 and THRESH = 14 in case of SCF convergence issues
 Number of orthogonalized atomic orbitals = 330
 Maximum deviation from orthogonality = 9.744E-11

 Scale SEOQF with 1.000000e-01/1.000000e-01/1.000000e-01

 Standard Electronic Orientation quadrupole field applied
 Nucleus-field energy     =     0.0000000176 hartrees
 Guess from superposition of atomic densities
 Warning:  Energy on first SCF cycle will be non-variational
 SAD guess density has 49.913408 electrons

 -----------------------------------------------------------------------
  General SCF calculation program by
  Eric Jon Sundstrom, Paul Horn, Yuezhi Mao, Dmitri Zuev, Alec White,
  David Stuck, Shaama M.S., Shane Yost, Joonho Lee, David Small,
  Daniel Levine, Susi Lehtola, Hugh Burton, Evgeny Epifanovsky
 -----------------------------------------------------------------------
 Exchange:     0.1670 Hartree-Fock + 1.0000 wB97X-V + LR-HF
 Correlation:  1.0000 wB97X-V
 Using Euler-Maclaurin-Lebedev (99,590) quadrature formula
 Nonlocal Correlation:  VV10 with C = 0.0100 and b = 6.00 and scale = 1.00000
 Grid used for NLC:  SG-1 standard quadrature
Energy prior to optimization (guess energy) = -271.519451272205
Begin Timing: Total SCF Calculation
begin iterations for algorithm: DIIS         
the SCF tolerance is set to 1.00e-08
    1    -271.5194512722      1.97e-03     00000 
    2    -271.5605887197      1.29e-03     00000 
    3    -271.5848645010      1.55e-04     00000 
    4    -271.5855600728      4.70e-05     00000 
    5    -271.5856112720      2.15e-05     00000 
    6    -271.5856190151      5.37e-06     00000 
    7    -271.5856197260      1.41e-06     00000 
    8    -271.5856197655      4.71e-07     00000 
    9    -271.5856197710      8.54e-08     00000 
   10    -271.5856197713      3.74e-08     00000 
   11    -271.5856197714      1.71e-08     00000 
   12    -271.5856197714      6.64e-09     00000 Convergence criterion met
Timing for Total SCF: 1397.00s (wall), 2777.09s (cpu)
(3)  G-ENP(liq) elect-nuc-pol free energy of system     -271.585619771 a.u.
(4)  G-CDS(liq) cavity-dispersion-solvent structure 
     free energy                                                3.1658 kcal/mol
(6)  G-S(liq) free energy of system                     -271.580574774 a.u.
E_pcm = -0.0074222194
E_cds = 0.0050449969
Multipole orders to be included
        2
        3
computing dipole RHS
computing quadrupole RHS
total number of RHS in solve_reponses: 8
RHS batch sizes
        8
Beginning Block Conjugate Gradient Iterations. Batch Number: 0
computing hessian-vector products by finite difference
              1      6.24e-01     00000 Conjugate Gradient Iteration
computing hessian-vector products by finite difference
              2      1.89e-01     00000 Conjugate Gradient Iteration
computing hessian-vector products by finite difference
              3      4.59e-02     00000 Conjugate Gradient Iteration
computing hessian-vector products by finite difference
              4      1.15e-02     00000 Conjugate Gradient Iteration
computing hessian-vector products by finite difference
              5      2.03e-03     00000 Conjugate Gradient Iteration
computing hessian-vector products by finite difference
              6      5.93e-04     00000 Conjugate Gradient Iteration
computing hessian-vector products by finite difference
              7      1.52e-04     00000 Conjugate Gradient Iteration
computing hessian-vector products by finite difference
              8      2.40e-05     00000 Conjugate Gradient Iteration
computing hessian-vector products by finite difference
              9      3.03e-06     00000 Conjugate Gradient Iteration
computing hessian-vector products by finite difference
             10      4.76e-07     00000 Conjugate Gradient Iteration
computing hessian-vector products by finite difference
             11      7.83e-08     00000 Conjugate Gradient Iteration
computing hessian-vector products by finite difference
             12      1.34e-08     00000 Conjugate Gradient Iteration
computing hessian-vector products by finite difference
             13      2.47e-09     00000 CG Converged
batch 0 complete
Done Calculating Responses
TESTING ORTHOGONALIZATION OF MULTIPOLE BASIS
Multipole virts passed orthogonality test
Virts Per Order
           75
          125
 
 --------------------------------------------------------------
 
                    Orbital Energies (a.u.)
 --------------------------------------------------------------
 
 Alpha MOs
 -- Occupied --
-10.2761 -10.2679 -10.2666 -10.2646 -10.2644 -10.2625 -10.2537  -0.9942
 -0.9026  -0.8741  -0.8073  -0.7253  -0.7001  -0.6242  -0.5690  -0.5596
 -0.5296  -0.5230  -0.5087  -0.4800  -0.4698  -0.4360  -0.4336  -0.3461
 -0.3353
 -- Virtual --
  0.0671   0.0681   0.0728   0.0844   0.0899   0.1096   0.1158   0.1182
  0.1410   0.1594   0.1706   0.1756   0.1892   0.1946   0.2004   0.2075
  0.2279   0.2308   0.2397   0.2456   0.2555   0.2630   0.2653   0.2756
  0.2863   0.2878   0.2918   0.2965   0.2985   0.3052   0.3072   0.3173
  0.3231   0.3303   0.3364   0.3441   0.3557   0.3569   0.3704   0.3785
  0.3814   0.3873   0.3916   0.3935   0.3974   0.4046   0.4089   0.4114
  0.4186   0.4330   0.4354   0.4406   0.4456   0.4528   0.4568   0.4588
  0.4706   0.4753   0.4809   0.4868   0.4977   0.5024   0.5181   0.5202
  0.5238   0.5296   0.5382   0.5443   0.5493   0.5538   0.5573   0.5706
  0.5823   0.5906   0.5977   0.6008   0.6044   0.6258   0.6422   0.6470
  0.6697   0.6782   0.6850   0.6918   0.6970   0.7047   0.7240   0.7276
  0.7334   0.7351   0.7485   0.7619   0.7678   0.7713   0.7804   0.7896
  0.7967   0.7987   0.8042   0.8070   0.8121   0.8267   0.8314   0.8354
  0.8395   0.8420   0.8526   0.8571   0.8632   0.8762   0.8924   0.8986
  0.9183   0.9269   0.9372   0.9502   0.9583   1.0135   1.0336   1.0462
  1.0513   1.0645   1.0753   1.0797   1.0923   1.0970   1.1104   1.1456
  1.1679   1.1821   1.2618   1.2810   1.2996   1.3289   1.3550   1.3596
  1.3846   1.4437   1.4531   1.4662   1.4707   1.4867   1.5339   1.5449
  1.6071   1.6114   1.6235   1.6314   1.6653   1.6860   1.7427   1.7849
  1.7954   1.8019   1.8069   1.8225   1.8358   1.8685   1.8897   1.9174
  1.9230   1.9302   1.9454   1.9736   1.9946   1.9986   2.0168   2.0305
  2.0396   2.0529   2.0749   2.0978   2.1174   2.1283   2.1779   2.1845
  2.2046   2.2413   2.2507   2.2769   2.2939   2.3174   2.3931   2.4020
  2.4149   2.4200   2.4835   2.5185   2.5427   2.5593   2.5704   2.6129
  2.6175   2.6426   2.6750   2.6772   2.7032   2.7206   2.7664   2.7833
  2.7891   2.8175   2.8226   2.8544   2.8690   2.9045   2.9154   2.9238
  2.9420   2.9453   2.9793   2.9829   3.0009   3.0201   3.0244   3.0551
  3.0664   3.0935   3.1081   3.1337   3.1847   3.1933   3.2074   3.2228
  3.2366   3.2496   3.2941   3.2952   3.3445   3.3657   3.3665   3.3857
  3.4080   3.4466   3.4499   3.4530   3.4675   3.4720   3.4913   3.5076
  3.5140   3.5409   3.5466   3.5506   3.5645   3.5822   3.5903   3.6104
  3.6275   3.6364   3.6636   3.6984   3.7209   3.7589   3.7818   3.8106
  3.8616   3.9023   3.9242   3.9596   3.9703   4.0015   4.0427   4.0591
  4.1297   4.2095   4.2758   4.2858   4.2964   4.3174   4.3337   4.3481
  4.3585   4.3819   4.3895   4.4077   4.4354   4.4603   4.4932   4.5457
  4.6068   4.6279   4.7593   4.7865   4.8325   4.8847   4.9133   4.9518
  5.0328   5.0516   5.1785   5.2682   5.3805   5.3958   5.5087   5.5359
  5.6796   5.8551  22.5856  22.6792  22.9023  22.9069  23.0260  23.0906
 23.4416
 --------------------------------------------------------------
 
          Ground-State Mulliken Net Atomic Charges

     Atom                 Charge (a.u.)
  ----------------------------------------
      1 C                    -1.071697
      2 C                    -0.555092
      3 C                    -0.558696
      4 C                    -0.554608
      5 C                    -0.348441
      6 C                    -0.459198
      7 C                     0.812863
      8 H                     0.396489
      9 H                     0.375788
     10 H                     0.369996
     11 H                     0.398433
     12 H                     0.374526
     13 H                     0.300140
     14 H                     0.270525
     15 H                     0.248972
  ----------------------------------------
  Sum of atomic charges =     0.000000

 -----------------------------------------------------------------
                    Cartesian Multipole Moments
 -----------------------------------------------------------------
    Charge (ESU x 10^10)
                 0.0000
    Dipole Moment (Debye)
         X       0.0795      Y      -0.5293      Z      -0.0130
       Tot       0.5354
    Quadrupole Moments (Debye-Ang)
        XX     -41.1918     XY      -0.4185     YY     -35.1563
        XZ      -4.4040     YZ       0.2459     ZZ     -42.8167
    Octopole Moments (Debye-Ang^2)
       XXX      36.8822    XXY      87.8897    XYY      11.7968
       YYY     239.5148    XXZ      47.2006    XYZ       6.9075
       YYZ      39.0461    XZZ      22.4708    YZZ      90.0650
       ZZZ     136.5306
    Hexadecapole Moments (Debye-Ang^3)
      XXXX    -243.4731   XXXY     -45.7848   XXYY    -322.4948
      XYYY     -40.8859   YYYY   -1646.0110   XXXZ      10.8058
      XXYZ    -101.6057   XYYZ      -6.9325   YYYZ    -276.3937
      XXZZ    -110.6185   XYZZ     -32.6787   YYZZ    -359.4148
      XZZZ       1.3587   YZZZ    -298.0126   ZZZZ    -458.9168
 -----------------------------------------------------------------
Archival summary:
1\1\nid00537\SP\ProcedureUnspecified\BasisUnspecified\78\meili\SunSep2622:41:332021SunSep2622:41:332021\0\\#,ProcedureUnspecified,BasisUnspecified,\\0,1\C\C,1,1.38766\H,2,1.08169,1,119.643\C,2,1.38879,1,121.317,3,-179.87,0\H,4,1.07828,2,120.396,1,-179.859,0\C,4,1.38734,2,119.767,1,-0.105746,0\H,6,1.08148,4,120.245,2,179.125,0\C,6,1.39122,4,119.463,2,-1.81209,0\H,8,1.08189,6,119.703,4,-179.017,0\C,1,1.39175,2,118.859,3,-178.823,0\H,10,1.08245,1,120.145,2,179.058,0\C,1,1.50369,2,119.971,3,-0.394712,0\H,12,1.09097,1,107.344,2,45.6632,0\H,12,1.09137,1,109.317,2,162.092,0\H,12,1.1,1,113.909,2,-75.3334,0\\\@

 Total job time:  28559.84s(wall), 56581.83s(cpu) 
 Sun Sep 26 22:41:35 2021

        *************************************************************
        *                                                           *
        *  Thank you very much for using Q-Chem.  Have a nice day.  *
        *                                                           *
        *************************************************************


Done Job For Fragment 1
calling putenv with: QCSCRATCH=/global/cscratch1/sd/meili 
calling putenv with: QCLOCALSCR=/tmp 
calling putenv with: QCTHREADS=32 
Doing General SCFMI
 Exchange:     0.1670 Hartree-Fock + 1.0000 wB97X-V + LR-HF
 Correlation:  1.0000 wB97X-V
 Using Euler-Maclaurin-Lebedev (99,590) quadrature formula
 Nonlocal Correlation:  VV10 with C = 0.0100 and b = 6.00 and scale = 1.00000
 Grid used for NLC:  SG-1 standard quadrature
performing fock build before subrot guess so that all methods have access
Printing subrot_rss_gen Method Specification:
Occupied Subspace Method is 0
Virtual Subspace Method is 0
Energy of the unrelaxed supersystem initial determinant -539.431901245411
performing fock build before subrot guess so that all methods have access
Printing subrot_rss_gen Method Specification:
Occupied Subspace Method is 0
Virtual Subspace Method is 0
Energy of the unrelaxed supersystem initial determinant w/ solvent -539.568265365592
write pseudocanon occs and virts to disk
write pseudocanon orbital energies to disk
Tolerance of ortho_decomp_scf: 1.00e-06
GDM subspace size: 20
Beginning the Orthogonal Decomposition of the Initial Supersystem Wavefunction
    1    -539.4157569123      1.93e-02     ortho_decomp Preconditoned Steepest Descent
    2    -539.4170756974      5.13e-04     ortho_decomp BFGS Step
    3    -539.4170802459      3.68e-05     ortho_decomp BFGS Step
    4    -539.4170802527      1.45e-06     ortho_decomp BFGS Step
    5    -539.4170802527      4.63e-08     ortho_decomp 00000 Convergence criterion met
 Hartree-Fock
 Hartree-Fock
 Hartree-Fock
Doing General SCFMI
 Exchange:     0.1670 Hartree-Fock + 1.0000 wB97X-V + LR-HF
 Correlation:  1.0000 wB97X-V
 Using Euler-Maclaurin-Lebedev (99,590) quadrature formula
 Nonlocal Correlation:  VV10 with C = 0.0100 and b = 6.00 and scale = 1.00000
 Grid used for NLC:  SG-1 standard quadrature
performing fock build at end of subrot_r(subrot) constructor so that all methods have access
<S^2> of initial wavefunction before polarization iterations 0.0000000000
Beginning iterations for the determination of the polarized wavefunction
Energy prior to optimization (guess energy) = -539.568265365593
Begin Timing: Total SCF Calculation
begin iterations for algorithm: DIIS         
the SCF tolerance is set to 1.00e-08
    1    -539.5682653656      3.69e-05     00000 
    2    -539.5683691004      1.64e-05     00000 
    3    -539.5683815388      8.58e-06     00000 
    4    -539.5683855989      2.93e-06     00000 
    5    -539.5683860495      1.56e-06     00000 
    6    -539.5683862127      5.79e-07     00000 
    7    -539.5683862350      2.40e-07     00000 
    8    -539.5683862392      9.07e-08     00000 
    9    -539.5683862396      4.57e-08     00000 
   10    -539.5683862396      2.14e-08     00000 
   11    -539.5683862397      9.63e-09     00000 Convergence criterion met
write pseudocanon occs and virts to disk
write pseudocanon orbital energies to disk
Timing for Total SCF: 4562.00s (wall), 9083.97s (cpu)
<S^2> of polarized wavefunction after polarization iterations 0.0000000000
relaxing scfmi constraint to allow all rotations in the entire AO span
Doing General SCFMI
 Exchange:     0.1670 Hartree-Fock + 1.0000 wB97X-V + LR-HF
 Correlation:  1.0000 wB97X-V
 Using Euler-Maclaurin-Lebedev (99,590) quadrature formula
 Nonlocal Correlation:  VV10 with C = 0.0100 and b = 6.00 and scale = 1.00000
 Grid used for NLC:  SG-1 standard quadrature
performing fock build at end of subrot_r(subrot) constructor so that all methods have access
<S^2> of polarized wavefunction before ct-allowed iterations 0.0000000000
Beginning iterations for the determination of the CT-Allowed wavefunction
Energy prior to optimization (guess energy) = -539.568386239658
Begin Timing: Total SCF Calculation
begin iterations for algorithm: DIIS         
the SCF tolerance is set to 1.00e-08
    1    -539.5683862397      6.52e-05     00000 
    2    -539.5689735274      6.26e-06     00000 
    3    -539.5689905538      1.15e-06     00000 
    4    -539.5689911263      8.44e-07     00000 
    5    -539.5689912107      1.71e-07     00000 
    6    -539.5689912188      8.44e-08     00000 
    7    -539.5689912201      2.14e-08     00000 
    8    -539.5689912202      1.09e-08     00000 
    9    -539.5689912202      1.64e-09     00000 Convergence criterion met
write pseudocanon occs and virts to disk
write pseudocanon orbital energies to disk
Timing for Total SCF: 3538.00s (wall), 7045.22s (cpu)
<S^2> of ct_allowed wavefunction after ct-allowed iterations 0.0000000000

================================
        Results of EDA2         
================================
Basic EDA Quantities
--------------------
Fragment Energies (Ha):
1 -267.9747690669
2 -271.5805747745
--------------------
  E_prp (kJ/mol) = 0.0000
  E_sol (kJ/mol) = 3.4866
  E_frz (kJ/mol) = -9.4381
  E_pol (kJ/mol) = -0.3174
  E_vct (kJ/mol) = -1.5884
  E_int (kJ/mol) = -7.8572
--------------------


Initial Wavefunction Decomposition
--------------------
  --------------------
  Orthogonal Fragment Subspace Decomposition:
  --------------------
     E_elec   (ELEC)   (kJ/mol) = -19.7480
     E_pauli  (PAULI)  (kJ/mol) = 22.7410
     E_disp   (DISP)   (kJ/mol) = -12.4311
     --------------------
     Terms summing to E_pauli:
     --------------------
        E_kep_pauli       (kJ/mol) = 29.4749
        E_disp_free_pauli (kJ/mol) = -6.7339
  --------------------
  Classical Frozen Decomposition:
  --------------------
     E_cls_elec  (CLS ELEC)  (kJ/mol) = -9.2107
     E_cls_pauli (CLS PAULI) (kJ/mol) = -0.2273
    [E_mod_pauli (MOD PAULI) (kJ/mol) = 12.2037 (CLS PAULI - DISP from orthogonal decomposition) ]
  --------------------
--------------------

Simplified EDA Summary (kJ/mol)
--------------------
 PREPARATION     0.0000
 SOLVATION       3.4866
 FROZEN          2.9930      (does not include dispersion)
[PAULI           22.7410]     (if this is negligible, then frozen describes electrostatics)
 DISPERSION      -12.4311
 POLARIZATION    -0.3174
 CHARGE TRANSFER -1.5884
 TOTAL           -7.8572     (PRP + SOL + FRZ + DISP + POL + CT)
--------------------
 
 --------------------------------------------------------------
 
                    Orbital Energies (a.u.)
 --------------------------------------------------------------
 
 Alpha MOs
 -- Occupied --
-19.1528 -19.1526 -10.3512 -10.2747 -10.2664 -10.2651 -10.2635 -10.2625
-10.2612 -10.2528 -10.2510 -10.2466  -1.1653  -1.0639  -0.9929  -0.9014
 -0.8888  -0.8728  -0.8062  -0.7498  -0.7240  -0.6988  -0.6236  -0.6162
 -0.5677  -0.5632  -0.5606  -0.5578  -0.5312  -0.5283  -0.5217  -0.5108
 -0.5032  -0.4790  -0.4752  -0.4693  -0.4475  -0.4348  -0.4345  -0.4321
 -0.3646  -0.3541  -0.3448  -0.3435  -0.3331
 -- Virtual --
  0.0620   0.0673   0.0740   0.0750   0.0839   0.0892   0.0934   0.1027
  0.1122   0.1177   0.1184   0.1268   0.1346   0.1381   0.1457   0.1547
  0.1554   0.1586   0.1666   0.1720   0.1785   0.1826   0.1909   0.1960
  0.2047   0.2100   0.2124   0.2155   0.2236   0.2304   0.2321   0.2399
  0.2411   0.2462   0.2537   0.2572   0.2646   0.2650   0.2684   0.2737
  0.2775   0.2863   0.2875   0.2939   0.2989   0.3025   0.3040   0.3067
  0.3103   0.3133   0.3204   0.3289   0.3296   0.3340   0.3398   0.3481
  0.3533   0.3550   0.3559   0.3613   0.3645   0.3682   0.3734   0.3774
  0.3782   0.3838   0.3872   0.3884   0.3896   0.3903   0.3963   0.4003
  0.4020   0.4100   0.4112   0.4146   0.4162   0.4243   0.4267   0.4306
  0.4363   0.4374   0.4423   0.4461   0.4538   0.4590   0.4623   0.4670
  0.4683   0.4712   0.4751   0.4787   0.4851   0.4880   0.4947   0.4996
  0.5033   0.5041   0.5067   0.5090   0.5153   0.5218   0.5266   0.5295
  0.5313   0.5340   0.5367   0.5449   0.5489   0.5525   0.5575   0.5626
  0.5650   0.5673   0.5712   0.5756   0.5836   0.5881   0.6005   0.6050
  0.6061   0.6093   0.6208   0.6259   0.6304   0.6373   0.6411   0.6449
  0.6560   0.6652   0.6673   0.6756   0.6796   0.6851   0.6892   0.7011
  0.7038   0.7073   0.7107   0.7159   0.7174   0.7277   0.7348   0.7383
  0.7447   0.7476   0.7547   0.7565   0.7640   0.7716   0.7755   0.7812
  0.7837   0.7879   0.7919   0.7963   0.7968   0.7978   0.8038   0.8089
  0.8108   0.8171   0.8223   0.8279   0.8285   0.8314   0.8369   0.8423
  0.8436   0.8554   0.8616   0.8622   0.8686   0.8730   0.8772   0.8798
  0.8884   0.8959   0.9029   0.9039   0.9092   0.9225   0.9303   0.9306
  0.9370   0.9414   0.9514   0.9577   0.9672   0.9777   0.9861   0.9911
  1.0085   1.0170   1.0325   1.0424   1.0439   1.0507   1.0581   1.0750
  1.0930   1.0953   1.1002   1.1091   1.1182   1.1246   1.1322   1.1494
  1.1533   1.1605   1.1797   1.1888   1.2073   1.2189   1.2279   1.2308
  1.2656   1.2729   1.2942   1.3056   1.3141   1.3373   1.3568   1.3598
  1.3685   1.3738   1.3771   1.3908   1.4139   1.4262   1.4428   1.4581
  1.4697   1.4815   1.4874   1.4993   1.5053   1.5278   1.5381   1.5498
  1.5663   1.5716   1.6184   1.6231   1.6320   1.6433   1.6580   1.6720
  1.6773   1.7017   1.7713   1.7739   1.7912   1.8072   1.8095   1.8251
  1.8579   1.8648   1.8758   1.8974   1.9076   1.9161   1.9225   1.9348
  1.9431   1.9491   1.9515   1.9657   1.9722   1.9751   1.9894   1.9988
  2.0005   2.0125   2.0258   2.0354   2.0430   2.0526   2.0570   2.0651
  2.0671   2.0766   2.0838   2.1027   2.1103   2.1202   2.1606   2.1693
  2.1818   2.1903   2.2014   2.2130   2.2276   2.2471   2.2595   2.2618
  2.2766   2.2952   2.2999   2.3163   2.3199   2.3426   2.3621   2.3800
  2.4067   2.4140   2.4184   2.4438   2.4507   2.4777   2.4870   2.4938
  2.5224   2.5310   2.5449   2.5591   2.5780   2.5812   2.5923   2.6053
  2.6216   2.6312   2.6460   2.6592   2.6819   2.6873   2.6978   2.7098
  2.7184   2.7399   2.7561   2.7681   2.7794   2.7959   2.8074   2.8125
  2.8184   2.8351   2.8488   2.8673   2.8758   2.8843   2.9149   2.9174
  2.9344   2.9483   2.9516   2.9599   2.9800   2.9864   2.9961   3.0054
  3.0118   3.0178   3.0306   3.0551   3.0672   3.0754   3.0849   3.1104
  3.1138   3.1295   3.1381   3.1877   3.1906   3.1948   3.2180   3.2304
  3.2338   3.2453   3.2623   3.2734   3.2962   3.3026   3.3076   3.3201
  3.3367   3.3407   3.3575   3.3662   3.3785   3.3886   3.4007   3.4068
  3.4170   3.4244   3.4532   3.4620   3.4697   3.4725   3.4780   3.4857
  3.4994   3.5074   3.5111   3.5214   3.5281   3.5395   3.5584   3.5610
  3.5701   3.5737   3.5855   3.5922   3.5972   3.6029   3.6086   3.6224
  3.6339   3.6452   3.6524   3.6784   3.6850   3.7023   3.7053   3.7199
  3.7288   3.7385   3.7588   3.7674   3.7893   3.8016   3.8164   3.8210
  3.8487   3.8663   3.9108   3.9307   3.9601   3.9725   3.9782   4.0115
  4.0577   4.0747   4.0801   4.1287   4.1334   4.1410   4.2297   4.2340
  4.2491   4.2847   4.2935   4.3046   4.3101   4.3247   4.3481   4.3540
  4.3742   4.3888   4.4008   4.4151   4.4213   4.4478   4.4759   4.4994
  4.5521   4.5642   4.5980   4.6190   4.6359   4.6910   4.7569   4.7657
  4.7704   4.7928   4.8345   4.8428   4.8924   4.9092   4.9215   4.9786
  5.0431   5.0549   5.0682   5.1186   5.1882   5.2837   5.3067   5.3381
  5.3475   5.3580   5.3929   5.3966   5.4737   5.5125   5.5385   5.6940
  5.6968   5.7576   5.7953   5.8275   6.0085   6.2240   6.3283   6.3500
  6.6008   6.6213   6.7283   6.7553   6.7710   6.9566   6.9897   7.0415
  7.2371   7.3275   7.3781   7.4041  22.6286  22.6494  22.6858  22.8360
 22.9255  22.9587  23.0410  23.1050  23.4574  23.7741  44.3853  44.4626
 --------------------------------------------------------------
 
          Ground-State Mulliken Net Atomic Charges

     Atom                 Charge (a.u.)
  ----------------------------------------
      1 C                     0.349390
      2 C                    -1.095861
      3 C                     0.458377
      4 O                    -0.824960
      5 O                    -0.813755
      6 H                     0.205711
      7 H                    -0.019857
      8 H                     0.245661
      9 H                     0.253336
     10 H                     0.271880
     11 C                    -1.138832
     12 C                    -0.493590
     13 C                    -0.555307
     14 C                    -0.489983
     15 C                    -0.366321
     16 C                    -0.424090
     17 C                     0.563217
     18 H                     0.440758
     19 H                     0.389906
     20 H                     0.397861
     21 H                     0.415952
     22 H                     0.398647
     23 H                     0.297853
     24 H                     0.284848
     25 H                     0.249158
  ----------------------------------------
  Sum of atomic charges =    -1.000000

 -----------------------------------------------------------------
                    Cartesian Multipole Moments
 -----------------------------------------------------------------
    Charge (ESU x 10^10)
                -4.8032
    Dipole Moment (Debye)
         X       4.9752      Y     -16.7412      Z      -5.0186
       Tot      18.1716
    Quadrupole Moments (Debye-Ang)
        XX     -76.9566     XY      14.2047     YY    -122.3213
        XZ       2.5688     YZ     -13.7248     ZZ     -89.7514
    Octopole Moments (Debye-Ang^2)
       XXX      -4.4510    XXY      -8.0585    XYY      42.2115
       YYY    -199.3118    XXZ      -4.3068    XYZ      26.4024
       YYZ     -42.6602    XZZ      19.9378    YZZ     -34.3750
       ZZZ     -32.4877
    Hexadecapole Moments (Debye-Ang^3)
      XXXX    -582.0801   XXXY    -111.3477   XXYY    -653.2640
      XYYY      29.2702   YYYY   -3725.0873   XXXZ     -86.5043
      XXYZ    -230.2836   XYYZ      16.6462   YYYZ    -700.3894
      XXZZ    -279.6491   XYZZ     -21.5571   YYZZ    -802.5218
      XZZZ     -79.9410   YZZZ    -719.4429   ZZZZ   -1113.1654
 -----------------------------------------------------------------
Archival summary:
1\1\nid00537\SP\ProcedureUnspecified\BasisUnspecified\21013(1-,1)\meili\MonSep2703:06:152021MonSep2703:06:152021\0\\#,ProcedureUnspecified,BasisUnspecified,\\-1,1\O\C,1,1.25466\O,2,1.24886,1,122.08\C,2,1.52916,1,119.909,3,179.063,0\H,4,1.09037,2,108.721,1,74.7504,0\H,4,1.09205,2,109.852,1,-167.234,0\C,4,1.52723,2,112.383,1,-45.0885,0\H,7,1.09045,4,108.282,2,56.175,0\H,7,1.1,4,111.851,2,-64.1251,0\H,7,1.1,4,109.948,2,175.367,0\H,5,2.60356,4,107.929,2,38.969,0\C,11,1.08148,5,89.7083,4,165.549,0\C,12,1.38734,11,120.245,5,98.635,0\H,13,1.07828,12,119.836,11,-1.12021,0\C,13,1.38879,12,119.767,11,179.125,0\H,15,1.08169,13,119.04,12,-179.976,0\C,15,1.38766,13,121.317,12,-0.105746,0\C,12,1.39122,11,120.285,5,-80.4202,0\H,18,1.08189,12,119.703,11,0.0455919,0\C,17,1.39175,15,118.859,13,1.30709,0\H,20,1.08245,17,120.145,15,179.058,0\C,17,1.50369,15,119.971,13,179.735,0\H,22,1.09097,17,107.344,15,45.6632,0\H,22,1.09137,17,109.317,15,162.092,0\H,22,1.1,17,113.909,15,-75.3334,0\\\@

 Total job time:  54474.15s(wall), 31648.03s(cpu) 
 Mon Sep 27 03:06:16 2021

        *************************************************************
        *                                                           *
        *  Thank you very much for using Q-Chem.  Have a nice day.  *
        *                                                           *
        *************************************************************


