                  Welcome to Q-Chem
     A Quantum Leap Into The Future Of Chemistry


 Q-Chem 5.2 (devel), Q-Chem, Inc., Pleasanton, CA (2019)

 Yihan Shao,  Zhengting Gan,  E. Epifanovsky,  A. T. B. Gilbert,  M. Wormit,  
 J. Kussmann,  A. W. Lange,  A. Behn,  Jia Deng,  Xintian Feng,  D. Ghosh,  
 M. Goldey,  P. R. Horn,  L. D. Jacobson,  I. Kaliman,  T. Kus,  A. Landau,  
 Jie Liu,  E. I. Proynov,  R. M. Richard,  R. P. Steele,  E. J. Sundstrom,  
 H. L. Woodcock III,  P. M. Zimmerman,  D. Zuev,  B. Albrecht,  E. Alguire,  
 S. A. Baeppler,  D. Barton,  Z. Benda,  Y. A. Bernard,  E. J. Berquist,  
 K. B. Bravaya,  H. Burton,  D. Casanova,  Chun-Min Chang,  Yunqing Chen,  
 A. Chien,  K. D. Closser,  M. P. Coons,  S. Coriani,  S. Dasgupta,  
 A. L. Dempwolff,  M. Diedenhofen,  Hainam Do,  R. G. Edgar,  Po-Tung Fang,  
 S. Faraji,  S. Fatehi,  Qingguo Feng,  K. D. Fenk,  J. Fosso-Tande,  
 J. Gayvert,  Qinghui Ge,  A. Ghysels,  G. Gidofalvi,  J. Gomes,  
 J. Gonthier,  A. Gunina,  D. Hait,  M. W. D. Hanson-Heine,  
 P. H. P. Harbach,  A. W. Hauser,  M. F. Herbst,  J. E. Herr,  
 E. G. Hohenstein,  Z. C. Holden,  Kerwin Hui,  B. C. Huynh,  T.-C. Jagau,  
 Hyunjun Ji,  B. Kaduk,  K. Khistyaev,  Jaehoon Kim,  P. Klunzinger,  K. Koh,  
 D. Kosenkov,  L. Koulias,  T. Kowalczyk,  C. M. Krauter,  A. Kunitsa,  
 Ka Un Lao,  A. Laurent,  K. V. Lawler,  Joonho Lee,  D. Lefrancois,  
 S. Lehtola,  D. S. Levine,  Yi-Pei Li,  You-Sheng Lin,  Fenglai Liu,  
 E. Livshits,  A. Luenser,  P. Manohar,  E. Mansoor,  S. F. Manzer,  
 Shan-Ping Mao,  Yuezhi Mao,  N. Mardirossian,  A. V. Marenich,  
 T. Markovich,  L. A. Martinez-Martinez,  S. A. Maurer,  N. J. Mayhall,  
 S. C. McKenzie,  J.-M. Mewes,  P. Morgante,  A. F. Morrison,  
 J. W. Mullinax,  K. Nanda,  T. S. Nguyen-Beck,  R. Olivares-Amaya,  
 J. A. Parkhill,  Zheng Pei,  T. M. Perrine,  F. Plasser,  P. Pokhilko,  
 S. Prager,  A. Prociuk,  E. Ramos,  D. R. Rehn,  F. Rob,  M. Scheurer,  
 M. Schneider,  N. Sergueev,  S. M. Sharada,  S. Sharma,  D. W. Small,  
 T. Stauch,  T. Stein,  Yu-Chuan Su,  A. J. W. Thom,  A. Tkatchenko,  
 T. Tsuchimochi,  N. M. Tubman,  L. Vogt,  M. L. Vidal,  O. Vydrov,  
 M. A. Watson,  J. Wenzel,  M. de Wergifosse,  T. A. Wesolowski,  A. White,  
 J. Witte,  A. Yamada,  Jun Yang,  K. Yao,  S. Yeganeh,  S. R. Yost,  
 Zhi-Qiang You,  A. Zech,  Igor Ying Zhang,  Xing Zhang,  Yan Zhao,  
 Ying Zhu,  B. R. Brooks,  G. K. L. Chan,  C. J. Cramer,  M. S. Gordon,  
 W. J. Hehre,  A. Klamt,  M. W. Schmidt,  C. D. Sherrill,  D. G. Truhlar,  
 A. Aspuru-Guzik,  R. Baer,  A. T. Bell,  N. A. Besley,  Jeng-Da Chai,  
 A. E. DePrince, III,  R. A. DiStasio Jr.,  A. Dreuw,  B. D. Dunietz,  
 T. R. Furlani,  Chao-Ping Hsu,  Yousung Jung,  Jing Kong,  D. S. Lambrecht,  
 WanZhen Liang,  C. Ochsenfeld,  V. A. Rassolov,  L. V. Slipchenko,  
 J. E. Subotnik,  T. Van Voorhis,  J. M. Herbert,  A. I. Krylov,  
 P. M. W. Gill,  M. Head-Gordon

 Contributors to earlier versions of Q-Chem not listed above: 
 R. D. Adamson,  B. Austin,  J. Baker,  G. J. O. Beran,  K. Brandhorst,  
 S. T. Brown,  E. F. C. Byrd,  A. K. Chakraborty,  C.-L. Cheng,  
 Siu Hung Chien,  D. M. Chipman,  D. L. Crittenden,  H. Dachsel,  
 R. J. Doerksen,  A. D. Dutoi,  L. Fusti-Molnar,  W. A. Goddard III,  
 A. Golubeva-Zadorozhnaya,  S. R. Gwaltney,  G. Hawkins,  A. Heyden,  
 S. Hirata,  G. Kedziora,  F. J. Keil,  C. Kelley,  Jihan Kim,  R. A. King,  
 R. Z. Khaliullin,  P. P. Korambath,  W. Kurlancheek,  A. M. Lee,  M. S. Lee,  
 S. V. Levchenko,  Ching Yeh Lin,  D. Liotard,  R. C. Lochan,  I. Lotan,  
 P. E. Maslen,  N. Nair,  D. P. O'Neill,  D. Neuhauser,  E. Neuscamman,  
 C. M. Oana,  R. Olson,  B. Peters,  R. Peverati,  P. A. Pieniazek,  
 Y. M. Rhee,  J. Ritchie,  M. A. Rohrdanz,  E. Rosta,  N. J. Russ,  
 H. F. Schaefer III,  N. E. Schultz,  N. Shenvi,  A. C. Simmonett,  A. Sodt,  
 D. Stuck,  K. S. Thanthiriwatte,  V. Vanovschi,  Tao Wang,  A. Warshel,  
 C. F. Williams,  Q. Wu,  X. Xu,  W. Zhang

 Please cite Q-Chem as follows:
 Y. Shao et al., Mol. Phys. 113, 184-215 (2015)
 DOI: 10.1080/00268976.2014.952696

 Q-Chem 5.2.1 for Intel X86 EM64T Linux

 Parts of Q-Chem use Armadillo 8.300.2 (Tropical Shenanigans).
 http://arma.sourceforge.net/

 Q-Chem begins on Wed Sep 29 01:04:47 2021  

compute-0-8.local
Host: 0

     Scratch files written to /home/meili/scratch/qchem60769//
NAlpha2: 120
NElect   120
Mult     1
Symmetry turned off for PCM/SM12/SMD calculation

 Q-Chem warning in module libgen/rem_setup.C, line 2813:

 Neither GIA nor STOLL is specified by user. Use STOLL as the default


Checking the input file for inconsistencies... 	...done.

--------------------------------------------------------------
User input:
--------------------------------------------------------------
$comment
SSI-036PHE-303TRP-1.pdb
$end

$molecule
0 1
--
0 1
C   -4.408551866571    1.390398315894   -4.953756565493
C   -2.429551866571    0.124398315894   -1.372756565493
C   -2.394551866571    1.460398315894   -1.749756565493
C   -3.105551866571   -0.797601684106   -2.158756565493
C   -3.036551866571    1.870398315894   -2.911756565493
C   -3.747551866571   -0.385601684106   -3.317756565493
C   -3.710551866571    0.947398315894   -3.705756565493
H   -1.930551866571   -0.199601684106   -0.469756565493
H   -1.869551866571    2.181398315894   -1.136756565493
H   -3.120551866571   -1.839601684106   -1.880756565493
H   -3.005551866571    2.912398315894   -3.198756565493
H   -4.281551866571   -1.106601684106   -3.916756565493
H   -4.645551866571    2.453398315894   -4.871756565493
H   -5.355551866571    0.854398315894   -5.008756565493
H   -3.846151866571    1.218948315894   -5.883436565493
--
0 1
C    3.266448133429   -2.916601684106    3.404243434507
C    2.310448133429   -0.927601684106    2.017243434507
C    3.025448133429   -1.472601684106    3.133243434507
C    2.328448133429    0.483398315894    2.150243434507
C    3.443448133429   -0.412601684106    3.873243434507
C    1.038448133429   -0.651601684106   -0.000756565493
C    1.073448133429    0.741398315894    0.155243434507
C    1.651448133429   -1.492601684106    0.922243434507
C    1.717448133429    1.324398315894    1.231243434507
N    3.027448133429    0.762398315894    3.293243434507
H    0.505448133429   -1.075601684106   -0.841756565493
H    0.571448133429    1.364398315894   -0.572756565493
H    1.584448133429   -2.566601684106    0.823243434507
H    1.736448133429    2.398398315894    1.358243434507
H    2.342448133429   -3.454601684106    3.190243434507
H    3.489448133429   -3.057601684106    4.464243434507
H    4.006448133429   -0.494601684106    4.795243434507
H    3.147448133429    1.676398315894    3.714243434507
H    4.063515133429   -3.349011684106    2.781583434507
$end

$rem
JOBTYPE			EDA
EDA2			1
method			wB97X-V
BASIS			def2-TZVPD
XC_GRID			000099000590
NL_GRID			1
UNRESTRICTED		FALSE
MAX_SCF_CYCLES		200
SYMMETRY		FALSE
SYM_IGNORE		TRUE
MEM_STATIC		2000
BASIS_LIN_DEP_THRESH 	6
THRESH 			14
SCF_CONVERGENCE 	8
SCF_PRINT_FRGM 		TRUE
SOLVENT_METHOD          SMD
$end

$SMX
SOLVENT			WATER
$END
--------------------------------------------------------------
 ----------------------------------------------------------------
             Standard Nuclear Orientation (Angstroms)
    I     Atom           X                Y                Z
 ----------------------------------------------------------------
    1      C      -4.4085518666     1.3903983159    -4.9537565655
    2      C      -2.4295518666     0.1243983159    -1.3727565655
    3      C      -2.3945518666     1.4603983159    -1.7497565655
    4      C      -3.1055518666    -0.7976016841    -2.1587565655
    5      C      -3.0365518666     1.8703983159    -2.9117565655
    6      C      -3.7475518666    -0.3856016841    -3.3177565655
    7      C      -3.7105518666     0.9473983159    -3.7057565655
    8      H      -1.9305518666    -0.1996016841    -0.4697565655
    9      H      -1.8695518666     2.1813983159    -1.1367565655
   10      H      -3.1205518666    -1.8396016841    -1.8807565655
   11      H      -3.0055518666     2.9123983159    -3.1987565655
   12      H      -4.2815518666    -1.1066016841    -3.9167565655
   13      H      -4.6455518666     2.4533983159    -4.8717565655
   14      H      -5.3555518666     0.8543983159    -5.0087565655
   15      H      -3.8461518666     1.2189483159    -5.8834365655
   16      C       3.2664481334    -2.9166016841     3.4042434345
   17      C       2.3104481334    -0.9276016841     2.0172434345
   18      C       3.0254481334    -1.4726016841     3.1332434345
   19      C       2.3284481334     0.4833983159     2.1502434345
   20      C       3.4434481334    -0.4126016841     3.8732434345
   21      C       1.0384481334    -0.6516016841    -0.0007565655
   22      C       1.0734481334     0.7413983159     0.1552434345
   23      C       1.6514481334    -1.4926016841     0.9222434345
   24      C       1.7174481334     1.3243983159     1.2312434345
   25      N       3.0274481334     0.7623983159     3.2932434345
   26      H       0.5054481334    -1.0756016841    -0.8417565655
   27      H       0.5714481334     1.3643983159    -0.5727565655
   28      H       1.5844481334    -2.5666016841     0.8232434345
   29      H       1.7364481334     2.3983983159     1.3582434345
   30      H       2.3424481334    -3.4546016841     3.1902434345
   31      H       3.4894481334    -3.0576016841     4.4642434345
   32      H       4.0064481334    -0.4946016841     4.7952434345
   33      H       3.1474481334     1.6763983159     3.7142434345
   34      H       4.0635151334    -3.3490116841     2.7815834345
 ----------------------------------------------------------------
 Nuclear Repulsion Energy =        1014.18849076 hartrees
 There are       60 alpha and       60 beta electrons
 Requested basis set is def2-TZVPD
 There are 306 shells and 782 basis functions

 Total QAlloc Memory Limit   2000 MB
 Mega-Array Size      1956 MB
 MEM_STATIC part      2000 MB

 Citation of the SMD model:
 Marenich, A.V.; Cramer, C.J.; Truhlar, D.G.
 J. Phys. Chem. B 2009, 113, 6378-6396.
 iSolventCode=           1
 Solvent: water                                                           

 vradii
            1           2           3           4           5           6
    1   1.8500000   1.8500000   1.8500000   1.8500000   1.8500000   1.8500000
            7           8           9          10          11          12
    1   1.8500000   1.2000000   1.2000000   1.2000000   1.2000000   1.2000000
           13          14          15          16          17          18
    1   1.2000000   1.2000000   1.2000000   1.8500000   1.8500000   1.8500000
           19          20          21          22          23          24
    1   1.8500000   1.8500000   1.8500000   1.8500000   1.8500000   1.8500000
           25          26          27          28          29          30
    1   1.8900000   1.2000000   1.2000000   1.2000000   1.2000000   1.2000000
           31          32          33          34
    1   1.2000000   1.2000000   1.2000000   1.2000000
 Changing PCM_VDW_RADII to SMD_RADIUS
 Discretize the solute cavity surface with Lebedev spheres
	Using 110 Lebedev grid points for each H atom
	Using 194 Lebedev grid points for other atoms
	Atomic van der Waals radii will be scaled by 1.20
 Remove points where switching function is < 1.0e-08
 Keep 2438 surface tesserae and discard 2730 interior tesserae
 Molecular Surface Area = 295.921 Angst**2
 A cutoff of  1.0D-14 yielded  35362 shell pairs
 There are    230032 function pairs (    291319 Cartesian)
 Smallest overlap matrix eigenvalue = 4.50E-07
 Linear dependence detected in AO basis
 Tighter screening thresholds may be required for diffuse basis sets
 Use S2THRESH > 14 and THRESH = 14 in case of SCF convergence issues
 Number of orthogonalized atomic orbitals = 776
 Maximum deviation from orthogonality = 1.960E-10

 Scale SEOQF with 1.000000e-02/1.000000e-01/1.000000e-02

 Standard Electronic Orientation quadrupole field applied
 Nucleus-field energy     =     0.0000000103 hartrees

 -----------------------------------------------------------------------
  General SCF calculation program by
  Eric Jon Sundstrom, Paul Horn, Yuezhi Mao, Dmitri Zuev, Alec White,
  David Stuck, Shaama M.S., Shane Yost, Joonho Lee, David Small,
  Daniel Levine, Susi Lehtola, Hugh Burton, Evgeny Epifanovsky,
  Bang C. Huynh
 -----------------------------------------------------------------------
================================================================
                 ALMO-EDA with the EDA2 driver                  
================================================================
 The second-generation ALMO-EDA (for DFT):                      
 P. R. Horn, Y. Mao and M. Head-Gordon, PCCP, 18, 23067 (2016)  
 Decomposition of the frozen energy:                            
 P. R. Horn, Y. Mao and M. Head-Gordon, JCP, 144, 114107 (2016) 
 FERF model for polarization:                                   
 P. R. Horn and M. Head-Gordon, JCP, 143, 114111 (2015)         
Using eda2 option set 1
Option set summary: Frozen orbital wavefunction, initial wavefunction decomposition, and nDQ polarization.
--------------------------------
Printing EDA Options
--------------------------------
eda_child_super_basis      0
fragmo_guess_mode          0
child_mp                   1
child_mp_orders            232
cls_elec                   1
cls_disp                   0
scfmi_mode                 1
scfmi_occs                 0
scfmi_virts                0
frz_relax                  0
frz_relax_method           0
dc_pen_start               0
dc_pen_conv                0
dc_pen_increment           0
dc_pen_steps               0
dc_pen_thresh_factor       0
dc_pen_pre_newton_thresh   0
frz_ortho_decomp           1
frz_ortho_decomp_conv      6
frgm_method                2
scfmi_freeze_ss            0
separate_rehyb             0
plot_diff_den              0
eda_nocv                   0
eda_vct_relax              1
disp_free_x                0
disp_free_c                0
eda_bsse                   0
eda_pct_a                  0
eda_covp                   0
--------------------------------
Attempting to make child job directory: /home/meili/scratch/qchem60769//Frg1/
Attempting to make child job directory: /home/meili/scratch/qchem60769//Frg2/
Creating input file /home/meili/scratch/qchem60769/Frg1.input
using default PutDataFrgm: nothing
calling putenv with: QCSCRATCH=/home/meili/scratch/qchem60769/ 
Spawning Job For Fragment 0
                  Welcome to Q-Chem
     A Quantum Leap Into The Future Of Chemistry


 Q-Chem 5.2 (devel), Q-Chem, Inc., Pleasanton, CA (2019)

 Yihan Shao,  Zhengting Gan,  E. Epifanovsky,  A. T. B. Gilbert,  M. Wormit,  
 J. Kussmann,  A. W. Lange,  A. Behn,  Jia Deng,  Xintian Feng,  D. Ghosh,  
 M. Goldey,  P. R. Horn,  L. D. Jacobson,  I. Kaliman,  T. Kus,  A. Landau,  
 Jie Liu,  E. I. Proynov,  R. M. Richard,  R. P. Steele,  E. J. Sundstrom,  
 H. L. Woodcock III,  P. M. Zimmerman,  D. Zuev,  B. Albrecht,  E. Alguire,  
 S. A. Baeppler,  D. Barton,  Z. Benda,  Y. A. Bernard,  E. J. Berquist,  
 K. B. Bravaya,  H. Burton,  D. Casanova,  Chun-Min Chang,  Yunqing Chen,  
 A. Chien,  K. D. Closser,  M. P. Coons,  S. Coriani,  S. Dasgupta,  
 A. L. Dempwolff,  M. Diedenhofen,  Hainam Do,  R. G. Edgar,  Po-Tung Fang,  
 S. Faraji,  S. Fatehi,  Qingguo Feng,  K. D. Fenk,  J. Fosso-Tande,  
 J. Gayvert,  Qinghui Ge,  A. Ghysels,  G. Gidofalvi,  J. Gomes,  
 J. Gonthier,  A. Gunina,  D. Hait,  M. W. D. Hanson-Heine,  
 P. H. P. Harbach,  A. W. Hauser,  M. F. Herbst,  J. E. Herr,  
 E. G. Hohenstein,  Z. C. Holden,  Kerwin Hui,  B. C. Huynh,  T.-C. Jagau,  
 Hyunjun Ji,  B. Kaduk,  K. Khistyaev,  Jaehoon Kim,  P. Klunzinger,  K. Koh,  
 D. Kosenkov,  L. Koulias,  T. Kowalczyk,  C. M. Krauter,  A. Kunitsa,  
 Ka Un Lao,  A. Laurent,  K. V. Lawler,  Joonho Lee,  D. Lefrancois,  
 S. Lehtola,  D. S. Levine,  Yi-Pei Li,  You-Sheng Lin,  Fenglai Liu,  
 E. Livshits,  A. Luenser,  P. Manohar,  E. Mansoor,  S. F. Manzer,  
 Shan-Ping Mao,  Yuezhi Mao,  N. Mardirossian,  A. V. Marenich,  
 T. Markovich,  L. A. Martinez-Martinez,  S. A. Maurer,  N. J. Mayhall,  
 S. C. McKenzie,  J.-M. Mewes,  P. Morgante,  A. F. Morrison,  
 J. W. Mullinax,  K. Nanda,  T. S. Nguyen-Beck,  R. Olivares-Amaya,  
 J. A. Parkhill,  Zheng Pei,  T. M. Perrine,  F. Plasser,  P. Pokhilko,  
 S. Prager,  A. Prociuk,  E. Ramos,  D. R. Rehn,  F. Rob,  M. Scheurer,  
 M. Schneider,  N. Sergueev,  S. M. Sharada,  S. Sharma,  D. W. Small,  
 T. Stauch,  T. Stein,  Yu-Chuan Su,  A. J. W. Thom,  A. Tkatchenko,  
 T. Tsuchimochi,  N. M. Tubman,  L. Vogt,  M. L. Vidal,  O. Vydrov,  
 M. A. Watson,  J. Wenzel,  M. de Wergifosse,  T. A. Wesolowski,  A. White,  
 J. Witte,  A. Yamada,  Jun Yang,  K. Yao,  S. Yeganeh,  S. R. Yost,  
 Zhi-Qiang You,  A. Zech,  Igor Ying Zhang,  Xing Zhang,  Yan Zhao,  
 Ying Zhu,  B. R. Brooks,  G. K. L. Chan,  C. J. Cramer,  M. S. Gordon,  
 W. J. Hehre,  A. Klamt,  M. W. Schmidt,  C. D. Sherrill,  D. G. Truhlar,  
 A. Aspuru-Guzik,  R. Baer,  A. T. Bell,  N. A. Besley,  Jeng-Da Chai,  
 A. E. DePrince, III,  R. A. DiStasio Jr.,  A. Dreuw,  B. D. Dunietz,  
 T. R. Furlani,  Chao-Ping Hsu,  Yousung Jung,  Jing Kong,  D. S. Lambrecht,  
 WanZhen Liang,  C. Ochsenfeld,  V. A. Rassolov,  L. V. Slipchenko,  
 J. E. Subotnik,  T. Van Voorhis,  J. M. Herbert,  A. I. Krylov,  
 P. M. W. Gill,  M. Head-Gordon

 Contributors to earlier versions of Q-Chem not listed above: 
 R. D. Adamson,  B. Austin,  J. Baker,  G. J. O. Beran,  K. Brandhorst,  
 S. T. Brown,  E. F. C. Byrd,  A. K. Chakraborty,  C.-L. Cheng,  
 Siu Hung Chien,  D. M. Chipman,  D. L. Crittenden,  H. Dachsel,  
 R. J. Doerksen,  A. D. Dutoi,  L. Fusti-Molnar,  W. A. Goddard III,  
 A. Golubeva-Zadorozhnaya,  S. R. Gwaltney,  G. Hawkins,  A. Heyden,  
 S. Hirata,  G. Kedziora,  F. J. Keil,  C. Kelley,  Jihan Kim,  R. A. King,  
 R. Z. Khaliullin,  P. P. Korambath,  W. Kurlancheek,  A. M. Lee,  M. S. Lee,  
 S. V. Levchenko,  Ching Yeh Lin,  D. Liotard,  R. C. Lochan,  I. Lotan,  
 P. E. Maslen,  N. Nair,  D. P. O'Neill,  D. Neuhauser,  E. Neuscamman,  
 C. M. Oana,  R. Olson,  B. Peters,  R. Peverati,  P. A. Pieniazek,  
 Y. M. Rhee,  J. Ritchie,  M. A. Rohrdanz,  E. Rosta,  N. J. Russ,  
 H. F. Schaefer III,  N. E. Schultz,  N. Shenvi,  A. C. Simmonett,  A. Sodt,  
 D. Stuck,  K. S. Thanthiriwatte,  V. Vanovschi,  Tao Wang,  A. Warshel,  
 C. F. Williams,  Q. Wu,  X. Xu,  W. Zhang

 Please cite Q-Chem as follows:
 Y. Shao et al., Mol. Phys. 113, 184-215 (2015)
 DOI: 10.1080/00268976.2014.952696

 Q-Chem 5.2.1 for Intel X86 EM64T Linux

 Parts of Q-Chem use Armadillo 8.300.2 (Tropical Shenanigans).
 http://arma.sourceforge.net/

 Q-Chem begins on Wed Sep 29 01:04:56 2021  

compute-0-8.local
Host: 0

     Scratch files written to /home/meili/scratch/qchem60769//Frg1//
NAlpha2: 50
NElect   50
Mult     1
Symmetry turned off for PCM/SM12/SMD calculation

Checking the input file for inconsistencies... 	...done.

--------------------------------------------------------------
User input:
--------------------------------------------------------------
$molecule
0 1
 6	-4.4085518666	1.3903983159	-4.9537565655
 6	-2.4295518666	0.1243983159	-1.3727565655
 6	-2.3945518666	1.4603983159	-1.7497565655
 6	-3.1055518666	-0.7976016841	-2.1587565655
 6	-3.0365518666	1.8703983159	-2.9117565655
 6	-3.7475518666	-0.3856016841	-3.3177565655
 6	-3.7105518666	0.9473983159	-3.7057565655
 1	-1.9305518666	-0.1996016841	-0.4697565655
 1	-1.8695518666	2.1813983159	-1.1367565655
 1	-3.1205518666	-1.8396016841	-1.8807565655
 1	-3.0055518666	2.9123983159	-3.1987565655
 1	-4.2815518666	-1.1066016841	-3.9167565655
 1	-4.6455518666	2.4533983159	-4.8717565655
 1	-5.3555518666	0.8543983159	-5.0087565655
 1	-3.8461518666	1.2189483159	-5.8834365655
$end
$rem
EDA2		1
METHOD		WB97X-V
BASIS		DEF2-TZVPD
XC_GRID		000099000590
NL_GRID		1
UNRESTRICTED		FALSE
MAX_SCF_CYCLES		200
SYMMETRY		FALSE
SYM_IGNORE		TRUE
BASIS_LIN_DEP_THRESH		6
THRESH		14
SCF_CONVERGENCE		8
SCF_PRINT_FRGM		TRUE
SOLVENT_METHOD		SMD
!required keywords
JOBTYPE		SP
SYM_IGNORE		TRUE
SUBSYSTEM		TRUE
GEN_SCFMAN		TRUE
CHILD_INSTRUCTION		2
SYM_IGNORE		TRUE
SCFMI		0
RI_K 0		
PARI_K 0		
MIN_PARI_K 0		
IARI_K 0		
OCC_RI_K 0		
PURECART		1111
MEM_STATIC		2000
MEM_TOTAL		2000
GUI		0
CHILD_MP		1
CHILD_MP_ORDERS		232
FRZ_RELAX		0
FRZ_RELAX_METHOD		0
EDA_CLS_ELEC		1
EDA_CLS_DISP		0
FRZ_ORTHO_DECOMP		1
EDA2		FALSE
FRGM_METHOD		FALSE
CIS_N_ROOTS  0
LOCAL_CIS    0
CIS_RLX_DNS  1
$end
$smx
SOLVENT			WATER
$end
--------------------------------------------------------------
 ----------------------------------------------------------------
             Standard Nuclear Orientation (Angstroms)
    I     Atom           X                Y                Z
 ----------------------------------------------------------------
    1      C      -4.4085518666     1.3903983159    -4.9537565655
    2      C      -2.4295518666     0.1243983159    -1.3727565655
    3      C      -2.3945518666     1.4603983159    -1.7497565655
    4      C      -3.1055518666    -0.7976016841    -2.1587565655
    5      C      -3.0365518666     1.8703983159    -2.9117565655
    6      C      -3.7475518666    -0.3856016841    -3.3177565655
    7      C      -3.7105518666     0.9473983159    -3.7057565655
    8      H      -1.9305518666    -0.1996016841    -0.4697565655
    9      H      -1.8695518666     2.1813983159    -1.1367565655
   10      H      -3.1205518666    -1.8396016841    -1.8807565655
   11      H      -3.0055518666     2.9123983159    -3.1987565655
   12      H      -4.2815518666    -1.1066016841    -3.9167565655
   13      H      -4.6455518666     2.4533983159    -4.8717565655
   14      H      -5.3555518666     0.8543983159    -5.0087565655
   15      H      -3.8461518666     1.2189483159    -5.8834365655
 ----------------------------------------------------------------
 Nuclear Repulsion Energy =         270.59105352 hartrees
 There are       25 alpha and       25 beta electrons
 Requested basis set is def2-TZVPD
 There are 131 shells and 331 basis functions

 Total QAlloc Memory Limit   2000 MB
 Mega-Array Size      1956 MB
 MEM_STATIC part      2000 MB

 Citation of the SMD model:
 Marenich, A.V.; Cramer, C.J.; Truhlar, D.G.
 J. Phys. Chem. B 2009, 113, 6378-6396.
 iSolventCode=           1
 Solvent: water                                                           

 vradii
            1           2           3           4           5           6
    1   1.8500000   1.8500000   1.8500000   1.8500000   1.8500000   1.8500000
            7           8           9          10          11          12
    1   1.8500000   1.2000000   1.2000000   1.2000000   1.2000000   1.2000000
           13          14          15
    1   1.2000000   1.2000000   1.2000000
 Changing PCM_VDW_RADII to SMD_RADIUS
 Discretize the solute cavity surface with Lebedev spheres
	Using 110 Lebedev grid points for each H atom
	Using 194 Lebedev grid points for other atoms
	Atomic van der Waals radii will be scaled by 1.20
 Remove points where switching function is < 1.0e-08
 Keep 1085 surface tesserae and discard 1153 interior tesserae
 Molecular Surface Area = 131.684 Angst**2

                       Distance Matrix (Angstroms)
             C (  1)   C (  2)   C (  3)   C (  4)   C (  5)   C (  6)
   C (  2)  4.282845
   C (  3)  3.785064  1.388614
   C (  4)  3.781161  1.387392  2.402367
   C (  5)  2.506501  2.405304  1.389427  2.773084
   C (  6)  2.503516  2.404215  2.774338  1.387512  2.399978
   C (  7)  1.496983  2.785889  2.412667  2.409203  1.391632  1.388813
   H (  8)  5.364218  1.081382  2.146927  2.142650  3.386960  3.383369
   H (  9)  4.652063  2.144888  1.082236  3.383286  2.146913  3.856570
   H ( 10)  4.640600  2.143091  3.381455  1.078551  3.851508  2.138274
   H ( 11)  2.713838  3.382158  2.140380  3.854309  1.081247  3.382533
   H ( 12)  2.706752  3.378935  3.853070  2.137527  3.379731  1.078795
   H ( 13)  1.092182  4.751621  3.974913  4.505660  2.601993  3.358756
   H ( 14)  1.089555  4.723862  4.444754  3.989249  3.287465  2.642488
   H ( 15)  1.099997  4.852940  4.387796  4.299791  3.148130  3.027708
             C (  7)   H (  8)   H (  9)   H ( 10)   H ( 11)   H ( 12)
   H (  8)  3.867261
   H (  9)  3.392904  2.473413
   H ( 10)  3.383208  2.469134  4.276328
   H ( 11)  2.148325  4.276402  2.465097  4.932733
   H ( 12)  2.142307  4.269855  4.935290  2.455709  4.277390
   H ( 13)  2.121749  5.812679  4.661586  5.449913  2.387302  3.703798
   H ( 14)  2.100591  5.783084  5.376384  4.694384  3.610258  2.488265
   H ( 15)  2.198731  5.915212  5.231083  5.089467  3.283579  3.076619
             H ( 13)   H ( 14)
   H ( 14)  1.754899
   H ( 15)  1.785050  1.782204

 A cutoff of  1.0D-14 yielded   8364 shell pairs
 There are     54518 function pairs (     69473 Cartesian)
 Smallest overlap matrix eigenvalue = 5.38E-07
 Linear dependence detected in AO basis
 Tighter screening thresholds may be required for diffuse basis sets
 Use S2THRESH > 14 and THRESH = 14 in case of SCF convergence issues
 Number of orthogonalized atomic orbitals = 330
 Maximum deviation from orthogonality = 1.067E-10

 Scale SEOQF with 1.000000e-02/1.000000e-01/1.000000e-02

 Standard Electronic Orientation quadrupole field applied
 Nucleus-field energy     =     0.0000000023 hartrees
 Guess from superposition of atomic densities
 Warning:  Energy on first SCF cycle will be non-variational
 SAD guess density has 50.000000 electrons

 -----------------------------------------------------------------------
  General SCF calculation program by
  Eric Jon Sundstrom, Paul Horn, Yuezhi Mao, Dmitri Zuev, Alec White,
  David Stuck, Shaama M.S., Shane Yost, Joonho Lee, David Small,
  Daniel Levine, Susi Lehtola, Hugh Burton, Evgeny Epifanovsky,
  Bang C. Huynh
 -----------------------------------------------------------------------
 Exchange:     0.1670 Hartree-Fock + 1.0000 wB97X-V + LR-HF
 Correlation:  1.0000 wB97X-V
 Using Euler-Maclaurin-Lebedev (99,590) quadrature formula
 Nonlocal Correlation:  VV10 with C = 0.0100 and b = 6.00 and scale = 1.00000
 Grid used for NLC:  SG-1 standard quadrature
Energy prior to optimization (guess energy) = -271.526311918977
Begin Timing: Total SCF Calculation
begin iterations for algorithm: DIIS         
the SCF tolerance is set to 1.00e-08
    1    -271.5263119190      1.85e-03     00000 
    2    -271.5644194818      1.17e-03     00000 
    3    -271.5846577089      1.54e-04     00000 
    4    -271.5853265629      4.31e-05     00000 
    5    -271.5853715169      1.99e-05     00000 
    6    -271.5853782057      5.35e-06     00000 
    7    -271.5853788966      1.55e-06     00000 
    8    -271.5853789396      3.97e-07     00000 
    9    -271.5853789444      9.75e-08     00000 
   10    -271.5853789447      3.28e-08     00000 
   11    -271.5853789447      1.55e-08     00000 
   12    -271.5853789447      4.83e-09     00000 Convergence criterion met
Timing for Total SCF: 581.00s (wall), 3447.60s (cpu)
(3)  G-ENP(liq) elect-nuc-pol free energy of system     -271.585378945 a.u.
(4)  G-CDS(liq) cavity-dispersion-solvent structure 
     free energy                                                3.1510 kcal/mol
(6)  G-S(liq) free energy of system                     -271.580357475 a.u.
E_pcm = -0.0073612841
E_cds = 0.0050214695
Multipole orders to be included
        2
        3
computing dipole RHS
computing quadrupole RHS
total number of RHS in solve_reponses: 8
RHS batch sizes
        8
Beginning Block Conjugate Gradient Iterations. Batch Number: 0
computing hessian-vector products by finite difference
              1      6.29e-01     00000 Conjugate Gradient Iteration
computing hessian-vector products by finite difference
              2      1.97e-01     00000 Conjugate Gradient Iteration
computing hessian-vector products by finite difference
              3      4.67e-02     00000 Conjugate Gradient Iteration
computing hessian-vector products by finite difference
              4      1.14e-02     00000 Conjugate Gradient Iteration
computing hessian-vector products by finite difference
              5      1.97e-03     00000 Conjugate Gradient Iteration
computing hessian-vector products by finite difference
              6      5.53e-04     00000 Conjugate Gradient Iteration
computing hessian-vector products by finite difference
              7      1.58e-04     00000 Conjugate Gradient Iteration
computing hessian-vector products by finite difference
              8      2.54e-05     00000 Conjugate Gradient Iteration
computing hessian-vector products by finite difference
              9      3.67e-06     00000 Conjugate Gradient Iteration
computing hessian-vector products by finite difference
             10      7.36e-07     00000 Conjugate Gradient Iteration
computing hessian-vector products by finite difference
             11      1.39e-07     00000 Conjugate Gradient Iteration
computing hessian-vector products by finite difference
             12      2.11e-08     00000 Conjugate Gradient Iteration
computing hessian-vector products by finite difference
             13      3.79e-09     00000 CG Converged
batch 0 complete
Done Calculating Responses
TESTING ORTHOGONALIZATION OF MULTIPOLE BASIS
Multipole virts passed orthogonality test
Virts Per Order
           75
          125

 --------------------------------------------------------------

                    Orbital Energies (a.u.)
 --------------------------------------------------------------

 Alpha MOs
 -- Occupied --
-10.2754 -10.2670 -10.2663 -10.2639 -10.2632 -10.2623 -10.2526  -0.9950
 -0.9030  -0.8754  -0.8070  -0.7255  -0.7005  -0.6246  -0.5695  -0.5599
 -0.5298  -0.5246  -0.5082  -0.4788  -0.4701  -0.4353  -0.4345  -0.3469
 -0.3347
 -- Virtual --
  0.0678   0.0685   0.0725   0.0844   0.0899   0.1096   0.1160   0.1182
  0.1411   0.1599   0.1716   0.1748   0.1910   0.1944   0.2004   0.2071
  0.2277   0.2301   0.2398   0.2461   0.2569   0.2644   0.2664   0.2758
  0.2866   0.2887   0.2913   0.2973   0.2987   0.3057   0.3066   0.3157
  0.3240   0.3299   0.3378   0.3420   0.3565   0.3577   0.3716   0.3789
  0.3838   0.3880   0.3900   0.3943   0.3960   0.4052   0.4091   0.4139
  0.4176   0.4334   0.4354   0.4410   0.4463   0.4535   0.4565   0.4578
  0.4699   0.4757   0.4788   0.4879   0.5000   0.5034   0.5173   0.5223
  0.5249   0.5299   0.5401   0.5445   0.5479   0.5530   0.5559   0.5717
  0.5882   0.5925   0.6016   0.6027   0.6053   0.6262   0.6453   0.6506
  0.6659   0.6804   0.6862   0.6923   0.6967   0.7010   0.7259   0.7275
  0.7330   0.7368   0.7484   0.7626   0.7675   0.7715   0.7813   0.7904
  0.7975   0.8000   0.8017   0.8082   0.8131   0.8269   0.8310   0.8371
  0.8394   0.8418   0.8490   0.8595   0.8642   0.8791   0.8952   0.9001
  0.9149   0.9214   0.9398   0.9509   0.9567   1.0179   1.0296   1.0457
  1.0496   1.0665   1.0777   1.0863   1.0945   1.0984   1.1083   1.1468
  1.1699   1.1852   1.2590   1.2821   1.3005   1.3308   1.3534   1.3597
  1.3855   1.4417   1.4561   1.4662   1.4709   1.4926   1.5343   1.5466
  1.6077   1.6114   1.6225   1.6308   1.6713   1.6856   1.7440   1.7842
  1.7994   1.8065   1.8100   1.8212   1.8353   1.8741   1.8952   1.9192
  1.9240   1.9294   1.9494   1.9675   1.9923   2.0003   2.0169   2.0304
  2.0375   2.0524   2.0759   2.0997   2.1205   2.1301   2.1795   2.1840
  2.2038   2.2385   2.2497   2.2813   2.2924   2.3188   2.3978   2.4084
  2.4113   2.4178   2.4871   2.5165   2.5446   2.5613   2.5676   2.6151
  2.6221   2.6356   2.6756   2.6803   2.7053   2.7202   2.7660   2.7781
  2.7959   2.8215   2.8245   2.8563   2.8695   2.9065   2.9172   2.9230
  2.9415   2.9503   2.9727   2.9818   2.9968   3.0209   3.0286   3.0582
  3.0659   3.0997   3.1097   3.1316   3.1909   3.1939   3.2107   3.2244
  3.2402   3.2445   3.2943   3.3032   3.3402   3.3602   3.3716   3.3882
  3.4077   3.4512   3.4523   3.4582   3.4668   3.4832   3.4958   3.5091
  3.5142   3.5379   3.5451   3.5514   3.5653   3.5819   3.5941   3.6111
  3.6303   3.6437   3.6638   3.7009   3.7186   3.7598   3.7876   3.8214
  3.8579   3.9005   3.9187   3.9648   3.9705   4.0095   4.0477   4.0614
  4.1250   4.2097   4.2780   4.2901   4.3061   4.3297   4.3407   4.3438
  4.3615   4.3817   4.4032   4.4094   4.4436   4.4620   4.4919   4.5415
  4.6068   4.6389   4.7609   4.7822   4.8437   4.8992   4.9097   4.9549
  5.0380   5.0601   5.1800   5.2732   5.3886   5.4007   5.5174   5.5391
  5.6835   5.8628  22.5787  22.6860  22.9050  22.9143  23.0328  23.0986
 23.4469
 --------------------------------------------------------------

          Ground-State Mulliken Net Atomic Charges

     Atom                 Charge (a.u.)
  ----------------------------------------
      1 C                    -1.092193
      2 C                    -0.561350
      3 C                    -0.568294
      4 C                    -0.546823
      5 C                    -0.426683
      6 C                    -0.399233
      7 C                     0.846616
      8 H                     0.395973
      9 H                     0.372010
     10 H                     0.376998
     11 H                     0.379164
     12 H                     0.396437
     13 H                     0.299770
     14 H                     0.279996
     15 H                     0.247612
  ----------------------------------------
  Sum of atomic charges =     0.000000

 -----------------------------------------------------------------
                    Cartesian Multipole Moments
 -----------------------------------------------------------------
    Charge (ESU x 10^10)
                 0.0000
    Dipole Moment (Debye)
         X      -0.2620      Y       0.1327      Z      -0.4490
       Tot       0.5365
    Quadrupole Moments (Debye-Ang)
        XX     -42.0192     XY       0.6172     YY     -37.6078
        XZ       6.1386     YZ      -1.4529     ZZ     -37.2509
    Octopole Moments (Debye-Ang^2)
       XXX     421.0280    XXY     -34.5328    XYY     125.6145
       YYY     -77.8106    XXZ      93.6418    XYZ       3.9550
       YYZ     111.2318    XZZ     102.5996    YZZ     -20.7882
       ZZZ     340.2742
    Hexadecapole Moments (Debye-Ang^3)
      XXXX   -2982.4352   XXXY     320.6783   XXYY    -527.8933
      XYYY     266.9232   YYYY    -404.5075   XXXZ   -1213.9439
      XXYZ      96.0729   XYYZ    -400.7835   YYYZ     274.7331
      XXZZ    -757.5645   XYZZ      69.5374   YYZZ    -475.4555
      XZZZ   -1161.5161   YZZZ     265.4353   ZZZZ   -2469.9393
 -----------------------------------------------------------------
Archival summary:
1\1\compute-0-8.local\SP\ProcedureUnspecified\BasisUnspecified\78\meili\WedSep2904:30:402021WedSep2904:30:402021\0\\#,ProcedureUnspecified,BasisUnspecified,\\0,1\C\C,1,1.38881\H,2,1.07879,1,119.97\C,2,1.38751,1,120.4,3,-179.728,0\H,4,1.07855,2,119.719,1,-178.479,0\C,4,1.38739,2,120.089,1,0.502918,0\H,6,1.08138,4,119.921,2,179.97,0\C,6,1.38861,4,119.858,2,-0.123293,0\H,8,1.08224,6,119.962,4,179.867,0\C,8,1.38943,6,119.955,4,0.0324482,0\H,10,1.08125,8,119.545,6,179.965,0\C,1,1.49698,2,120.3,3,-0.0294626,0\H,12,1.08955,1,107.564,2,39.6841,0\H,12,1.09218,1,109.063,2,155.509,0\H,12,1.1,1,114.84,2,-81.7966,0\\\@

 Total job time:  12343.78s(wall), 73762.09s(cpu) 
 Wed Sep 29 04:30:40 2021

        *************************************************************
        *                                                           *
        *  Thank you very much for using Q-Chem.  Have a nice day.  *
        *                                                           *
        *************************************************************


Done Job For Fragment 0
calling putenv with: QCSCRATCH=/home/meili/scratch 
calling putenv with: QCTHREADS=8 
Creating input file /home/meili/scratch/qchem60769/Frg2.input
using default PutDataFrgm: nothing
calling putenv with: QCSCRATCH=/home/meili/scratch/qchem60769/ 
Spawning Job For Fragment 1
                  Welcome to Q-Chem
     A Quantum Leap Into The Future Of Chemistry


 Q-Chem 5.2 (devel), Q-Chem, Inc., Pleasanton, CA (2019)

 Yihan Shao,  Zhengting Gan,  E. Epifanovsky,  A. T. B. Gilbert,  M. Wormit,  
 J. Kussmann,  A. W. Lange,  A. Behn,  Jia Deng,  Xintian Feng,  D. Ghosh,  
 M. Goldey,  P. R. Horn,  L. D. Jacobson,  I. Kaliman,  T. Kus,  A. Landau,  
 Jie Liu,  E. I. Proynov,  R. M. Richard,  R. P. Steele,  E. J. Sundstrom,  
 H. L. Woodcock III,  P. M. Zimmerman,  D. Zuev,  B. Albrecht,  E. Alguire,  
 S. A. Baeppler,  D. Barton,  Z. Benda,  Y. A. Bernard,  E. J. Berquist,  
 K. B. Bravaya,  H. Burton,  D. Casanova,  Chun-Min Chang,  Yunqing Chen,  
 A. Chien,  K. D. Closser,  M. P. Coons,  S. Coriani,  S. Dasgupta,  
 A. L. Dempwolff,  M. Diedenhofen,  Hainam Do,  R. G. Edgar,  Po-Tung Fang,  
 S. Faraji,  S. Fatehi,  Qingguo Feng,  K. D. Fenk,  J. Fosso-Tande,  
 J. Gayvert,  Qinghui Ge,  A. Ghysels,  G. Gidofalvi,  J. Gomes,  
 J. Gonthier,  A. Gunina,  D. Hait,  M. W. D. Hanson-Heine,  
 P. H. P. Harbach,  A. W. Hauser,  M. F. Herbst,  J. E. Herr,  
 E. G. Hohenstein,  Z. C. Holden,  Kerwin Hui,  B. C. Huynh,  T.-C. Jagau,  
 Hyunjun Ji,  B. Kaduk,  K. Khistyaev,  Jaehoon Kim,  P. Klunzinger,  K. Koh,  
 D. Kosenkov,  L. Koulias,  T. Kowalczyk,  C. M. Krauter,  A. Kunitsa,  
 Ka Un Lao,  A. Laurent,  K. V. Lawler,  Joonho Lee,  D. Lefrancois,  
 S. Lehtola,  D. S. Levine,  Yi-Pei Li,  You-Sheng Lin,  Fenglai Liu,  
 E. Livshits,  A. Luenser,  P. Manohar,  E. Mansoor,  S. F. Manzer,  
 Shan-Ping Mao,  Yuezhi Mao,  N. Mardirossian,  A. V. Marenich,  
 T. Markovich,  L. A. Martinez-Martinez,  S. A. Maurer,  N. J. Mayhall,  
 S. C. McKenzie,  J.-M. Mewes,  P. Morgante,  A. F. Morrison,  
 J. W. Mullinax,  K. Nanda,  T. S. Nguyen-Beck,  R. Olivares-Amaya,  
 J. A. Parkhill,  Zheng Pei,  T. M. Perrine,  F. Plasser,  P. Pokhilko,  
 S. Prager,  A. Prociuk,  E. Ramos,  D. R. Rehn,  F. Rob,  M. Scheurer,  
 M. Schneider,  N. Sergueev,  S. M. Sharada,  S. Sharma,  D. W. Small,  
 T. Stauch,  T. Stein,  Yu-Chuan Su,  A. J. W. Thom,  A. Tkatchenko,  
 T. Tsuchimochi,  N. M. Tubman,  L. Vogt,  M. L. Vidal,  O. Vydrov,  
 M. A. Watson,  J. Wenzel,  M. de Wergifosse,  T. A. Wesolowski,  A. White,  
 J. Witte,  A. Yamada,  Jun Yang,  K. Yao,  S. Yeganeh,  S. R. Yost,  
 Zhi-Qiang You,  A. Zech,  Igor Ying Zhang,  Xing Zhang,  Yan Zhao,  
 Ying Zhu,  B. R. Brooks,  G. K. L. Chan,  C. J. Cramer,  M. S. Gordon,  
 W. J. Hehre,  A. Klamt,  M. W. Schmidt,  C. D. Sherrill,  D. G. Truhlar,  
 A. Aspuru-Guzik,  R. Baer,  A. T. Bell,  N. A. Besley,  Jeng-Da Chai,  
 A. E. DePrince, III,  R. A. DiStasio Jr.,  A. Dreuw,  B. D. Dunietz,  
 T. R. Furlani,  Chao-Ping Hsu,  Yousung Jung,  Jing Kong,  D. S. Lambrecht,  
 WanZhen Liang,  C. Ochsenfeld,  V. A. Rassolov,  L. V. Slipchenko,  
 J. E. Subotnik,  T. Van Voorhis,  J. M. Herbert,  A. I. Krylov,  
 P. M. W. Gill,  M. Head-Gordon

 Contributors to earlier versions of Q-Chem not listed above: 
 R. D. Adamson,  B. Austin,  J. Baker,  G. J. O. Beran,  K. Brandhorst,  
 S. T. Brown,  E. F. C. Byrd,  A. K. Chakraborty,  C.-L. Cheng,  
 Siu Hung Chien,  D. M. Chipman,  D. L. Crittenden,  H. Dachsel,  
 R. J. Doerksen,  A. D. Dutoi,  L. Fusti-Molnar,  W. A. Goddard III,  
 A. Golubeva-Zadorozhnaya,  S. R. Gwaltney,  G. Hawkins,  A. Heyden,  
 S. Hirata,  G. Kedziora,  F. J. Keil,  C. Kelley,  Jihan Kim,  R. A. King,  
 R. Z. Khaliullin,  P. P. Korambath,  W. Kurlancheek,  A. M. Lee,  M. S. Lee,  
 S. V. Levchenko,  Ching Yeh Lin,  D. Liotard,  R. C. Lochan,  I. Lotan,  
 P. E. Maslen,  N. Nair,  D. P. O'Neill,  D. Neuhauser,  E. Neuscamman,  
 C. M. Oana,  R. Olson,  B. Peters,  R. Peverati,  P. A. Pieniazek,  
 Y. M. Rhee,  J. Ritchie,  M. A. Rohrdanz,  E. Rosta,  N. J. Russ,  
 H. F. Schaefer III,  N. E. Schultz,  N. Shenvi,  A. C. Simmonett,  A. Sodt,  
 D. Stuck,  K. S. Thanthiriwatte,  V. Vanovschi,  Tao Wang,  A. Warshel,  
 C. F. Williams,  Q. Wu,  X. Xu,  W. Zhang

 Please cite Q-Chem as follows:
 Y. Shao et al., Mol. Phys. 113, 184-215 (2015)
 DOI: 10.1080/00268976.2014.952696

 Q-Chem 5.2.1 for Intel X86 EM64T Linux

 Parts of Q-Chem use Armadillo 8.300.2 (Tropical Shenanigans).
 http://arma.sourceforge.net/

 Q-Chem begins on Wed Sep 29 04:30:40 2021  

compute-0-8.local
Host: 0

     Scratch files written to /home/meili/scratch/qchem60769//Frg2//
NAlpha2: 70
NElect   70
Mult     1
Symmetry turned off for PCM/SM12/SMD calculation

Checking the input file for inconsistencies... 	...done.

--------------------------------------------------------------
User input:
--------------------------------------------------------------
$molecule
0 1
 6	3.2664481334	-2.9166016841	3.4042434345
 6	2.3104481334	-0.9276016841	2.0172434345
 6	3.0254481334	-1.4726016841	3.1332434345
 6	2.3284481334	0.4833983159	2.1502434345
 6	3.4434481334	-0.4126016841	3.8732434345
 6	1.0384481334	-0.6516016841	-0.0007565655
 6	1.0734481334	0.7413983159	0.1552434345
 6	1.6514481334	-1.4926016841	0.9222434345
 6	1.7174481334	1.3243983159	1.2312434345
 7	3.0274481334	0.7623983159	3.2932434345
 1	0.5054481334	-1.0756016841	-0.8417565655
 1	0.5714481334	1.3643983159	-0.5727565655
 1	1.5844481334	-2.5666016841	0.8232434345
 1	1.7364481334	2.3983983159	1.3582434345
 1	2.3424481334	-3.4546016841	3.1902434345
 1	3.4894481334	-3.0576016841	4.4642434345
 1	4.0064481334	-0.4946016841	4.7952434345
 1	3.1474481334	1.6763983159	3.7142434345
 1	4.0635151334	-3.3490116841	2.7815834345
$end
$rem
EDA2		1
METHOD		WB97X-V
BASIS		DEF2-TZVPD
XC_GRID		000099000590
NL_GRID		1
UNRESTRICTED		FALSE
MAX_SCF_CYCLES		200
SYMMETRY		FALSE
SYM_IGNORE		TRUE
BASIS_LIN_DEP_THRESH		6
THRESH		14
SCF_CONVERGENCE		8
SCF_PRINT_FRGM		TRUE
SOLVENT_METHOD		SMD
!required keywords
JOBTYPE		SP
SYM_IGNORE		TRUE
SUBSYSTEM		TRUE
GEN_SCFMAN		TRUE
CHILD_INSTRUCTION		2
SYM_IGNORE		TRUE
SCFMI		0
RI_K 0		
PARI_K 0		
MIN_PARI_K 0		
IARI_K 0		
OCC_RI_K 0		
PURECART		1111
MEM_STATIC		2000
MEM_TOTAL		2000
GUI		0
CHILD_MP		1
CHILD_MP_ORDERS		232
FRZ_RELAX		0
FRZ_RELAX_METHOD		0
EDA_CLS_ELEC		1
EDA_CLS_DISP		0
FRZ_ORTHO_DECOMP		1
EDA2		FALSE
FRGM_METHOD		FALSE
CIS_N_ROOTS  0
LOCAL_CIS    0
CIS_RLX_DNS  1
$end
$smx
SOLVENT			WATER
$end
--------------------------------------------------------------
 ----------------------------------------------------------------
             Standard Nuclear Orientation (Angstroms)
    I     Atom           X                Y                Z
 ----------------------------------------------------------------
    1      C       3.2664481334    -2.9166016841     3.4042434345
    2      C       2.3104481334    -0.9276016841     2.0172434345
    3      C       3.0254481334    -1.4726016841     3.1332434345
    4      C       2.3284481334     0.4833983159     2.1502434345
    5      C       3.4434481334    -0.4126016841     3.8732434345
    6      C       1.0384481334    -0.6516016841    -0.0007565655
    7      C       1.0734481334     0.7413983159     0.1552434345
    8      C       1.6514481334    -1.4926016841     0.9222434345
    9      C       1.7174481334     1.3243983159     1.2312434345
   10      N       3.0274481334     0.7623983159     3.2932434345
   11      H       0.5054481334    -1.0756016841    -0.8417565655
   12      H       0.5714481334     1.3643983159    -0.5727565655
   13      H       1.5844481334    -2.5666016841     0.8232434345
   14      H       1.7364481334     2.3983983159     1.3582434345
   15      H       2.3424481334    -3.4546016841     3.1902434345
   16      H       3.4894481334    -3.0576016841     4.4642434345
   17      H       4.0064481334    -0.4946016841     4.7952434345
   18      H       3.1474481334     1.6763983159     3.7142434345
   19      H       4.0635151334    -3.3490116841     2.7815834345
 ----------------------------------------------------------------
 Nuclear Repulsion Energy =         485.80985566 hartrees
 There are       35 alpha and       35 beta electrons
 Requested basis set is def2-TZVPD
 There are 175 shells and 451 basis functions

 Total QAlloc Memory Limit   2000 MB
 Mega-Array Size      1956 MB
 MEM_STATIC part      2000 MB

 Citation of the SMD model:
 Marenich, A.V.; Cramer, C.J.; Truhlar, D.G.
 J. Phys. Chem. B 2009, 113, 6378-6396.
 iSolventCode=           1
 Solvent: water                                                           

 vradii
            1           2           3           4           5           6
    1   1.8500000   1.8500000   1.8500000   1.8500000   1.8500000   1.8500000
            7           8           9          10          11          12
    1   1.8500000   1.8500000   1.8500000   1.8900000   1.2000000   1.2000000
           13          14          15          16          17          18
    1   1.2000000   1.2000000   1.2000000   1.2000000   1.2000000   1.2000000
           19
    1   1.2000000
 Changing PCM_VDW_RADII to SMD_RADIUS
 Discretize the solute cavity surface with Lebedev spheres
	Using 110 Lebedev grid points for each H atom
	Using 194 Lebedev grid points for other atoms
	Atomic van der Waals radii will be scaled by 1.20
 Remove points where switching function is < 1.0e-08
 Keep 1353 surface tesserae and discard 1577 interior tesserae
 Molecular Surface Area = 164.647 Angst**2
 A cutoff of  1.0D-14 yielded  14472 shell pairs
 There are     98264 function pairs (    126436 Cartesian)
 Smallest overlap matrix eigenvalue = 5.04E-07
 Linear dependence detected in AO basis
 Tighter screening thresholds may be required for diffuse basis sets
 Use S2THRESH > 14 and THRESH = 14 in case of SCF convergence issues
 Number of orthogonalized atomic orbitals = 448
 Maximum deviation from orthogonality = 2.224E-10

 Scale SEOQF with 1.000000e-01/1.000000e-01/1.000000e-01

 Standard Electronic Orientation quadrupole field applied
 Nucleus-field energy     =    -0.0000000204 hartrees
 Guess from superposition of atomic densities
 Warning:  Energy on first SCF cycle will be non-variational
 SAD guess density has 70.000000 electrons

 -----------------------------------------------------------------------
  General SCF calculation program by
  Eric Jon Sundstrom, Paul Horn, Yuezhi Mao, Dmitri Zuev, Alec White,
  David Stuck, Shaama M.S., Shane Yost, Joonho Lee, David Small,
  Daniel Levine, Susi Lehtola, Hugh Burton, Evgeny Epifanovsky,
  Bang C. Huynh
 -----------------------------------------------------------------------
 Exchange:     0.1670 Hartree-Fock + 1.0000 wB97X-V + LR-HF
 Correlation:  1.0000 wB97X-V
 Using Euler-Maclaurin-Lebedev (99,590) quadrature formula
 Nonlocal Correlation:  VV10 with C = 0.0100 and b = 6.00 and scale = 1.00000
 Grid used for NLC:  SG-1 standard quadrature
Energy prior to optimization (guess energy) = -403.080860589780
Begin Timing: Total SCF Calculation
begin iterations for algorithm: DIIS         
the SCF tolerance is set to 1.00e-08
    1    -403.0808605898      1.68e-03     00000 
    2    -403.1336632231      1.23e-03     00000 
    3    -403.1749825829      2.51e-04     00000 
    4    -403.1768765031      1.18e-04     00000 
    5    -403.1773305163      3.88e-05     00000 
    6    -403.1773781526      1.23e-05     00000 
    7    -403.1773826499      4.26e-06     00000 
    8    -403.1773835628      9.51e-07     00000 
    9    -403.1773836548      4.37e-07     00000 
   10    -403.1773836742      2.15e-07     00000 
   11    -403.1773836801      7.00e-08     00000 
   12    -403.1773836809      3.09e-08     00000 
   13    -403.1773836810      1.08e-08     00000 
   14    -403.1773836810      3.55e-09     00000 Convergence criterion met
Timing for Total SCF: 1817.00s (wall), 11493.74s (cpu)
(3)  G-ENP(liq) elect-nuc-pol free energy of system     -403.177383681 a.u.
(4)  G-CDS(liq) cavity-dispersion-solvent structure 
     free energy                                                3.7939 kcal/mol
(6)  G-S(liq) free energy of system                     -403.171337791 a.u.
E_pcm = -0.0160504047
E_cds = 0.0060458903
Multipole orders to be included
        2
        3
computing dipole RHS
computing quadrupole RHS
total number of RHS in solve_reponses: 8
RHS batch sizes
        8
Beginning Block Conjugate Gradient Iterations. Batch Number: 0
computing hessian-vector products by finite difference
              1      6.52e-01     00000 Conjugate Gradient Iteration
computing hessian-vector products by finite difference
              2      2.03e-01     00000 Conjugate Gradient Iteration
computing hessian-vector products by finite difference
              3      6.05e-02     00000 Conjugate Gradient Iteration
computing hessian-vector products by finite difference
              4      2.26e-02     00000 Conjugate Gradient Iteration
computing hessian-vector products by finite difference
              5      8.63e-03     00000 Conjugate Gradient Iteration
computing hessian-vector products by finite difference
              6      2.86e-03     00000 Conjugate Gradient Iteration
computing hessian-vector products by finite difference
              7      6.55e-04     00000 Conjugate Gradient Iteration
computing hessian-vector products by finite difference
              8      1.31e-04     00000 Conjugate Gradient Iteration
computing hessian-vector products by finite difference
              9      2.19e-05     00000 Conjugate Gradient Iteration
computing hessian-vector products by finite difference
             10      3.93e-06     00000 Conjugate Gradient Iteration
computing hessian-vector products by finite difference
             11      6.73e-07     00000 Conjugate Gradient Iteration
computing hessian-vector products by finite difference
             12      1.18e-07     00000 Conjugate Gradient Iteration
computing hessian-vector products by finite difference
             13      2.05e-08     00000 Conjugate Gradient Iteration
computing hessian-vector products by finite difference
             14      5.35e-09     00000 CG Converged
batch 0 complete
Done Calculating Responses
TESTING ORTHOGONALIZATION OF MULTIPOLE BASIS
Multipole virts passed orthogonality test
Virts Per Order
          105
          175

 --------------------------------------------------------------

                    Orbital Energies (a.u.)
 --------------------------------------------------------------

 Alpha MOs
 -- Occupied --
-14.4424 -10.2979 -10.2892 -10.2673 -10.2666 -10.2643 -10.2620 -10.2605
-10.2555 -10.2538  -1.1117  -0.9770  -0.9285  -0.8658  -0.8577  -0.8120
 -0.7421  -0.7103  -0.6721  -0.6453  -0.5951  -0.5786  -0.5526  -0.5455
 -0.5341  -0.5109  -0.5072  -0.4891  -0.4757  -0.4510  -0.4475  -0.4279
 -0.3764  -0.3138  -0.2892
 -- Virtual --
  0.0569   0.0643   0.0798   0.0824   0.0933   0.1022   0.1040   0.1109
  0.1325   0.1375   0.1406   0.1516   0.1608   0.1689   0.1754   0.1839
  0.1912   0.1996   0.2044   0.2122   0.2156   0.2238   0.2301   0.2503
  0.2531   0.2582   0.2638   0.2664   0.2701   0.2787   0.2802   0.2812
  0.2842   0.2899   0.2934   0.2940   0.3070   0.3133   0.3183   0.3240
  0.3319   0.3363   0.3389   0.3402   0.3458   0.3471   0.3533   0.3558
  0.3589   0.3660   0.3762   0.3811   0.3815   0.3911   0.3939   0.3975
  0.4040   0.4125   0.4153   0.4179   0.4207   0.4263   0.4302   0.4415
  0.4427   0.4542   0.4564   0.4589   0.4609   0.4655   0.4701   0.4746
  0.4898   0.4966   0.5004   0.5020   0.5036   0.5196   0.5236   0.5254
  0.5333   0.5416   0.5458   0.5499   0.5535   0.5567   0.5615   0.5649
  0.5735   0.5811   0.5881   0.5939   0.6107   0.6152   0.6178   0.6265
  0.6364   0.6459   0.6487   0.6540   0.6599   0.6693   0.6809   0.6897
  0.6915   0.6991   0.7006   0.7073   0.7113   0.7203   0.7276   0.7341
  0.7420   0.7501   0.7542   0.7622   0.7671   0.7725   0.7743   0.7784
  0.7852   0.7879   0.7913   0.7936   0.8019   0.8066   0.8129   0.8155
  0.8220   0.8315   0.8368   0.8411   0.8463   0.8531   0.8558   0.8635
  0.8676   0.8719   0.8805   0.8995   0.9058   0.9103   0.9217   0.9439
  0.9486   0.9514   0.9705   0.9899   0.9931   1.0090   1.0136   1.0211
  1.0407   1.0470   1.0587   1.0642   1.0793   1.0860   1.1000   1.1021
  1.1169   1.1359   1.1416   1.1512   1.1722   1.1907   1.2038   1.2179
  1.2444   1.2502   1.2636   1.2844   1.3007   1.3115   1.3413   1.3483
  1.3836   1.3979   1.4023   1.4151   1.4317   1.4499   1.4563   1.4837
  1.5185   1.5449   1.5629   1.5735   1.5855   1.6027   1.6209   1.6255
  1.6484   1.6622   1.7013   1.7041   1.7268   1.7299   1.7473   1.7683
  1.7965   1.8261   1.8476   1.8553   1.8658   1.8730   1.8864   1.8943
  1.9076   1.9225   1.9357   1.9492   1.9596   1.9735   1.9775   1.9947
  2.0012   2.0042   2.0073   2.0304   2.0348   2.0683   2.0758   2.0788
  2.0967   2.1262   2.1377   2.1761   2.1875   2.2001   2.2135   2.2299
  2.2579   2.2998   2.3045   2.3255   2.3276   2.3516   2.3789   2.3930
  2.4053   2.4330   2.4458   2.4692   2.4976   2.5017   2.5168   2.5413
  2.5682   2.5845   2.6069   2.6133   2.6258   2.6544   2.6736   2.6908
  2.7010   2.7276   2.7576   2.7673   2.7747   2.7880   2.7956   2.8109
  2.8232   2.8368   2.8512   2.8663   2.8841   2.8977   2.9028   2.9211
  2.9336   2.9500   2.9643   2.9765   2.9910   3.0136   3.0360   3.0397
  3.0456   3.0747   3.0901   3.1036   3.1207   3.1362   3.1412   3.1643
  3.1720   3.1939   3.2125   3.2243   3.2341   3.2585   3.2718   3.2775
  3.2937   3.3012   3.3130   3.3265   3.3580   3.3658   3.3879   3.3892
  3.4044   3.4216   3.4347   3.4450   3.4488   3.4585   3.4787   3.4825
  3.4927   3.5081   3.5237   3.5245   3.5293   3.5403   3.5567   3.5808
  3.5906   3.5976   3.6168   3.6364   3.6467   3.6571   3.6632   3.6869
  3.7131   3.7183   3.7267   3.7348   3.7568   3.7681   3.7793   3.7984
  3.8212   3.8672   3.8941   3.9257   3.9373   3.9529   3.9802   4.0320
  4.0513   4.0725   4.1162   4.1578   4.1789   4.1983   4.2192   4.2297
  4.2530   4.2798   4.2837   4.2982   4.3234   4.3595   4.3667   4.3820
  4.4198   4.4246   4.4460   4.4726   4.4895   4.5267   4.5511   4.6248
  4.6437   4.6552   4.6650   4.7614   4.7865   4.8243   4.8563   4.9295
  4.9319   4.9679   4.9848   4.9925   5.0223   5.0725   5.0769   5.1207
  5.1435   5.1600   5.2090   5.2311   5.2703   5.3961   5.4162   5.4598
  5.5107   5.5617   5.5982   5.6472   5.7137   5.8161   5.8258   5.9609
  5.9759   6.2845   6.3559  22.6646  22.7532  22.9344  22.9575  22.9884
 23.2044  23.2739  23.4898  23.8070  32.8445
 --------------------------------------------------------------

          Ground-State Mulliken Net Atomic Charges

     Atom                 Charge (a.u.)
  ----------------------------------------
      1 C                    -1.039071
      2 C                     0.362197
      3 C                     0.705641
      4 C                    -0.088397
      5 C                    -0.779380
      6 C                    -0.655603
      7 C                    -0.458442
      8 C                    -0.501372
      9 C                    -0.686715
     10 N                     0.127813
     11 H                     0.412477
     12 H                     0.404824
     13 H                     0.411715
     14 H                     0.420015
     15 H                     0.282879
     16 H                     0.299324
     17 H                     0.318277
     18 H                     0.224089
     19 H                     0.239731
  ----------------------------------------
  Sum of atomic charges =     0.000000

 -----------------------------------------------------------------
                    Cartesian Multipole Moments
 -----------------------------------------------------------------
    Charge (ESU x 10^10)
                 0.0000
    Dipole Moment (Debye)
         X       1.0305      Y       1.5930      Z       2.3232
       Tot       2.9995
    Quadrupole Moments (Debye-Ang)
        XX     -56.2774     XY       4.1830     YY     -50.2847
        XZ      13.8789     YZ       5.5333     ZZ     -44.4108
    Octopole Moments (Debye-Ang^2)
       XXX    -399.3733    XXY      41.9708    XYY    -114.5808
       YYY      95.3966    XXZ     -70.4895    XYZ      15.1365
       YYZ     -98.3512    XZZ     -68.4659    YZZ      50.0580
       ZZZ    -285.6888
    Hexadecapole Moments (Debye-Ang^3)
      XXXX   -2217.5382   XXXY     319.9071   XXYY    -455.4511
      XYYY     302.1315   YYYY    -781.5094   XXXZ    -884.6409
      XXYZ     137.7888   XYYZ    -281.5456   YYYZ     310.3682
      XXZZ    -482.8760   XYZZ     147.9965   YYZZ    -438.4253
      XZZZ    -709.9980   YZZZ     353.1918   ZZZZ   -1866.3755
 -----------------------------------------------------------------
Archival summary:
1\1\compute-0-8.local\SP\ProcedureUnspecified\BasisUnspecified\199\meili\WedSep2913:30:472021WedSep2913:30:472021\0\\#,ProcedureUnspecified,BasisUnspecified,\\0,1\C\C,1,1.39733\H,2,1.08063,1,120.192\C,2,1.39104,1,118.904,3,177.291,0\H,4,1.08219,2,119.724,1,-178.634,0\C,4,1.40214,2,121.052,1,-0.0637986,0\H,6,1.08172,4,119.059,2,-178.956,0\C,6,1.3829,4,121.133,2,-0.0305521,0\H,8,1.08165,6,121.207,4,-179.361,0\C,8,1.3875,6,117.703,4,0.0490534,0\N,10,1.36854,8,130.885,6,-179.972,0\H,11,1.01343,10,126.25,8,5.96659,0\C,11,1.3748,10,109.431,8,-179.971,0\H,13,1.08341,11,125.518,10,-179.165,0\C,13,1.35865,11,110.116,10,-0.243739,0\C,15,1.48884,13,127.427,11,179.705,0\H,16,1.09042,15,107.797,13,138.554,0\H,16,1.09234,15,109.565,13,21.9269,0\H,16,1.1,15,113.298,13,-102.004,0\\\@

 Total job time:  32406.81s(wall), 203682.86s(cpu) 
 Wed Sep 29 13:30:47 2021

        *************************************************************
        *                                                           *
        *  Thank you very much for using Q-Chem.  Have a nice day.  *
        *                                                           *
        *************************************************************


Done Job For Fragment 1
calling putenv with: QCSCRATCH=/home/meili/scratch 
calling putenv with: QCTHREADS=8 
Doing General SCFMI
 Exchange:     0.1670 Hartree-Fock + 1.0000 wB97X-V + LR-HF
 Correlation:  1.0000 wB97X-V
 Using Euler-Maclaurin-Lebedev (99,590) quadrature formula
 Nonlocal Correlation:  VV10 with C = 0.0100 and b = 6.00 and scale = 1.00000
 Grid used for NLC:  SG-1 standard quadrature
performing fock build before subrot guess so that all methods have access
Printing subrot_rss_gen Method Specification:
Occupied Subspace Method is 0
Virtual Subspace Method is 0
Energy of the unrelaxed supersystem initial determinant -674.741484681058
performing fock build before subrot guess so that all methods have access
Printing subrot_rss_gen Method Specification:
Occupied Subspace Method is 0
Virtual Subspace Method is 0
Energy of the unrelaxed supersystem initial determinant w/ solvent -674.764277139710
write pseudocanon occs and virts to disk
write pseudocanon orbital energies to disk
Tolerance of ortho_decomp_scf: 1.00e-06
GDM subspace size: 20
Beginning the Orthogonal Decomposition of the Initial Supersystem Wavefunction
    1    -674.7314828106      1.10e-02     ortho_decomp Preconditoned Steepest Descent
    2    -674.7322306469      2.57e-04     ortho_decomp BFGS Step
    3    -674.7322326450      1.82e-05     ortho_decomp BFGS Step
    4    -674.7322326486      7.10e-07     ortho_decomp 00000 Convergence criterion met
 Hartree-Fock
 Hartree-Fock
 Hartree-Fock
Doing General SCFMI
 Exchange:     0.1670 Hartree-Fock + 1.0000 wB97X-V + LR-HF
 Correlation:  1.0000 wB97X-V
 Using Euler-Maclaurin-Lebedev (99,590) quadrature formula
 Nonlocal Correlation:  VV10 with C = 0.0100 and b = 6.00 and scale = 1.00000
 Grid used for NLC:  SG-1 standard quadrature
performing fock build at end of subrot_r(subrot) constructor so that all methods have access
<S^2> of initial wavefunction before polarization iterations 0.0000000000
Beginning iterations for the determination of the polarized wavefunction
Energy prior to optimization (guess energy) = -674.764277139710
Begin Timing: Total SCF Calculation
begin iterations for algorithm: DIIS         
the SCF tolerance is set to 1.00e-08
    1    -674.7642771397      2.04e-05     00000 
    2    -674.7643418187      8.80e-06     00000 
    3    -674.7643500437      5.15e-06     00000 
    4    -674.7643531701      1.19e-06     00000 
    5    -674.7643534905      5.94e-07     00000 
    6    -674.7643535478      1.73e-07     00000 
    7    -674.7643535530      6.73e-08     00000 
    8    -674.7643535537      2.44e-08     00000 
    9    -674.7643535538      8.35e-09     00000 Convergence criterion met
write pseudocanon occs and virts to disk
write pseudocanon orbital energies to disk
Timing for Total SCF: 5508.00s (wall), 35409.85s (cpu)
<S^2> of polarized wavefunction after polarization iterations 0.0000000000
relaxing scfmi constraint to allow all rotations in the entire AO span
Doing General SCFMI
 Exchange:     0.1670 Hartree-Fock + 1.0000 wB97X-V + LR-HF
 Correlation:  1.0000 wB97X-V
 Using Euler-Maclaurin-Lebedev (99,590) quadrature formula
 Nonlocal Correlation:  VV10 with C = 0.0100 and b = 6.00 and scale = 1.00000
 Grid used for NLC:  SG-1 standard quadrature
performing fock build at end of subrot_r(subrot) constructor so that all methods have access
<S^2> of polarized wavefunction before ct-allowed iterations 0.0000000000
Beginning iterations for the determination of the CT-Allowed wavefunction
Energy prior to optimization (guess energy) = -674.764353553757
Begin Timing: Total SCF Calculation
begin iterations for algorithm: DIIS         
the SCF tolerance is set to 1.00e-08
    1    -674.7643535538      3.50e-05     00000 
    2    -674.7647352730      3.46e-06     00000 
    3    -674.7647459283      5.33e-07     00000 
    4    -674.7647462919      1.18e-07     00000 
    5    -674.7647463049      7.84e-08     00000 
    6    -674.7647463077      1.40e-08     00000 
    7    -674.7647463079      7.17e-09     00000 Convergence criterion met
write pseudocanon occs and virts to disk
write pseudocanon orbital energies to disk
Timing for Total SCF: 4684.00s (wall), 30294.99s (cpu)
<S^2> of ct_allowed wavefunction after ct-allowed iterations 0.0000000000

================================
        Results of EDA2         
================================
Basic EDA Quantities
--------------------
Fragment Energies (Ha):
1 -271.5803574753
2 -403.1713377907
--------------------
  E_prp (kJ/mol) = 0.0000
  E_sol (kJ/mol) = 0.3814
  E_frz (kJ/mol) = -5.6022
  E_pol (kJ/mol) = -0.2006
  E_vct (kJ/mol) = -1.0312
  E_int (kJ/mol) = -6.4526
--------------------


Initial Wavefunction Decomposition
--------------------
  --------------------
  Orthogonal Fragment Subspace Decomposition:
  --------------------
     E_elec   (ELEC)   (kJ/mol) = -10.4528
     E_pauli  (PAULI)  (kJ/mol) = 14.2665
     E_disp   (DISP)   (kJ/mol) = -9.4159
     --------------------
     Terms summing to E_pauli:
     --------------------
        E_kep_pauli       (kJ/mol) = 18.6893
        E_disp_free_pauli (kJ/mol) = -4.4228
  --------------------
  Classical Frozen Decomposition:
  --------------------
     E_cls_elec  (CLS ELEC)  (kJ/mol) = -4.2234
     E_cls_pauli (CLS PAULI) (kJ/mol) = -1.3788
    [E_mod_pauli (MOD PAULI) (kJ/mol) = 8.0371 (CLS PAULI - DISP from orthogonal decomposition) ]
  --------------------
--------------------

Simplified EDA Summary (kJ/mol)
--------------------
 PREPARATION     0.0000
 SOLVATION       0.3814
 FROZEN          3.8137      (does not include dispersion)
[PAULI           14.2665]     (if this is negligible, then frozen describes electrostatics)
 DISPERSION      -9.4159
 POLARIZATION    -0.2006
 CHARGE TRANSFER -1.0312
 TOTAL           -6.4526     (PRP + SOL + FRZ + DISP + POL + CT)
--------------------

 --------------------------------------------------------------

                    Orbital Energies (a.u.)
 --------------------------------------------------------------

 Alpha MOs
 -- Occupied --
-14.4424 -10.2979 -10.2892 -10.2753 -10.2673 -10.2669 -10.2666 -10.2662
-10.2642 -10.2635 -10.2632 -10.2623 -10.2619 -10.2603 -10.2555 -10.2538
-10.2525  -1.1117  -0.9949  -0.9770  -0.9285  -0.9029  -0.8754  -0.8657
 -0.8577  -0.8120  -0.8070  -0.7421  -0.7255  -0.7102  -0.7004  -0.6721
 -0.6453  -0.6248  -0.5951  -0.5786  -0.5693  -0.5598  -0.5526  -0.5454
 -0.5341  -0.5297  -0.5246  -0.5112  -0.5080  -0.5070  -0.4890  -0.4788
 -0.4757  -0.4700  -0.4510  -0.4475  -0.4350  -0.4341  -0.4277  -0.3764
 -0.3469  -0.3346  -0.3135  -0.2892
 -- Virtual --
  0.0563   0.0617   0.0671   0.0696   0.0724   0.0784   0.0813   0.0895
  0.0916   0.0964   0.1041   0.1063   0.1090   0.1171   0.1227   0.1308
  0.1367   0.1380   0.1447   0.1494   0.1560   0.1577   0.1637   0.1695
  0.1712   0.1739   0.1786   0.1856   0.1919   0.1958   0.1981   0.2043
  0.2065   0.2119   0.2188   0.2244   0.2263   0.2319   0.2371   0.2387
  0.2423   0.2449   0.2482   0.2559   0.2580   0.2614   0.2640   0.2649
  0.2695   0.2713   0.2746   0.2772   0.2782   0.2818   0.2827   0.2877
  0.2897   0.2932   0.2961   0.3023   0.3035   0.3050   0.3086   0.3124
  0.3147   0.3165   0.3187   0.3220   0.3261   0.3297   0.3344   0.3365
  0.3405   0.3422   0.3460   0.3487   0.3514   0.3530   0.3555   0.3574
  0.3607   0.3621   0.3662   0.3676   0.3733   0.3756   0.3794   0.3811
  0.3849   0.3867   0.3883   0.3907   0.3920   0.3959   0.3964   0.4008
  0.4032   0.4101   0.4114   0.4138   0.4190   0.4208   0.4257   0.4270
  0.4282   0.4300   0.4353   0.4413   0.4461   0.4472   0.4486   0.4515
  0.4542   0.4555   0.4590   0.4609   0.4646   0.4684   0.4704   0.4718
  0.4755   0.4770   0.4809   0.4835   0.4860   0.4912   0.4947   0.4973
  0.5004   0.5018   0.5032   0.5063   0.5088   0.5196   0.5214   0.5237
  0.5253   0.5312   0.5345   0.5383   0.5417   0.5432   0.5444   0.5497
  0.5516   0.5534   0.5579   0.5634   0.5640   0.5655   0.5707   0.5725
  0.5761   0.5815   0.5862   0.5901   0.5954   0.5979   0.6013   0.6042
  0.6151   0.6166   0.6207   0.6215   0.6282   0.6295   0.6367   0.6390
  0.6418   0.6478   0.6529   0.6579   0.6622   0.6681   0.6703   0.6772
  0.6794   0.6836   0.6862   0.6889   0.6958   0.6977   0.7003   0.7040
  0.7061   0.7112   0.7146   0.7164   0.7211   0.7278   0.7312   0.7332
  0.7366   0.7427   0.7456   0.7461   0.7519   0.7594   0.7637   0.7640
  0.7671   0.7722   0.7731   0.7744   0.7775   0.7791   0.7842   0.7880
  0.7893   0.7903   0.7953   0.8006   0.8015   0.8047   0.8056   0.8074
  0.8118   0.8138   0.8178   0.8228   0.8258   0.8274   0.8315   0.8343
  0.8365   0.8401   0.8434   0.8461   0.8535   0.8556   0.8569   0.8606
  0.8624   0.8658   0.8676   0.8770   0.8791   0.8843   0.8884   0.8904
  0.8975   0.9051   0.9065   0.9108   0.9149   0.9196   0.9214   0.9305
  0.9325   0.9359   0.9418   0.9445   0.9552   0.9648   0.9681   0.9725
  0.9789   0.9872   0.9901   0.9975   1.0002   1.0090   1.0122   1.0216
  1.0227   1.0365   1.0411   1.0443   1.0506   1.0557   1.0601   1.0718
  1.0767   1.0859   1.0885   1.0943   1.0975   1.1065   1.1165   1.1196
  1.1220   1.1337   1.1391   1.1520   1.1562   1.1581   1.1681   1.1764
  1.1796   1.1926   1.1981   1.2066   1.2129   1.2245   1.2264   1.2418
  1.2560   1.2647   1.2700   1.2897   1.2923   1.3205   1.3258   1.3319
  1.3422   1.3547   1.3640   1.3698   1.3749   1.3816   1.3916   1.4057
  1.4188   1.4212   1.4372   1.4434   1.4592   1.4605   1.4744   1.4841
  1.4914   1.5004   1.5036   1.5098   1.5343   1.5537   1.5556   1.5712
  1.5831   1.5924   1.6118   1.6137   1.6157   1.6207   1.6277   1.6363
  1.6390   1.6524   1.6619   1.6756   1.6787   1.6934   1.6999   1.7134
  1.7331   1.7487   1.7510   1.7724   1.7828   1.7904   1.8059   1.8097
  1.8151   1.8213   1.8275   1.8320   1.8591   1.8657   1.8781   1.8844
  1.8938   1.9027   1.9080   1.9176   1.9214   1.9272   1.9355   1.9383
  1.9497   1.9507   1.9599   1.9604   1.9675   1.9747   1.9840   1.9877
  1.9938   2.0060   2.0115   2.0218   2.0284   2.0379   2.0416   2.0493
  2.0531   2.0581   2.0648   2.0735   2.0803   2.0899   2.0929   2.1069
  2.1101   2.1191   2.1285   2.1399   2.1479   2.1529   2.1793   2.1964
  2.2071   2.2106   2.2167   2.2295   2.2391   2.2516   2.2528   2.2569
  2.2593   2.2723   2.2964   2.3098   2.3130   2.3187   2.3363   2.3382
  2.3471   2.3643   2.3822   2.4079   2.4122   2.4145   2.4246   2.4371
  2.4408   2.4476   2.4632   2.4846   2.4983   2.5063   2.5116   2.5212
  2.5282   2.5421   2.5579   2.5747   2.5777   2.5905   2.5936   2.6169
  2.6246   2.6328   2.6363   2.6400   2.6475   2.6608   2.6758   2.6889
  2.6952   2.6996   2.7088   2.7192   2.7329   2.7478   2.7623   2.7711
  2.7763   2.7809   2.7875   2.7903   2.7983   2.8072   2.8214   2.8233
  2.8253   2.8349   2.8448   2.8584   2.8653   2.8726   2.8736   2.8911
  2.9004   2.9075   2.9149   2.9236   2.9334   2.9393   2.9491   2.9521
  2.9611   2.9692   2.9782   2.9821   2.9886   2.9991   3.0063   3.0118
  3.0126   3.0339   3.0453   3.0506   3.0621   3.0639   3.0759   3.0863
  3.0928   3.1033   3.1129   3.1139   3.1162   3.1254   3.1416   3.1433
  3.1500   3.1709   3.1822   3.1968   3.2030   3.2086   3.2173   3.2262
  3.2403   3.2487   3.2619   3.2645   3.2703   3.2751   3.2855   3.2942
  3.3048   3.3075   3.3164   3.3263   3.3399   3.3491   3.3569   3.3597
  3.3719   3.3811   3.3881   3.3913   3.3971   3.4031   3.4117   3.4222
  3.4281   3.4444   3.4564   3.4570   3.4679   3.4682   3.4713   3.4761
  3.4843   3.4893   3.4913   3.5017   3.5060   3.5111   3.5199   3.5239
  3.5289   3.5349   3.5388   3.5462   3.5536   3.5556   3.5561   3.5633
  3.5723   3.5830   3.5860   3.5886   3.5941   3.6036   3.6071   3.6170
  3.6269   3.6348   3.6462   3.6485   3.6516   3.6668   3.6676   3.6797
  3.6916   3.7017   3.7128   3.7216   3.7263   3.7303   3.7352   3.7429
  3.7577   3.7731   3.7874   3.7964   3.8104   3.8223   3.8325   3.8629
  3.8674   3.8969   3.9049   3.9230   3.9300   3.9361   3.9553   3.9738
  3.9767   3.9860   4.0175   4.0380   4.0532   4.0607   4.0745   4.0864
  4.1200   4.1363   4.1616   4.1808   4.2081   4.2249   4.2283   4.2345
  4.2593   4.2829   4.2866   4.2921   4.3010   4.3049   4.3145   4.3286
  4.3337   4.3465   4.3495   4.3688   4.3737   4.3783   4.3851   4.3877
  4.4137   4.4207   4.4221   4.4328   4.4512   4.4532   4.4723   4.4827
  4.4969   4.5068   4.5346   4.5560   4.5589   4.6145   4.6286   4.6447
  4.6510   4.6584   4.6684   4.7641   4.7657   4.7858   4.7907   4.8284
  4.8437   4.8615   4.9062   4.9141   4.9353   4.9406   4.9683   4.9714
  4.9883   5.0065   5.0256   5.0554   5.0678   5.0749   5.0857   5.1245
  5.1515   5.1624   5.1880   5.2110   5.2366   5.2757   5.2886   5.3974
  5.3999   5.4033   5.4186   5.4642   5.5139   5.5212   5.5394   5.5578
  5.6038   5.6560   5.6964   5.7174   5.8085   5.8286   5.8334   5.9610
  5.9785   6.2864   6.3534  22.6135  22.6658  22.6905  22.7795  22.9234
 22.9411  22.9566  22.9640  23.0111  23.0479  23.1069  23.2075  23.2760
 23.4579  23.4926  23.8121  32.8537
 --------------------------------------------------------------

          Ground-State Mulliken Net Atomic Charges

     Atom                 Charge (a.u.)
  ----------------------------------------
      1 C                    -1.147473
      2 C                    -0.546287
      3 C                    -0.462522
      4 C                    -0.537823
      5 C                    -0.485652
      6 C                    -0.376663
      7 C                     0.593124
      8 H                     0.510155
      9 H                     0.400687
     10 H                     0.389147
     11 H                     0.404533
     12 H                     0.412021
     13 H                     0.306535
     14 H                     0.290105
     15 H                     0.248540
     16 C                    -1.080944
     17 C                     0.255680
     18 C                     0.605052
     19 C                    -0.132295
     20 C                    -0.561934
     21 C                    -0.700003
     22 C                    -0.340353
     23 C                    -0.634566
     24 C                    -0.661626
     25 N                     0.109656
     26 H                     0.472934
     27 H                     0.430308
     28 H                     0.431804
     29 H                     0.434936
     30 H                     0.285176
     31 H                     0.300343
     32 H                     0.319632
     33 H                     0.225381
     34 H                     0.242391
  ----------------------------------------
  Sum of atomic charges =     0.000000

 -----------------------------------------------------------------
                    Cartesian Multipole Moments
 -----------------------------------------------------------------
    Charge (ESU x 10^10)
                 0.0000
    Dipole Moment (Debye)
         X       0.7704      Y       1.7197      Z       1.8796
       Tot       2.6616
    Quadrupole Moments (Debye-Ang)
        XX     -98.3809     XY       4.8141     YY     -87.9306
        XZ      19.9994     YZ       4.0872     ZZ     -81.7386
    Octopole Moments (Debye-Ang^2)
       XXX      21.8274    XXY       7.4047    XYY      11.0761
       YYY      17.5416    XXZ      23.2704    XYZ      19.0729
       YYZ      12.9216    XZZ      34.2356    YZZ      29.2293
       ZZZ      54.7871
    Hexadecapole Moments (Debye-Ang^3)
      XXXX   -5201.4492   XXXY     640.7202   XXYY    -983.5905
      XYYY     569.1464   YYYY   -1186.2889   XXXZ   -2098.9494
      XXYZ     233.9483   XYYZ    -682.3878   YYYZ     585.1517
      XXZZ   -1241.1841   XYZZ     217.6795   YYZZ    -914.0753
      XZZZ   -1872.1787   YZZZ     618.7893   ZZZZ   -4337.4001
 -----------------------------------------------------------------
Archival summary:
1\1\compute-0-8.local\SP\ProcedureUnspecified\BasisUnspecified\11617\meili\WedSep2918:35:182021WedSep2918:35:182021\0\\#,ProcedureUnspecified,BasisUnspecified,\\0,1\C\C,1,1.39733\H,2,1.08063,1,120.192\C,2,1.39104,1,118.904,3,177.291,0\H,4,1.08219,2,119.724,1,-178.634,0\C,4,1.40214,2,121.052,1,-0.0637986,0\H,6,1.08172,4,119.059,2,-178.956,0\C,6,1.3829,4,121.133,2,-0.0305521,0\H,8,1.08165,6,121.207,4,-179.361,0\C,8,1.3875,6,117.703,4,0.0490534,0\N,10,1.36854,8,130.885,6,-179.972,0\H,11,1.01343,10,126.25,8,5.96659,0\C,11,1.3748,10,109.431,8,-179.971,0\H,13,1.08341,11,125.518,10,-179.165,0\C,13,1.35865,11,110.116,10,-0.243739,0\C,15,1.48884,13,127.427,11,179.705,0\H,16,1.09042,15,107.797,13,138.554,0\H,16,1.09234,15,109.565,13,21.9269,0\H,16,1.1,15,113.298,13,-102.004,0\H,5,2.61531,4,102.532,2,119.001,0\C,20,1.08138,5,114.292,4,138.809,0\C,21,1.38739,20,119.921,5,86.0411,0\H,22,1.07855,21,120.185,20,-1.05305,0\C,22,1.38751,21,120.089,20,179.97,0\H,24,1.07879,22,119.629,21,-179.226,0\C,21,1.38861,20,120.221,5,-93.8656,0\H,26,1.08224,21,119.962,20,-0.226242,0\C,24,1.38881,22,120.4,21,0.502918,0\C,26,1.38943,21,119.955,20,179.939,0\H,29,1.08125,26,119.545,21,179.965,0\C,28,1.49698,24,120.3,22,-179.757,0\H,31,1.08955,28,107.564,24,39.6841,0\H,31,1.09218,28,109.063,24,155.509,0\H,31,1.1,28,114.84,24,-81.7966,0\\\@

 Total job time:  63031.48s(wall), 120464.45s(cpu) 
 Wed Sep 29 18:35:18 2021

        *************************************************************
        *                                                           *
        *  Thank you very much for using Q-Chem.  Have a nice day.  *
        *                                                           *
        *************************************************************


