                  Welcome to Q-Chem
     A Quantum Leap Into The Future Of Chemistry


 Q-Chem 5.2 (devel), Q-Chem, Inc., Pleasanton, CA (2019)

 Yihan Shao,  Zhengting Gan,  E. Epifanovsky,  A. T. B. Gilbert,  M. Wormit,  
 J. Kussmann,  A. W. Lange,  A. Behn,  Jia Deng,  Xintian Feng,  D. Ghosh,  
 M. Goldey,  P. R. Horn,  L. D. Jacobson,  I. Kaliman,  T. Kus,  A. Landau,  
 Jie Liu,  E. I. Proynov,  R. M. Richard,  R. P. Steele,  E. J. Sundstrom,  
 H. L. Woodcock III,  P. M. Zimmerman,  D. Zuev,  B. Albrecht,  E. Alguire,  
 S. A. Baeppler,  D. Barton,  Z. Benda,  Y. A. Bernard,  E. J. Berquist,  
 K. B. Bravaya,  H. Burton,  D. Casanova,  Chun-Min Chang,  Yunqing Chen,  
 A. Chien,  K. D. Closser,  M. P. Coons,  S. Coriani,  S. Dasgupta,  
 A. L. Dempwolff,  M. Diedenhofen,  Hainam Do,  R. G. Edgar,  Po-Tung Fang,  
 S. Faraji,  S. Fatehi,  Qingguo Feng,  K. D. Fenk,  J. Fosso-Tande,  
 J. Gayvert,  Qinghui Ge,  A. Ghysels,  G. Gidofalvi,  J. Gomes,  
 J. Gonthier,  A. Gunina,  D. Hait,  M. W. D. Hanson-Heine,  
 P. H. P. Harbach,  A. W. Hauser,  M. F. Herbst,  J. E. Herr,  
 E. G. Hohenstein,  Z. C. Holden,  Kerwin Hui,  B. C. Huynh,  T.-C. Jagau,  
 Hyunjun Ji,  B. Kaduk,  K. Khistyaev,  Jaehoon Kim,  P. Klunzinger,  K. Koh,  
 D. Kosenkov,  L. Koulias,  T. Kowalczyk,  C. M. Krauter,  A. Kunitsa,  
 Ka Un Lao,  A. Laurent,  K. V. Lawler,  Joonho Lee,  D. Lefrancois,  
 S. Lehtola,  D. S. Levine,  Yi-Pei Li,  You-Sheng Lin,  Fenglai Liu,  
 E. Livshits,  A. Luenser,  P. Manohar,  E. Mansoor,  S. F. Manzer,  
 Shan-Ping Mao,  Yuezhi Mao,  N. Mardirossian,  A. V. Marenich,  
 T. Markovich,  L. A. Martinez-Martinez,  S. A. Maurer,  N. J. Mayhall,  
 S. C. McKenzie,  J.-M. Mewes,  P. Morgante,  A. F. Morrison,  
 J. W. Mullinax,  K. Nanda,  T. S. Nguyen-Beck,  R. Olivares-Amaya,  
 J. A. Parkhill,  Zheng Pei,  T. M. Perrine,  F. Plasser,  P. Pokhilko,  
 S. Prager,  A. Prociuk,  E. Ramos,  D. R. Rehn,  F. Rob,  M. Scheurer,  
 M. Schneider,  N. Sergueev,  S. M. Sharada,  S. Sharma,  D. W. Small,  
 T. Stauch,  T. Stein,  Yu-Chuan Su,  A. J. W. Thom,  A. Tkatchenko,  
 T. Tsuchimochi,  N. M. Tubman,  L. Vogt,  M. L. Vidal,  O. Vydrov,  
 M. A. Watson,  J. Wenzel,  M. de Wergifosse,  T. A. Wesolowski,  A. White,  
 J. Witte,  A. Yamada,  Jun Yang,  K. Yao,  S. Yeganeh,  S. R. Yost,  
 Zhi-Qiang You,  A. Zech,  Igor Ying Zhang,  Xing Zhang,  Yan Zhao,  
 Ying Zhu,  B. R. Brooks,  G. K. L. Chan,  C. J. Cramer,  M. S. Gordon,  
 W. J. Hehre,  A. Klamt,  M. W. Schmidt,  C. D. Sherrill,  D. G. Truhlar,  
 A. Aspuru-Guzik,  R. Baer,  A. T. Bell,  N. A. Besley,  Jeng-Da Chai,  
 A. E. DePrince, III,  R. A. DiStasio Jr.,  A. Dreuw,  B. D. Dunietz,  
 T. R. Furlani,  Chao-Ping Hsu,  Yousung Jung,  Jing Kong,  D. S. Lambrecht,  
 WanZhen Liang,  C. Ochsenfeld,  V. A. Rassolov,  L. V. Slipchenko,  
 J. E. Subotnik,  T. Van Voorhis,  J. M. Herbert,  A. I. Krylov,  
 P. M. W. Gill,  M. Head-Gordon

 Contributors to earlier versions of Q-Chem not listed above: 
 R. D. Adamson,  B. Austin,  J. Baker,  G. J. O. Beran,  K. Brandhorst,  
 S. T. Brown,  E. F. C. Byrd,  A. K. Chakraborty,  C.-L. Cheng,  
 Siu Hung Chien,  D. M. Chipman,  D. L. Crittenden,  H. Dachsel,  
 R. J. Doerksen,  A. D. Dutoi,  L. Fusti-Molnar,  W. A. Goddard III,  
 A. Golubeva-Zadorozhnaya,  S. R. Gwaltney,  G. Hawkins,  A. Heyden,  
 S. Hirata,  G. Kedziora,  F. J. Keil,  C. Kelley,  Jihan Kim,  R. A. King,  
 R. Z. Khaliullin,  P. P. Korambath,  W. Kurlancheek,  A. M. Lee,  M. S. Lee,  
 S. V. Levchenko,  Ching Yeh Lin,  D. Liotard,  R. C. Lochan,  I. Lotan,  
 P. E. Maslen,  N. Nair,  D. P. O'Neill,  D. Neuhauser,  E. Neuscamman,  
 C. M. Oana,  R. Olson,  B. Peters,  R. Peverati,  P. A. Pieniazek,  
 Y. M. Rhee,  J. Ritchie,  M. A. Rohrdanz,  E. Rosta,  N. J. Russ,  
 H. F. Schaefer III,  N. E. Schultz,  N. Shenvi,  A. C. Simmonett,  A. Sodt,  
 D. Stuck,  K. S. Thanthiriwatte,  V. Vanovschi,  Tao Wang,  A. Warshel,  
 C. F. Williams,  Q. Wu,  X. Xu,  W. Zhang

 Please cite Q-Chem as follows:
 Y. Shao et al., Mol. Phys. 113, 184-215 (2015)
 DOI: 10.1080/00268976.2014.952696

 Q-Chem 5.2.1 for Intel X86 EM64T Linux

 Parts of Q-Chem use Armadillo 8.300.2 (Tropical Shenanigans).
 http://arma.sourceforge.net/

 Q-Chem begins on Wed Sep 29 20:20:32 2021  

compute-0-1.local
Host: 0

     Scratch files written to /home/meili/scratch/qchem41071//
NAlpha2: 116
NElect   116
Mult     1
Symmetry turned off for PCM/SM12/SMD calculation

 Q-Chem warning in module libgen/rem_setup.C, line 2813:

 Neither GIA nor STOLL is specified by user. Use STOLL as the default


Checking the input file for inconsistencies... 	...done.

--------------------------------------------------------------
User input:
--------------------------------------------------------------
$comment
SSI-082PHE-102TYR-1.pdb
$end

$molecule
0 1
--
0 1
C   -0.337521055649   -0.079167293506   -4.851096445243
C    2.007478944351   -1.082167293506   -1.376096445243
C    2.363478944351    0.007832706494   -2.178096445243
C    0.871478944351   -1.842167293506   -1.693096445243
C    1.585478944351    0.330832706494   -3.288096445243
C    0.098478944351   -1.507167293506   -2.804096445243
C    0.459478944351   -0.424167293506   -3.617096445243
H    2.604478944351   -1.340167293506   -0.515096445243
H    3.241478944351    0.591832706494   -1.939096445243
H    0.594478944351   -2.683167293506   -1.074096445244
H    1.871478944351    1.166832706494   -3.910096445243
H   -0.772521055649   -2.099167293506   -3.044096445243
H   -0.784521055649   -0.997167293506   -5.232096445243
H    0.346478944351    0.280832706494   -5.618096445243
H   -1.127333055649    0.668320706494   -4.685386445243
--
0 1
C    0.298478944351    1.679832706494    0.187903554757
C   -0.277521055649    3.081832706494    0.106903554757
C   -0.276521055649    0.884832706494    1.330903554757
C    0.104478944351    1.164832706494    2.642903554757
C   -1.201521055649   -0.135167293506    1.100903554757
C   -0.410521055649    0.432832706494    3.709903554757
C   -1.725521055649   -0.879167293506    2.161903554756
C   -1.320521055649   -0.592167293506    3.470903554757
O   -1.780521055649   -1.307167293506    4.529903554757
H    0.118478944351    1.156832706494   -0.753096445243
H    1.379478944351    1.747832706494    0.325903554756
H   -0.183521055649    3.544832706494    1.090903554757
H    0.821478944351    1.952832706494    2.836903554757
H   -1.504521055649   -0.363167293506    0.086903554757
H   -0.093521055649    0.657832706494    4.718903554757
H   -2.428521055649   -1.675167293506    1.979903554757
H   -1.405521055649   -0.990167293506    5.352903554757
H   -1.330787055649    3.028444906494   -0.205796445243
H    0.249514944351    3.696587206494   -0.637616445243
$end

$rem
JOBTYPE			EDA
EDA2			1
method			wB97X-V
BASIS			def2-TZVPD
XC_GRID			000099000590
NL_GRID			1
UNRESTRICTED		FALSE
MAX_SCF_CYCLES		200
SYMMETRY		FALSE
SYM_IGNORE		TRUE
MEM_STATIC		2000
BASIS_LIN_DEP_THRESH 	6
THRESH 			14
SCF_CONVERGENCE 	8
SCF_PRINT_FRGM 		TRUE
SOLVENT_METHOD          SMD
$end

$SMX
SOLVENT			WATER
$END
--------------------------------------------------------------
 ----------------------------------------------------------------
             Standard Nuclear Orientation (Angstroms)
    I     Atom           X                Y                Z
 ----------------------------------------------------------------
    1      C      -0.3375210556    -0.0791672935    -4.8510964452
    2      C       2.0074789444    -1.0821672935    -1.3760964452
    3      C       2.3634789444     0.0078327065    -2.1780964452
    4      C       0.8714789444    -1.8421672935    -1.6930964452
    5      C       1.5854789444     0.3308327065    -3.2880964452
    6      C       0.0984789444    -1.5071672935    -2.8040964452
    7      C       0.4594789444    -0.4241672935    -3.6170964452
    8      H       2.6044789444    -1.3401672935    -0.5150964452
    9      H       3.2414789444     0.5918327065    -1.9390964452
   10      H       0.5944789444    -2.6831672935    -1.0740964452
   11      H       1.8714789444     1.1668327065    -3.9100964452
   12      H      -0.7725210556    -2.0991672935    -3.0440964452
   13      H      -0.7845210556    -0.9971672935    -5.2320964452
   14      H       0.3464789444     0.2808327065    -5.6180964452
   15      H      -1.1273330556     0.6683207065    -4.6853864452
   16      C       0.2984789444     1.6798327065     0.1879035548
   17      C      -0.2775210556     3.0818327065     0.1069035548
   18      C      -0.2765210556     0.8848327065     1.3309035548
   19      C       0.1044789444     1.1648327065     2.6429035548
   20      C      -1.2015210556    -0.1351672935     1.1009035548
   21      C      -0.4105210556     0.4328327065     3.7099035548
   22      C      -1.7255210556    -0.8791672935     2.1619035548
   23      C      -1.3205210556    -0.5921672935     3.4709035548
   24      O      -1.7805210556    -1.3071672935     4.5299035548
   25      H       0.1184789444     1.1568327065    -0.7530964452
   26      H       1.3794789444     1.7478327065     0.3259035548
   27      H      -0.1835210556     3.5448327065     1.0909035548
   28      H       0.8214789444     1.9528327065     2.8369035548
   29      H      -1.5045210556    -0.3631672935     0.0869035548
   30      H      -0.0935210556     0.6578327065     4.7189035548
   31      H      -2.4285210556    -1.6751672935     1.9799035548
   32      H      -1.4055210556    -0.9901672935     5.3529035548
   33      H      -1.3307870556     3.0284449065    -0.2057964452
   34      H       0.2495149444     3.6965872065    -0.6376164452
 ----------------------------------------------------------------
 Nuclear Repulsion Energy =         999.47523308 hartrees
 There are       58 alpha and       58 beta electrons
 Requested basis set is def2-TZVPD
 There are 299 shells and 757 basis functions

 Total QAlloc Memory Limit   2000 MB
 Mega-Array Size      1956 MB
 MEM_STATIC part      2000 MB

 Citation of the SMD model:
 Marenich, A.V.; Cramer, C.J.; Truhlar, D.G.
 J. Phys. Chem. B 2009, 113, 6378-6396.
 iSolventCode=           1
 Solvent: water                                                           

 vradii
            1           2           3           4           5           6
    1   1.8500000   1.8500000   1.8500000   1.8500000   1.8500000   1.8500000
            7           8           9          10          11          12
    1   1.8500000   1.2000000   1.2000000   1.2000000   1.2000000   1.2000000
           13          14          15          16          17          18
    1   1.2000000   1.2000000   1.2000000   1.8500000   1.8500000   1.8500000
           19          20          21          22          23          24
    1   1.8500000   1.8500000   1.8500000   1.8500000   1.8500000   1.5200000
           25          26          27          28          29          30
    1   1.2000000   1.2000000   1.2000000   1.2000000   1.2000000   1.2000000
           31          32          33          34
    1   1.2000000   1.2000000   1.2000000   1.2000000
 Changing PCM_VDW_RADII to SMD_RADIUS
 Discretize the solute cavity surface with Lebedev spheres
	Using 110 Lebedev grid points for each H atom
	Using 194 Lebedev grid points for other atoms
	Atomic van der Waals radii will be scaled by 1.20
 Remove points where switching function is < 1.0e-08
 Keep 2445 surface tesserae and discard 2639 interior tesserae
 Molecular Surface Area = 289.847 Angst**2
 A cutoff of  1.0D-14 yielded  37650 shell pairs
 There are    241756 function pairs (    304494 Cartesian)
 Smallest overlap matrix eigenvalue = 4.21E-07
 Linear dependence detected in AO basis
 Tighter screening thresholds may be required for diffuse basis sets
 Use S2THRESH > 14 and THRESH = 14 in case of SCF convergence issues
 Number of orthogonalized atomic orbitals = 753
 Maximum deviation from orthogonality = 1.347E-10

 Scale SEOQF with 1.000000e-01/1.000000e-01/1.000000e-02

 Standard Electronic Orientation quadrupole field applied
 Nucleus-field energy     =     0.0000000115 hartrees

 -----------------------------------------------------------------------
  General SCF calculation program by
  Eric Jon Sundstrom, Paul Horn, Yuezhi Mao, Dmitri Zuev, Alec White,
  David Stuck, Shaama M.S., Shane Yost, Joonho Lee, David Small,
  Daniel Levine, Susi Lehtola, Hugh Burton, Evgeny Epifanovsky,
  Bang C. Huynh
 -----------------------------------------------------------------------
================================================================
                 ALMO-EDA with the EDA2 driver                  
================================================================
 The second-generation ALMO-EDA (for DFT):                      
 P. R. Horn, Y. Mao and M. Head-Gordon, PCCP, 18, 23067 (2016)  
 Decomposition of the frozen energy:                            
 P. R. Horn, Y. Mao and M. Head-Gordon, JCP, 144, 114107 (2016) 
 FERF model for polarization:                                   
 P. R. Horn and M. Head-Gordon, JCP, 143, 114111 (2015)         
Using eda2 option set 1
Option set summary: Frozen orbital wavefunction, initial wavefunction decomposition, and nDQ polarization.
--------------------------------
Printing EDA Options
--------------------------------
eda_child_super_basis      0
fragmo_guess_mode          0
child_mp                   1
child_mp_orders            232
cls_elec                   1
cls_disp                   0
scfmi_mode                 1
scfmi_occs                 0
scfmi_virts                0
frz_relax                  0
frz_relax_method           0
dc_pen_start               0
dc_pen_conv                0
dc_pen_increment           0
dc_pen_steps               0
dc_pen_thresh_factor       0
dc_pen_pre_newton_thresh   0
frz_ortho_decomp           1
frz_ortho_decomp_conv      6
frgm_method                2
scfmi_freeze_ss            0
separate_rehyb             0
plot_diff_den              0
eda_nocv                   0
eda_vct_relax              1
disp_free_x                0
disp_free_c                0
eda_bsse                   0
eda_pct_a                  0
eda_covp                   0
--------------------------------
Attempting to make child job directory: /home/meili/scratch/qchem41071//Frg1/
Attempting to make child job directory: /home/meili/scratch/qchem41071//Frg2/
Creating input file /home/meili/scratch/qchem41071/Frg1.input
using default PutDataFrgm: nothing
calling putenv with: QCSCRATCH=/home/meili/scratch/qchem41071/ 
Spawning Job For Fragment 0
                  Welcome to Q-Chem
     A Quantum Leap Into The Future Of Chemistry


 Q-Chem 5.2 (devel), Q-Chem, Inc., Pleasanton, CA (2019)

 Yihan Shao,  Zhengting Gan,  E. Epifanovsky,  A. T. B. Gilbert,  M. Wormit,  
 J. Kussmann,  A. W. Lange,  A. Behn,  Jia Deng,  Xintian Feng,  D. Ghosh,  
 M. Goldey,  P. R. Horn,  L. D. Jacobson,  I. Kaliman,  T. Kus,  A. Landau,  
 Jie Liu,  E. I. Proynov,  R. M. Richard,  R. P. Steele,  E. J. Sundstrom,  
 H. L. Woodcock III,  P. M. Zimmerman,  D. Zuev,  B. Albrecht,  E. Alguire,  
 S. A. Baeppler,  D. Barton,  Z. Benda,  Y. A. Bernard,  E. J. Berquist,  
 K. B. Bravaya,  H. Burton,  D. Casanova,  Chun-Min Chang,  Yunqing Chen,  
 A. Chien,  K. D. Closser,  M. P. Coons,  S. Coriani,  S. Dasgupta,  
 A. L. Dempwolff,  M. Diedenhofen,  Hainam Do,  R. G. Edgar,  Po-Tung Fang,  
 S. Faraji,  S. Fatehi,  Qingguo Feng,  K. D. Fenk,  J. Fosso-Tande,  
 J. Gayvert,  Qinghui Ge,  A. Ghysels,  G. Gidofalvi,  J. Gomes,  
 J. Gonthier,  A. Gunina,  D. Hait,  M. W. D. Hanson-Heine,  
 P. H. P. Harbach,  A. W. Hauser,  M. F. Herbst,  J. E. Herr,  
 E. G. Hohenstein,  Z. C. Holden,  Kerwin Hui,  B. C. Huynh,  T.-C. Jagau,  
 Hyunjun Ji,  B. Kaduk,  K. Khistyaev,  Jaehoon Kim,  P. Klunzinger,  K. Koh,  
 D. Kosenkov,  L. Koulias,  T. Kowalczyk,  C. M. Krauter,  A. Kunitsa,  
 Ka Un Lao,  A. Laurent,  K. V. Lawler,  Joonho Lee,  D. Lefrancois,  
 S. Lehtola,  D. S. Levine,  Yi-Pei Li,  You-Sheng Lin,  Fenglai Liu,  
 E. Livshits,  A. Luenser,  P. Manohar,  E. Mansoor,  S. F. Manzer,  
 Shan-Ping Mao,  Yuezhi Mao,  N. Mardirossian,  A. V. Marenich,  
 T. Markovich,  L. A. Martinez-Martinez,  S. A. Maurer,  N. J. Mayhall,  
 S. C. McKenzie,  J.-M. Mewes,  P. Morgante,  A. F. Morrison,  
 J. W. Mullinax,  K. Nanda,  T. S. Nguyen-Beck,  R. Olivares-Amaya,  
 J. A. Parkhill,  Zheng Pei,  T. M. Perrine,  F. Plasser,  P. Pokhilko,  
 S. Prager,  A. Prociuk,  E. Ramos,  D. R. Rehn,  F. Rob,  M. Scheurer,  
 M. Schneider,  N. Sergueev,  S. M. Sharada,  S. Sharma,  D. W. Small,  
 T. Stauch,  T. Stein,  Yu-Chuan Su,  A. J. W. Thom,  A. Tkatchenko,  
 T. Tsuchimochi,  N. M. Tubman,  L. Vogt,  M. L. Vidal,  O. Vydrov,  
 M. A. Watson,  J. Wenzel,  M. de Wergifosse,  T. A. Wesolowski,  A. White,  
 J. Witte,  A. Yamada,  Jun Yang,  K. Yao,  S. Yeganeh,  S. R. Yost,  
 Zhi-Qiang You,  A. Zech,  Igor Ying Zhang,  Xing Zhang,  Yan Zhao,  
 Ying Zhu,  B. R. Brooks,  G. K. L. Chan,  C. J. Cramer,  M. S. Gordon,  
 W. J. Hehre,  A. Klamt,  M. W. Schmidt,  C. D. Sherrill,  D. G. Truhlar,  
 A. Aspuru-Guzik,  R. Baer,  A. T. Bell,  N. A. Besley,  Jeng-Da Chai,  
 A. E. DePrince, III,  R. A. DiStasio Jr.,  A. Dreuw,  B. D. Dunietz,  
 T. R. Furlani,  Chao-Ping Hsu,  Yousung Jung,  Jing Kong,  D. S. Lambrecht,  
 WanZhen Liang,  C. Ochsenfeld,  V. A. Rassolov,  L. V. Slipchenko,  
 J. E. Subotnik,  T. Van Voorhis,  J. M. Herbert,  A. I. Krylov,  
 P. M. W. Gill,  M. Head-Gordon

 Contributors to earlier versions of Q-Chem not listed above: 
 R. D. Adamson,  B. Austin,  J. Baker,  G. J. O. Beran,  K. Brandhorst,  
 S. T. Brown,  E. F. C. Byrd,  A. K. Chakraborty,  C.-L. Cheng,  
 Siu Hung Chien,  D. M. Chipman,  D. L. Crittenden,  H. Dachsel,  
 R. J. Doerksen,  A. D. Dutoi,  L. Fusti-Molnar,  W. A. Goddard III,  
 A. Golubeva-Zadorozhnaya,  S. R. Gwaltney,  G. Hawkins,  A. Heyden,  
 S. Hirata,  G. Kedziora,  F. J. Keil,  C. Kelley,  Jihan Kim,  R. A. King,  
 R. Z. Khaliullin,  P. P. Korambath,  W. Kurlancheek,  A. M. Lee,  M. S. Lee,  
 S. V. Levchenko,  Ching Yeh Lin,  D. Liotard,  R. C. Lochan,  I. Lotan,  
 P. E. Maslen,  N. Nair,  D. P. O'Neill,  D. Neuhauser,  E. Neuscamman,  
 C. M. Oana,  R. Olson,  B. Peters,  R. Peverati,  P. A. Pieniazek,  
 Y. M. Rhee,  J. Ritchie,  M. A. Rohrdanz,  E. Rosta,  N. J. Russ,  
 H. F. Schaefer III,  N. E. Schultz,  N. Shenvi,  A. C. Simmonett,  A. Sodt,  
 D. Stuck,  K. S. Thanthiriwatte,  V. Vanovschi,  Tao Wang,  A. Warshel,  
 C. F. Williams,  Q. Wu,  X. Xu,  W. Zhang

 Please cite Q-Chem as follows:
 Y. Shao et al., Mol. Phys. 113, 184-215 (2015)
 DOI: 10.1080/00268976.2014.952696

 Q-Chem 5.2.1 for Intel X86 EM64T Linux

 Parts of Q-Chem use Armadillo 8.300.2 (Tropical Shenanigans).
 http://arma.sourceforge.net/

 Q-Chem begins on Wed Sep 29 20:20:41 2021  

compute-0-1.local
Host: 0

     Scratch files written to /home/meili/scratch/qchem41071//Frg1//
NAlpha2: 50
NElect   50
Mult     1
Symmetry turned off for PCM/SM12/SMD calculation

Checking the input file for inconsistencies... 	...done.

--------------------------------------------------------------
User input:
--------------------------------------------------------------
$molecule
0 1
 6	-0.3375210556	-0.0791672935	-4.8510964452
 6	2.0074789444	-1.0821672935	-1.3760964452
 6	2.3634789444	0.0078327065	-2.1780964452
 6	0.8714789444	-1.8421672935	-1.6930964452
 6	1.5854789444	0.3308327065	-3.2880964452
 6	0.0984789444	-1.5071672935	-2.8040964452
 6	0.4594789444	-0.4241672935	-3.6170964452
 1	2.6044789444	-1.3401672935	-0.5150964452
 1	3.2414789444	0.5918327065	-1.9390964452
 1	0.5944789444	-2.6831672935	-1.0740964452
 1	1.8714789444	1.1668327065	-3.9100964452
 1	-0.7725210556	-2.0991672935	-3.0440964452
 1	-0.7845210556	-0.9971672935	-5.2320964452
 1	0.3464789444	0.2808327065	-5.6180964452
 1	-1.1273330556	0.6683207065	-4.6853864452
$end
$rem
EDA2		1
METHOD		WB97X-V
BASIS		DEF2-TZVPD
XC_GRID		000099000590
NL_GRID		1
UNRESTRICTED		FALSE
MAX_SCF_CYCLES		200
SYMMETRY		FALSE
SYM_IGNORE		TRUE
BASIS_LIN_DEP_THRESH		6
THRESH		14
SCF_CONVERGENCE		8
SCF_PRINT_FRGM		TRUE
SOLVENT_METHOD		SMD
!required keywords
JOBTYPE		SP
SYM_IGNORE		TRUE
SUBSYSTEM		TRUE
GEN_SCFMAN		TRUE
CHILD_INSTRUCTION		2
SYM_IGNORE		TRUE
SCFMI		0
RI_K 0		
PARI_K 0		
MIN_PARI_K 0		
IARI_K 0		
OCC_RI_K 0		
PURECART		1111
MEM_STATIC		2000
MEM_TOTAL		2000
GUI		0
CHILD_MP		1
CHILD_MP_ORDERS		232
FRZ_RELAX		0
FRZ_RELAX_METHOD		0
EDA_CLS_ELEC		1
EDA_CLS_DISP		0
FRZ_ORTHO_DECOMP		1
EDA2		FALSE
FRGM_METHOD		FALSE
CIS_N_ROOTS  0
LOCAL_CIS    0
CIS_RLX_DNS  1
$end
$smx
SOLVENT			WATER
$end
--------------------------------------------------------------
 ----------------------------------------------------------------
             Standard Nuclear Orientation (Angstroms)
    I     Atom           X                Y                Z
 ----------------------------------------------------------------
    1      C      -0.3375210556    -0.0791672935    -4.8510964452
    2      C       2.0074789444    -1.0821672935    -1.3760964452
    3      C       2.3634789444     0.0078327065    -2.1780964452
    4      C       0.8714789444    -1.8421672935    -1.6930964452
    5      C       1.5854789444     0.3308327065    -3.2880964452
    6      C       0.0984789444    -1.5071672935    -2.8040964452
    7      C       0.4594789444    -0.4241672935    -3.6170964452
    8      H       2.6044789444    -1.3401672935    -0.5150964452
    9      H       3.2414789444     0.5918327065    -1.9390964452
   10      H       0.5944789444    -2.6831672935    -1.0740964452
   11      H       1.8714789444     1.1668327065    -3.9100964452
   12      H      -0.7725210556    -2.0991672935    -3.0440964452
   13      H      -0.7845210556    -0.9971672935    -5.2320964452
   14      H       0.3464789444     0.2808327065    -5.6180964452
   15      H      -1.1273330556     0.6683207065    -4.6853864452
 ----------------------------------------------------------------
 Nuclear Repulsion Energy =         269.11477632 hartrees
 There are       25 alpha and       25 beta electrons
 Requested basis set is def2-TZVPD
 There are 131 shells and 331 basis functions

 Total QAlloc Memory Limit   2000 MB
 Mega-Array Size      1956 MB
 MEM_STATIC part      2000 MB

 Citation of the SMD model:
 Marenich, A.V.; Cramer, C.J.; Truhlar, D.G.
 J. Phys. Chem. B 2009, 113, 6378-6396.
 iSolventCode=           1
 Solvent: water                                                           

 vradii
            1           2           3           4           5           6
    1   1.8500000   1.8500000   1.8500000   1.8500000   1.8500000   1.8500000
            7           8           9          10          11          12
    1   1.8500000   1.2000000   1.2000000   1.2000000   1.2000000   1.2000000
           13          14          15
    1   1.2000000   1.2000000   1.2000000
 Changing PCM_VDW_RADII to SMD_RADIUS
 Discretize the solute cavity surface with Lebedev spheres
	Using 110 Lebedev grid points for each H atom
	Using 194 Lebedev grid points for other atoms
	Atomic van der Waals radii will be scaled by 1.20
 Remove points where switching function is < 1.0e-08
 Keep 1074 surface tesserae and discard 1164 interior tesserae
 Molecular Surface Area = 132.205 Angst**2

                       Distance Matrix (Angstroms)
             C (  1)   C (  2)   C (  3)   C (  4)   C (  5)   C (  6)
   C (  2)  4.310529
   C (  3)  3.801039  1.399300
   C (  4)  3.813504  1.403063  2.425652
   C (  5)  2.511772  2.414622  1.393454  2.788503
   C (  6)  2.533671  2.421588  2.795948  1.394301  2.413228
   C (  7)  1.508970  2.802026  2.425399  2.425334  1.395042  1.401492
   H (  8)  5.389469  1.079025  2.154241  2.154757  3.394132  3.398153
   H (  9)  4.662534  2.154530  1.081231  3.406137  2.151803  3.877174
   H ( 10)  4.681364  2.156612  3.404359  1.080357  3.868859  2.149859
   H ( 11)  2.705121  3.390819  2.141301  3.869001  1.080544  3.393677
   H ( 12)  2.744972  3.397781  3.876068  2.143359  3.394790  1.080141
   H ( 13)  1.089814  4.761431  4.499649  3.997610  3.340602  2.633434
   H ( 14)  1.088919  4.755129  3.997051  4.493148  2.639417  3.343209
   H ( 15)  1.100001  4.882894  4.348392  4.387664  3.070125  3.126438
             C (  7)   H (  8)   H (  9)   H ( 10)   H ( 11)   H ( 12)
   H (  8)  3.881042
   H (  9)  3.404036  2.483177
   H ( 10)  3.404138  2.481175  4.298890
   H ( 11)  2.147295  4.283499  2.468272  4.949356
   H ( 12)  2.156798  4.286730  4.957288  2.467923  4.290390
   H ( 13)  2.117567  5.818338  5.438515  4.693954  3.672181  2.449876
   H ( 14)  2.124569  5.810922  4.691779  5.430906  2.455175  3.679951
   H ( 15)  2.202895  5.945735  5.160860  5.219054  3.137270  3.237084
             H ( 13)   H ( 14)
   H ( 14)  1.749697
   H ( 15)  1.786131  1.786678

 A cutoff of  1.0D-14 yielded   8359 shell pairs
 There are     54499 function pairs (     69451 Cartesian)
 Smallest overlap matrix eigenvalue = 5.92E-07
 Linear dependence detected in AO basis
 Tighter screening thresholds may be required for diffuse basis sets
 Use S2THRESH > 14 and THRESH = 14 in case of SCF convergence issues
 Number of orthogonalized atomic orbitals = 330
 Maximum deviation from orthogonality = 2.367E-10

 Scale SEOQF with 1.000000e-01/1.000000e-01/1.000000e-02

 Standard Electronic Orientation quadrupole field applied
 Nucleus-field energy     =     0.0000000026 hartrees
 Guess from superposition of atomic densities
 Warning:  Energy on first SCF cycle will be non-variational
 SAD guess density has 50.000000 electrons

 -----------------------------------------------------------------------
  General SCF calculation program by
  Eric Jon Sundstrom, Paul Horn, Yuezhi Mao, Dmitri Zuev, Alec White,
  David Stuck, Shaama M.S., Shane Yost, Joonho Lee, David Small,
  Daniel Levine, Susi Lehtola, Hugh Burton, Evgeny Epifanovsky,
  Bang C. Huynh
 -----------------------------------------------------------------------
 Exchange:     0.1670 Hartree-Fock + 1.0000 wB97X-V + LR-HF
 Correlation:  1.0000 wB97X-V
 Using Euler-Maclaurin-Lebedev (99,590) quadrature formula
 Nonlocal Correlation:  VV10 with C = 0.0100 and b = 6.00 and scale = 1.00000
 Grid used for NLC:  SG-1 standard quadrature
Energy prior to optimization (guess energy) = -271.528402260722
Begin Timing: Total SCF Calculation
begin iterations for algorithm: DIIS         
the SCF tolerance is set to 1.00e-08
    1    -271.5284022607      1.80e-03     00000 
    2    -271.5658042952      1.13e-03     00000 
    3    -271.5847241049      1.54e-04     00000 
    4    -271.5853979499      4.16e-05     00000 
    5    -271.5854415206      1.95e-05     00000 
    6    -271.5854479697      5.52e-06     00000 
    7    -271.5854486819      1.63e-06     00000 
    8    -271.5854487287      3.79e-07     00000 
    9    -271.5854487332      9.09e-08     00000 
   10    -271.5854487335      3.17e-08     00000 
   11    -271.5854487335      1.36e-08     00000 
   12    -271.5854487335      4.33e-09     00000 Convergence criterion met
Timing for Total SCF: 527.00s (wall), 3271.77s (cpu)
(3)  G-ENP(liq) elect-nuc-pol free energy of system     -271.585448734 a.u.
(4)  G-CDS(liq) cavity-dispersion-solvent structure 
     free energy                                                3.2040 kcal/mol
(6)  G-S(liq) free energy of system                     -271.580342897 a.u.
E_pcm = -0.0075939492
E_cds = 0.0051058366
Multipole orders to be included
        2
        3
computing dipole RHS
computing quadrupole RHS
total number of RHS in solve_reponses: 8
RHS batch sizes
        8
Beginning Block Conjugate Gradient Iterations. Batch Number: 0
computing hessian-vector products by finite difference
              1      5.87e-01     00000 Conjugate Gradient Iteration
computing hessian-vector products by finite difference
              2      1.71e-01     00000 Conjugate Gradient Iteration
computing hessian-vector products by finite difference
              3      4.09e-02     00000 Conjugate Gradient Iteration
computing hessian-vector products by finite difference
              4      1.10e-02     00000 Conjugate Gradient Iteration
computing hessian-vector products by finite difference
              5      2.09e-03     00000 Conjugate Gradient Iteration
computing hessian-vector products by finite difference
              6      6.36e-04     00000 Conjugate Gradient Iteration
computing hessian-vector products by finite difference
              7      1.55e-04     00000 Conjugate Gradient Iteration
computing hessian-vector products by finite difference
              8      2.48e-05     00000 Conjugate Gradient Iteration
computing hessian-vector products by finite difference
              9      3.20e-06     00000 Conjugate Gradient Iteration
computing hessian-vector products by finite difference
             10      5.53e-07     00000 Conjugate Gradient Iteration
computing hessian-vector products by finite difference
             11      1.07e-07     00000 Conjugate Gradient Iteration
computing hessian-vector products by finite difference
             12      1.66e-08     00000 Conjugate Gradient Iteration
computing hessian-vector products by finite difference
             13      3.61e-09     00000 CG Converged
batch 0 complete
Done Calculating Responses
TESTING ORTHOGONALIZATION OF MULTIPOLE BASIS
Multipole virts passed orthogonality test
Virts Per Order
           75
          125

 --------------------------------------------------------------

                    Orbital Energies (a.u.)
 --------------------------------------------------------------

 Alpha MOs
 -- Occupied --
-10.2788 -10.2698 -10.2694 -10.2673 -10.2660 -10.2645 -10.2537  -0.9909
 -0.8998  -0.8744  -0.8062  -0.7240  -0.7005  -0.6230  -0.5670  -0.5614
 -0.5289  -0.5247  -0.5067  -0.4792  -0.4685  -0.4353  -0.4349  -0.3466
 -0.3336
 -- Virtual --
  0.0666   0.0685   0.0697   0.0844   0.0899   0.1095   0.1158   0.1183
  0.1409   0.1587   0.1713   0.1729   0.1935   0.1951   0.2003   0.2074
  0.2274   0.2283   0.2398   0.2431   0.2566   0.2643   0.2666   0.2770
  0.2850   0.2869   0.2875   0.2976   0.2988   0.3064   0.3073   0.3144
  0.3226   0.3292   0.3363   0.3389   0.3553   0.3573   0.3700   0.3787
  0.3843   0.3861   0.3877   0.3936   0.3948   0.4049   0.4088   0.4141
  0.4155   0.4335   0.4339   0.4399   0.4458   0.4504   0.4541   0.4566
  0.4652   0.4721   0.4768   0.4868   0.4989   0.4996   0.5160   0.5211
  0.5236   0.5292   0.5368   0.5438   0.5478   0.5515   0.5544   0.5693
  0.5900   0.5924   0.5992   0.6042   0.6070   0.6256   0.6442   0.6480
  0.6615   0.6775   0.6861   0.6887   0.6901   0.6975   0.7243   0.7283
  0.7334   0.7374   0.7484   0.7615   0.7683   0.7688   0.7838   0.7923
  0.7937   0.7971   0.8005   0.8082   0.8123   0.8269   0.8305   0.8378
  0.8394   0.8419   0.8447   0.8562   0.8617   0.8803   0.8900   0.9001
  0.9105   0.9134   0.9370   0.9453   0.9551   1.0170   1.0228   1.0419
  1.0463   1.0618   1.0741   1.0847   1.0924   1.1007   1.1046   1.1407
  1.1662   1.1837   1.2505   1.2747   1.2983   1.3257   1.3486   1.3556
  1.3786   1.4369   1.4515   1.4625   1.4683   1.4855   1.5257   1.5373
  1.6009   1.6048   1.6208   1.6275   1.6692   1.6797   1.7407   1.7824
  1.7970   1.8026   1.8056   1.8153   1.8342   1.8721   1.8914   1.9183
  1.9232   1.9299   1.9571   1.9632   1.9867   1.9964   2.0189   2.0261
  2.0343   2.0529   2.0717   2.0986   2.1194   2.1282   2.1750   2.1791
  2.1991   2.2359   2.2434   2.2757   2.2939   2.3127   2.3979   2.4024
  2.4027   2.4077   2.4863   2.5092   2.5364   2.5541   2.5682   2.6164
  2.6193   2.6240   2.6765   2.6826   2.6962   2.7073   2.7570   2.7715
  2.7809   2.8097   2.8265   2.8487   2.8604   2.9025   2.9083   2.9180
  2.9385   2.9423   2.9571   2.9769   2.9905   3.0226   3.0240   3.0536
  3.0651   3.0918   3.1015   3.1248   3.1853   3.1981   3.2079   3.2258
  3.2331   3.2400   3.2923   3.3084   3.3289   3.3590   3.3674   3.3812
  3.4058   3.4454   3.4514   3.4553   3.4670   3.4767   3.4944   3.4988
  3.5092   3.5280   3.5395   3.5457   3.5601   3.5660   3.5921   3.6065
  3.6158   3.6340   3.6472   3.6869   3.7002   3.7502   3.7840   3.8148
  3.8334   3.8862   3.9140   3.9466   3.9514   4.0002   4.0308   4.0515
  4.1164   4.2011   4.2672   4.2744   4.2907   4.3147   4.3176   4.3325
  4.3439   4.3667   4.3811   4.3908   4.4246   4.4369   4.4732   4.5243
  4.5940   4.6304   4.7406   4.7557   4.8279   4.8844   4.9052   4.9466
  5.0166   5.0479   5.1632   5.2615   5.3547   5.3668   5.4937   5.5271
  5.6671   5.8466  22.5859  22.6676  22.8722  22.8893  23.0018  23.0525
 23.3992
 --------------------------------------------------------------

          Ground-State Mulliken Net Atomic Charges

     Atom                 Charge (a.u.)
  ----------------------------------------
      1 C                    -1.079041
      2 C                    -0.555006
      3 C                    -0.564231
      4 C                    -0.551356
      5 C                    -0.396059
      6 C                    -0.433326
      7 C                     0.811282
      8 H                     0.401077
      9 H                     0.374647
     10 H                     0.375323
     11 H                     0.394266
     12 H                     0.392842
     13 H                     0.293517
     14 H                     0.290151
     15 H                     0.245915
  ----------------------------------------
  Sum of atomic charges =     0.000000

 -----------------------------------------------------------------
                    Cartesian Multipole Moments
 -----------------------------------------------------------------
    Charge (ESU x 10^10)
                 0.0000
    Dipole Moment (Debye)
         X      -0.2587      Y       0.1001      Z      -0.4744
       Tot       0.5495
    Quadrupole Moments (Debye-Ang)
        XX     -40.8077     XY       3.3228     YY     -40.8903
        XZ       3.1882     YZ      -3.1310     ZZ     -37.5670
    Octopole Moments (Debye-Ang^2)
       XXX    -117.8348    XXY      34.8461    XYY     -45.3721
       YYY      78.3548    XXZ     124.9888    XYZ     -14.3667
       YYZ     122.5816    XZZ     -51.9521    YZZ      40.0062
       ZZZ     337.6185
    Hexadecapole Moments (Debye-Ang^3)
      XXXX    -544.8969   XXXY      77.4288   XXYY    -153.4777
      XYYY      68.1882   YYYY    -335.3964   XXXZ     255.8932
      XXYZ     -82.3865   XYYZ      99.0527   YYYZ    -168.3089
      XXZZ    -533.7749   XYZZ      67.3874   YYZZ    -483.8966
      XZZZ     274.6411   YZZZ    -209.9013   ZZZZ   -2408.8254
 -----------------------------------------------------------------
Archival summary:
1\1\compute-0-1.local\SP\ProcedureUnspecified\BasisUnspecified\78\meili\WedSep2923:19:222021WedSep2923:19:222021\0\\#,ProcedureUnspecified,BasisUnspecified,\\0,1\C\C,1,1.39504\H,2,1.08054,1,119.775\C,2,1.39345,1,120.868,3,-178.874,0\H,4,1.08123,2,120.282,1,179.214,0\C,4,1.3993,2,119.675,1,-0.440623,0\H,6,1.07902,4,120.187,2,179.948,0\C,1,1.40149,2,119.295,3,179.934,0\H,8,1.08014,1,120.155,2,179.803,0\C,8,1.3943,1,120.337,2,-1.23864,0\H,10,1.08036,8,120.095,1,-179.458,0\C,1,1.50897,2,119.699,3,0.921154,0\H,12,1.08892,1,108.653,2,34.5002,0\H,12,1.08981,1,108.056,2,150.084,0\H,12,1.1,1,114.293,2,-88.0037,0\\\@

 Total job time:  10720.68s(wall), 66660.41s(cpu) 
 Wed Sep 29 23:19:22 2021

        *************************************************************
        *                                                           *
        *  Thank you very much for using Q-Chem.  Have a nice day.  *
        *                                                           *
        *************************************************************


Done Job For Fragment 0
calling putenv with: QCSCRATCH=/home/meili/scratch 
calling putenv with: QCTHREADS=8 
Creating input file /home/meili/scratch/qchem41071/Frg2.input
using default PutDataFrgm: nothing
calling putenv with: QCSCRATCH=/home/meili/scratch/qchem41071/ 
Spawning Job For Fragment 1
                  Welcome to Q-Chem
     A Quantum Leap Into The Future Of Chemistry


 Q-Chem 5.2 (devel), Q-Chem, Inc., Pleasanton, CA (2019)

 Yihan Shao,  Zhengting Gan,  E. Epifanovsky,  A. T. B. Gilbert,  M. Wormit,  
 J. Kussmann,  A. W. Lange,  A. Behn,  Jia Deng,  Xintian Feng,  D. Ghosh,  
 M. Goldey,  P. R. Horn,  L. D. Jacobson,  I. Kaliman,  T. Kus,  A. Landau,  
 Jie Liu,  E. I. Proynov,  R. M. Richard,  R. P. Steele,  E. J. Sundstrom,  
 H. L. Woodcock III,  P. M. Zimmerman,  D. Zuev,  B. Albrecht,  E. Alguire,  
 S. A. Baeppler,  D. Barton,  Z. Benda,  Y. A. Bernard,  E. J. Berquist,  
 K. B. Bravaya,  H. Burton,  D. Casanova,  Chun-Min Chang,  Yunqing Chen,  
 A. Chien,  K. D. Closser,  M. P. Coons,  S. Coriani,  S. Dasgupta,  
 A. L. Dempwolff,  M. Diedenhofen,  Hainam Do,  R. G. Edgar,  Po-Tung Fang,  
 S. Faraji,  S. Fatehi,  Qingguo Feng,  K. D. Fenk,  J. Fosso-Tande,  
 J. Gayvert,  Qinghui Ge,  A. Ghysels,  G. Gidofalvi,  J. Gomes,  
 J. Gonthier,  A. Gunina,  D. Hait,  M. W. D. Hanson-Heine,  
 P. H. P. Harbach,  A. W. Hauser,  M. F. Herbst,  J. E. Herr,  
 E. G. Hohenstein,  Z. C. Holden,  Kerwin Hui,  B. C. Huynh,  T.-C. Jagau,  
 Hyunjun Ji,  B. Kaduk,  K. Khistyaev,  Jaehoon Kim,  P. Klunzinger,  K. Koh,  
 D. Kosenkov,  L. Koulias,  T. Kowalczyk,  C. M. Krauter,  A. Kunitsa,  
 Ka Un Lao,  A. Laurent,  K. V. Lawler,  Joonho Lee,  D. Lefrancois,  
 S. Lehtola,  D. S. Levine,  Yi-Pei Li,  You-Sheng Lin,  Fenglai Liu,  
 E. Livshits,  A. Luenser,  P. Manohar,  E. Mansoor,  S. F. Manzer,  
 Shan-Ping Mao,  Yuezhi Mao,  N. Mardirossian,  A. V. Marenich,  
 T. Markovich,  L. A. Martinez-Martinez,  S. A. Maurer,  N. J. Mayhall,  
 S. C. McKenzie,  J.-M. Mewes,  P. Morgante,  A. F. Morrison,  
 J. W. Mullinax,  K. Nanda,  T. S. Nguyen-Beck,  R. Olivares-Amaya,  
 J. A. Parkhill,  Zheng Pei,  T. M. Perrine,  F. Plasser,  P. Pokhilko,  
 S. Prager,  A. Prociuk,  E. Ramos,  D. R. Rehn,  F. Rob,  M. Scheurer,  
 M. Schneider,  N. Sergueev,  S. M. Sharada,  S. Sharma,  D. W. Small,  
 T. Stauch,  T. Stein,  Yu-Chuan Su,  A. J. W. Thom,  A. Tkatchenko,  
 T. Tsuchimochi,  N. M. Tubman,  L. Vogt,  M. L. Vidal,  O. Vydrov,  
 M. A. Watson,  J. Wenzel,  M. de Wergifosse,  T. A. Wesolowski,  A. White,  
 J. Witte,  A. Yamada,  Jun Yang,  K. Yao,  S. Yeganeh,  S. R. Yost,  
 Zhi-Qiang You,  A. Zech,  Igor Ying Zhang,  Xing Zhang,  Yan Zhao,  
 Ying Zhu,  B. R. Brooks,  G. K. L. Chan,  C. J. Cramer,  M. S. Gordon,  
 W. J. Hehre,  A. Klamt,  M. W. Schmidt,  C. D. Sherrill,  D. G. Truhlar,  
 A. Aspuru-Guzik,  R. Baer,  A. T. Bell,  N. A. Besley,  Jeng-Da Chai,  
 A. E. DePrince, III,  R. A. DiStasio Jr.,  A. Dreuw,  B. D. Dunietz,  
 T. R. Furlani,  Chao-Ping Hsu,  Yousung Jung,  Jing Kong,  D. S. Lambrecht,  
 WanZhen Liang,  C. Ochsenfeld,  V. A. Rassolov,  L. V. Slipchenko,  
 J. E. Subotnik,  T. Van Voorhis,  J. M. Herbert,  A. I. Krylov,  
 P. M. W. Gill,  M. Head-Gordon

 Contributors to earlier versions of Q-Chem not listed above: 
 R. D. Adamson,  B. Austin,  J. Baker,  G. J. O. Beran,  K. Brandhorst,  
 S. T. Brown,  E. F. C. Byrd,  A. K. Chakraborty,  C.-L. Cheng,  
 Siu Hung Chien,  D. M. Chipman,  D. L. Crittenden,  H. Dachsel,  
 R. J. Doerksen,  A. D. Dutoi,  L. Fusti-Molnar,  W. A. Goddard III,  
 A. Golubeva-Zadorozhnaya,  S. R. Gwaltney,  G. Hawkins,  A. Heyden,  
 S. Hirata,  G. Kedziora,  F. J. Keil,  C. Kelley,  Jihan Kim,  R. A. King,  
 R. Z. Khaliullin,  P. P. Korambath,  W. Kurlancheek,  A. M. Lee,  M. S. Lee,  
 S. V. Levchenko,  Ching Yeh Lin,  D. Liotard,  R. C. Lochan,  I. Lotan,  
 P. E. Maslen,  N. Nair,  D. P. O'Neill,  D. Neuhauser,  E. Neuscamman,  
 C. M. Oana,  R. Olson,  B. Peters,  R. Peverati,  P. A. Pieniazek,  
 Y. M. Rhee,  J. Ritchie,  M. A. Rohrdanz,  E. Rosta,  N. J. Russ,  
 H. F. Schaefer III,  N. E. Schultz,  N. Shenvi,  A. C. Simmonett,  A. Sodt,  
 D. Stuck,  K. S. Thanthiriwatte,  V. Vanovschi,  Tao Wang,  A. Warshel,  
 C. F. Williams,  Q. Wu,  X. Xu,  W. Zhang

 Please cite Q-Chem as follows:
 Y. Shao et al., Mol. Phys. 113, 184-215 (2015)
 DOI: 10.1080/00268976.2014.952696

 Q-Chem 5.2.1 for Intel X86 EM64T Linux

 Parts of Q-Chem use Armadillo 8.300.2 (Tropical Shenanigans).
 http://arma.sourceforge.net/

 Q-Chem begins on Wed Sep 29 23:19:22 2021  

compute-0-1.local
Host: 0

     Scratch files written to /home/meili/scratch/qchem41071//Frg2//
NAlpha2: 66
NElect   66
Mult     1
Symmetry turned off for PCM/SM12/SMD calculation

Checking the input file for inconsistencies... 	...done.

--------------------------------------------------------------
User input:
--------------------------------------------------------------
$molecule
0 1
 6	0.2984789444	1.6798327065	0.1879035548
 6	-0.2775210556	3.0818327065	0.1069035548
 6	-0.2765210556	0.8848327065	1.3309035548
 6	0.1044789444	1.1648327065	2.6429035548
 6	-1.2015210556	-0.1351672935	1.1009035548
 6	-0.4105210556	0.4328327065	3.7099035548
 6	-1.7255210556	-0.8791672935	2.1619035548
 6	-1.3205210556	-0.5921672935	3.4709035548
 8	-1.7805210556	-1.3071672935	4.5299035548
 1	0.1184789444	1.1568327065	-0.7530964452
 1	1.3794789444	1.7478327065	0.3259035548
 1	-0.1835210556	3.5448327065	1.0909035548
 1	0.8214789444	1.9528327065	2.8369035548
 1	-1.5045210556	-0.3631672935	0.0869035548
 1	-0.0935210556	0.6578327065	4.7189035548
 1	-2.4285210556	-1.6751672935	1.9799035548
 1	-1.4055210556	-0.9901672935	5.3529035548
 1	-1.3307870556	3.0284449065	-0.2057964452
 1	0.2495149444	3.6965872065	-0.6376164452
$end
$rem
EDA2		1
METHOD		WB97X-V
BASIS		DEF2-TZVPD
XC_GRID		000099000590
NL_GRID		1
UNRESTRICTED		FALSE
MAX_SCF_CYCLES		200
SYMMETRY		FALSE
SYM_IGNORE		TRUE
BASIS_LIN_DEP_THRESH		6
THRESH		14
SCF_CONVERGENCE		8
SCF_PRINT_FRGM		TRUE
SOLVENT_METHOD		SMD
!required keywords
JOBTYPE		SP
SYM_IGNORE		TRUE
SUBSYSTEM		TRUE
GEN_SCFMAN		TRUE
CHILD_INSTRUCTION		2
SYM_IGNORE		TRUE
SCFMI		0
RI_K 0		
PARI_K 0		
MIN_PARI_K 0		
IARI_K 0		
OCC_RI_K 0		
PURECART		1111
MEM_STATIC		2000
MEM_TOTAL		2000
GUI		0
CHILD_MP		1
CHILD_MP_ORDERS		232
FRZ_RELAX		0
FRZ_RELAX_METHOD		0
EDA_CLS_ELEC		1
EDA_CLS_DISP		0
FRZ_ORTHO_DECOMP		1
EDA2		FALSE
FRGM_METHOD		FALSE
CIS_N_ROOTS  0
LOCAL_CIS    0
CIS_RLX_DNS  1
$end
$smx
SOLVENT			WATER
$end
--------------------------------------------------------------
 ----------------------------------------------------------------
             Standard Nuclear Orientation (Angstroms)
    I     Atom           X                Y                Z
 ----------------------------------------------------------------
    1      C       0.2984789444     1.6798327065     0.1879035548
    2      C      -0.2775210556     3.0818327065     0.1069035548
    3      C      -0.2765210556     0.8848327065     1.3309035548
    4      C       0.1044789444     1.1648327065     2.6429035548
    5      C      -1.2015210556    -0.1351672935     1.1009035548
    6      C      -0.4105210556     0.4328327065     3.7099035548
    7      C      -1.7255210556    -0.8791672935     2.1619035548
    8      C      -1.3205210556    -0.5921672935     3.4709035548
    9      O      -1.7805210556    -1.3071672935     4.5299035548
   10      H       0.1184789444     1.1568327065    -0.7530964452
   11      H       1.3794789444     1.7478327065     0.3259035548
   12      H      -0.1835210556     3.5448327065     1.0909035548
   13      H       0.8214789444     1.9528327065     2.8369035548
   14      H      -1.5045210556    -0.3631672935     0.0869035548
   15      H      -0.0935210556     0.6578327065     4.7189035548
   16      H      -2.4285210556    -1.6751672935     1.9799035548
   17      H      -1.4055210556    -0.9901672935     5.3529035548
   18      H      -1.3307870556     3.0284449065    -0.2057964452
   19      H       0.2495149444     3.6965872065    -0.6376164452
 ----------------------------------------------------------------
 Nuclear Repulsion Energy =         419.53146146 hartrees
 There are       33 alpha and       33 beta electrons
 Requested basis set is def2-TZVPD
 There are 168 shells and 426 basis functions

 Total QAlloc Memory Limit   2000 MB
 Mega-Array Size      1956 MB
 MEM_STATIC part      2000 MB

 Citation of the SMD model:
 Marenich, A.V.; Cramer, C.J.; Truhlar, D.G.
 J. Phys. Chem. B 2009, 113, 6378-6396.
 iSolventCode=           1
 Solvent: water                                                           

 vradii
            1           2           3           4           5           6
    1   1.8500000   1.8500000   1.8500000   1.8500000   1.8500000   1.8500000
            7           8           9          10          11          12
    1   1.8500000   1.8500000   1.5200000   1.2000000   1.2000000   1.2000000
           13          14          15          16          17          18
    1   1.2000000   1.2000000   1.2000000   1.2000000   1.2000000   1.2000000
           19
    1   1.2000000
 Changing PCM_VDW_RADII to SMD_RADIUS
 Discretize the solute cavity surface with Lebedev spheres
	Using 110 Lebedev grid points for each H atom
	Using 194 Lebedev grid points for other atoms
	Atomic van der Waals radii will be scaled by 1.20
 Remove points where switching function is < 1.0e-08
 Keep 1371 surface tesserae and discard 1475 interior tesserae
 Molecular Surface Area = 161.328 Angst**2
 A cutoff of  1.0D-14 yielded  13236 shell pairs
 There are     86624 function pairs (    110105 Cartesian)
 Smallest overlap matrix eigenvalue = 5.16E-07
 Linear dependence detected in AO basis
 Tighter screening thresholds may be required for diffuse basis sets
 Use S2THRESH > 14 and THRESH = 14 in case of SCF convergence issues
 Number of orthogonalized atomic orbitals = 425
 Maximum deviation from orthogonality = 1.953E-10

 Scale SEOQF with 1.000000e-01/1.000000e-01/1.000000e-02

 Standard Electronic Orientation quadrupole field applied
 Nucleus-field energy     =     0.0000000089 hartrees
 Guess from superposition of atomic densities
 Warning:  Energy on first SCF cycle will be non-variational
 SAD guess density has 66.000000 electrons

 -----------------------------------------------------------------------
  General SCF calculation program by
  Eric Jon Sundstrom, Paul Horn, Yuezhi Mao, Dmitri Zuev, Alec White,
  David Stuck, Shaama M.S., Shane Yost, Joonho Lee, David Small,
  Daniel Levine, Susi Lehtola, Hugh Burton, Evgeny Epifanovsky,
  Bang C. Huynh
 -----------------------------------------------------------------------
 Exchange:     0.1670 Hartree-Fock + 1.0000 wB97X-V + LR-HF
 Correlation:  1.0000 wB97X-V
 Using Euler-Maclaurin-Lebedev (99,590) quadrature formula
 Nonlocal Correlation:  VV10 with C = 0.0100 and b = 6.00 and scale = 1.00000
 Grid used for NLC:  SG-1 standard quadrature
Energy prior to optimization (guess energy) = -386.040431023326
Begin Timing: Total SCF Calculation
begin iterations for algorithm: DIIS         
the SCF tolerance is set to 1.00e-08
    1    -386.0404310233      2.00e-03     00000 
    2    -386.0968978308      1.56e-03     00000 
    3    -386.1404534344      2.72e-04     00000 
    4    -386.1423246143      1.22e-04     00000 
    5    -386.1427535572      3.47e-05     00000 
    6    -386.1427886880      1.10e-05     00000 
    7    -386.1427925333      4.98e-06     00000 
    8    -386.1427933556      1.18e-06     00000 
    9    -386.1427934535      5.31e-07     00000 
   10    -386.1427934731      2.47e-07     00000 
   11    -386.1427934781      6.77e-08     00000 
   12    -386.1427934786      3.00e-08     00000 
   13    -386.1427934787      9.00e-09     00000 Convergence criterion met
Timing for Total SCF: 1151.00s (wall), 7385.19s (cpu)
(3)  G-ENP(liq) elect-nuc-pol free energy of system     -386.142793479 a.u.
(4)  G-CDS(liq) cavity-dispersion-solvent structure 
     free energy                                                4.1122 kcal/mol
(6)  G-S(liq) free energy of system                     -386.136240255 a.u.
E_pcm = -0.0178503248
E_cds = 0.0065532238
Multipole orders to be included
        2
        3
computing dipole RHS
computing quadrupole RHS
total number of RHS in solve_reponses: 8
RHS batch sizes
        8
Beginning Block Conjugate Gradient Iterations. Batch Number: 0
computing hessian-vector products by finite difference
              1      6.14e-01     00000 Conjugate Gradient Iteration
computing hessian-vector products by finite difference
              2      1.95e-01     00000 Conjugate Gradient Iteration
computing hessian-vector products by finite difference
              3      5.42e-02     00000 Conjugate Gradient Iteration
computing hessian-vector products by finite difference
              4      1.71e-02     00000 Conjugate Gradient Iteration
computing hessian-vector products by finite difference
              5      5.64e-03     00000 Conjugate Gradient Iteration
computing hessian-vector products by finite difference
              6      1.61e-03     00000 Conjugate Gradient Iteration
computing hessian-vector products by finite difference
              7      3.88e-04     00000 Conjugate Gradient Iteration
computing hessian-vector products by finite difference
              8      7.65e-05     00000 Conjugate Gradient Iteration
computing hessian-vector products by finite difference
              9      1.37e-05     00000 Conjugate Gradient Iteration
computing hessian-vector products by finite difference
             10      2.10e-06     00000 Conjugate Gradient Iteration
computing hessian-vector products by finite difference
             11      3.36e-07     00000 Conjugate Gradient Iteration
computing hessian-vector products by finite difference
             12      6.12e-08     00000 Conjugate Gradient Iteration
computing hessian-vector products by finite difference
             13      1.03e-08     00000 Conjugate Gradient Iteration
computing hessian-vector products by finite difference
             14      2.35e-09     00000 CG Converged
batch 0 complete
Done Calculating Responses
TESTING ORTHOGONALIZATION OF MULTIPOLE BASIS
Multipole virts passed orthogonality test
Virts Per Order
           99
          165

 --------------------------------------------------------------

                    Orbital Energies (a.u.)
 --------------------------------------------------------------

 Alpha MOs
 -- Occupied --
-19.2399 -10.3318 -10.2700 -10.2685 -10.2677 -10.2675 -10.2652 -10.2563
-10.2484  -1.1934  -0.9910  -0.9139  -0.8783  -0.8440  -0.7528  -0.7407
 -0.6981  -0.6601  -0.6035  -0.5790  -0.5477  -0.5386  -0.5340  -0.5247
 -0.5172  -0.4884  -0.4728  -0.4461  -0.4353  -0.4314  -0.4249  -0.3487
 -0.3088
 -- Virtual --
  0.0631   0.0643   0.0734   0.0822   0.0875   0.0959   0.1022   0.1137
  0.1151   0.1195   0.1343   0.1476   0.1590   0.1655   0.1755   0.1814
  0.1911   0.1952   0.2019   0.2072   0.2168   0.2249   0.2333   0.2381
  0.2450   0.2530   0.2578   0.2687   0.2740   0.2774   0.2846   0.2887
  0.2957   0.2977   0.3019   0.3055   0.3094   0.3137   0.3236   0.3286
  0.3329   0.3359   0.3519   0.3538   0.3566   0.3628   0.3647   0.3660
  0.3703   0.3738   0.3755   0.3818   0.3855   0.3862   0.3960   0.4001
  0.4053   0.4132   0.4204   0.4225   0.4280   0.4340   0.4396   0.4416
  0.4507   0.4548   0.4624   0.4685   0.4701   0.4804   0.4857   0.4869
  0.4928   0.4947   0.4969   0.5062   0.5101   0.5164   0.5201   0.5262
  0.5326   0.5393   0.5449   0.5498   0.5572   0.5593   0.5741   0.5786
  0.5854   0.5922   0.5969   0.6014   0.6050   0.6213   0.6266   0.6276
  0.6457   0.6481   0.6628   0.6726   0.6742   0.6763   0.6877   0.6919
  0.6974   0.7072   0.7102   0.7188   0.7229   0.7291   0.7314   0.7405
  0.7467   0.7521   0.7578   0.7704   0.7738   0.7760   0.7858   0.7925
  0.7928   0.8018   0.8055   0.8102   0.8120   0.8171   0.8213   0.8269
  0.8323   0.8379   0.8524   0.8595   0.8637   0.8655   0.8717   0.8787
  0.8935   0.8974   0.9116   0.9199   0.9408   0.9447   0.9644   0.9773
  0.9961   1.0000   1.0126   1.0220   1.0337   1.0375   1.0572   1.0636
  1.0768   1.0852   1.0974   1.1010   1.1175   1.1193   1.1284   1.1672
  1.1794   1.1895   1.2391   1.2401   1.2618   1.2877   1.3133   1.3314
  1.3358   1.3501   1.3727   1.3878   1.4018   1.4153   1.4226   1.4456
  1.4663   1.4823   1.4858   1.5058   1.5176   1.5516   1.5743   1.5870
  1.6276   1.6453   1.6609   1.6689   1.6935   1.7338   1.7581   1.7702
  1.7847   1.8166   1.8328   1.8430   1.8591   1.8705   1.8908   1.8978
  1.9182   1.9305   1.9396   1.9530   1.9836   1.9918   2.0052   2.0111
  2.0140   2.0424   2.0447   2.0601   2.0670   2.0720   2.0761   2.0912
  2.1144   2.1442   2.1631   2.1805   2.2103   2.2169   2.2269   2.2588
  2.2699   2.2934   2.3200   2.3257   2.3339   2.3741   2.3792   2.4108
  2.4187   2.4240   2.4599   2.4987   2.5051   2.5273   2.5456   2.5562
  2.5875   2.6105   2.6265   2.6372   2.6572   2.6624   2.6880   2.7169
  2.7298   2.7477   2.7715   2.7833   2.7890   2.8092   2.8296   2.8380
  2.8497   2.8687   2.8847   2.9049   2.9162   2.9394   2.9434   2.9521
  2.9721   2.9787   2.9992   3.0054   3.0235   3.0282   3.0481   3.0654
  3.0824   3.0927   3.1283   3.1484   3.1597   3.1809   3.1885   3.2191
  3.2284   3.2579   3.2688   3.2832   3.2899   3.3066   3.3284   3.3637
  3.3686   3.3903   3.3985   3.4256   3.4406   3.4488   3.4683   3.4780
  3.4805   3.4980   3.5099   3.5175   3.5234   3.5404   3.5446   3.5511
  3.5733   3.5754   3.5786   3.5974   3.6164   3.6257   3.6271   3.6607
  3.6813   3.6965   3.7019   3.7245   3.7281   3.7541   3.7921   3.8015
  3.8190   3.8307   3.8657   3.8920   3.9551   3.9701   3.9983   4.0215
  4.0605   4.0940   4.1276   4.1594   4.1797   4.2091   4.2199   4.2675
  4.2783   4.3170   4.3284   4.3359   4.3508   4.3798   4.3907   4.4084
  4.4296   4.4553   4.4795   4.5056   4.5721   4.5869   4.6376   4.6974
  4.7378   4.7644   4.7923   4.8292   4.8800   4.9099   4.9404   5.0304
  5.0622   5.0818   5.1250   5.1570   5.1782   5.3356   5.3495   5.4039
  5.4680   5.5527   5.6212   5.6654   5.7412   5.7872   5.9579   6.2210
  6.4998   6.6092   6.6330   6.8779   7.0351   7.3054   7.4648  22.6631
 22.7186  22.8299  22.9506  23.0165  23.0515  23.1982  23.5332  44.4347
 --------------------------------------------------------------

          Ground-State Mulliken Net Atomic Charges

     Atom                 Charge (a.u.)
  ----------------------------------------
      1 C                    -0.478966
      2 C                    -0.926334
      3 C                     0.395758
      4 C                    -0.529887
      5 C                    -0.468836
      6 C                    -0.447254
      7 C                    -0.884820
      8 C                     0.679029
      9 O                    -0.544316
     10 H                     0.275838
     11 H                     0.267094
     12 H                     0.282479
     13 H                     0.405003
     14 H                     0.375954
     15 H                     0.369956
     16 H                     0.408042
     17 H                     0.319666
     18 H                     0.255291
     19 H                     0.246303
  ----------------------------------------
  Sum of atomic charges =     0.000000

 -----------------------------------------------------------------
                    Cartesian Multipole Moments
 -----------------------------------------------------------------
    Charge (ESU x 10^10)
                -0.0000
    Dipole Moment (Debye)
         X       1.3965      Y       1.4023      Z       0.7216
       Tot       2.1065
    Quadrupole Moments (Debye-Ang)
        XX     -58.7068     XY       1.4551     YY     -56.7343
        XZ       5.7373     YZ       4.6718     ZZ     -39.1802
    Octopole Moments (Debye-Ang^2)
       XXX     126.1848    XXY     -30.4842    XYY      47.4856
       YYY     -91.9116    XXZ    -131.4707    XYZ      -3.4561
       YYZ    -122.8909    XZZ      51.2770    YZZ     -15.1756
       ZZZ    -212.9414
    Hexadecapole Moments (Debye-Ang^3)
      XXXX    -466.3313   XXXY     -80.4538   XXYY    -217.2990
      XYYY     -69.8796   YYYY    -859.8365   XXXZ     383.5933
      XXYZ      39.8594   XYYZ     142.7727   YYYZ      83.4326
      XXZZ    -524.0293   XYZZ     -51.0303   YYZZ    -557.6416
      XZZZ     327.6818   YZZZ      94.3540   ZZZZ   -1418.6809
 -----------------------------------------------------------------
Archival summary:
1\1\compute-0-1.local\SP\ProcedureUnspecified\BasisUnspecified\1810\meili\ThuSep3005:37:372021ThuSep3005:37:372021\0\\#,ProcedureUnspecified,BasisUnspecified,\\0,1\C\C,1,1.3946\H,2,1.0829,1,119.704\C,2,1.39267,1,120.945,3,-179.126,0\H,4,1.08129,2,119.811,1,179.276,0\C,4,1.39135,2,119.833,1,-0.124464,0\O,6,1.35805,4,118.389,2,178.508,0\H,7,0.958354,6,111.283,4,0.642523,0\C,1,1.39604,2,118.862,3,179.967,0\H,9,1.08258,1,119.58,2,-179.922,0\C,9,1.3978,1,120.812,2,-0.91542,0\H,11,1.07747,9,120.637,1,-179.114,0\C,1,1.50635,2,120.238,3,-0.408563,0\H,13,1.09152,1,109.775,2,164.108,0\H,13,1.09189,1,108.353,2,46.8838,0\C,13,1.51787,1,112.527,2,-73.6603,0\H,16,1.09154,13,108.12,1,51.5047,0\H,16,1.1,13,111.747,1,171.931,0\H,16,1.1,13,109.493,1,-69.6186,0\\\@

 Total job time:  22694.97s(wall), 144572.47s(cpu) 
 Thu Sep 30 05:37:37 2021

        *************************************************************
        *                                                           *
        *  Thank you very much for using Q-Chem.  Have a nice day.  *
        *                                                           *
        *************************************************************


Done Job For Fragment 1
calling putenv with: QCSCRATCH=/home/meili/scratch 
calling putenv with: QCTHREADS=8 
Doing General SCFMI
 Exchange:     0.1670 Hartree-Fock + 1.0000 wB97X-V + LR-HF
 Correlation:  1.0000 wB97X-V
 Using Euler-Maclaurin-Lebedev (99,590) quadrature formula
 Nonlocal Correlation:  VV10 with C = 0.0100 and b = 6.00 and scale = 1.00000
 Grid used for NLC:  SG-1 standard quadrature
performing fock build before subrot guess so that all methods have access
Printing subrot_rss_gen Method Specification:
Occupied Subspace Method is 0
Virtual Subspace Method is 0
Energy of the unrelaxed supersystem initial determinant -657.706997808267
performing fock build before subrot guess so that all methods have access
Printing subrot_rss_gen Method Specification:
Occupied Subspace Method is 0
Virtual Subspace Method is 0
Energy of the unrelaxed supersystem initial determinant w/ solvent -657.731318712127
write pseudocanon occs and virts to disk
write pseudocanon orbital energies to disk
Tolerance of ortho_decomp_scf: 1.00e-06
GDM subspace size: 20
Beginning the Orthogonal Decomposition of the Initial Supersystem Wavefunction
    1    -657.6866684554      1.65e-02     ortho_decomp Preconditoned Steepest Descent
    2    -657.6882327914      4.12e-04     ortho_decomp BFGS Step
    3    -657.6882378888      3.39e-05     ortho_decomp BFGS Step
    4    -657.6882379006      1.45e-06     ortho_decomp BFGS Step
    5    -657.6882379006      5.16e-08     ortho_decomp 00000 Convergence criterion met
 Hartree-Fock
 Hartree-Fock
 Hartree-Fock
Doing General SCFMI
 Exchange:     0.1670 Hartree-Fock + 1.0000 wB97X-V + LR-HF
 Correlation:  1.0000 wB97X-V
 Using Euler-Maclaurin-Lebedev (99,590) quadrature formula
 Nonlocal Correlation:  VV10 with C = 0.0100 and b = 6.00 and scale = 1.00000
 Grid used for NLC:  SG-1 standard quadrature
performing fock build at end of subrot_r(subrot) constructor so that all methods have access
<S^2> of initial wavefunction before polarization iterations 0.0000000000
Beginning iterations for the determination of the polarized wavefunction
Energy prior to optimization (guess energy) = -657.731318712127
Begin Timing: Total SCF Calculation
begin iterations for algorithm: DIIS         
the SCF tolerance is set to 1.00e-08
    1    -657.7313187121      3.50e-05     00000 
    2    -657.7314799730      1.59e-05     00000 
    3    -657.7315022388      7.23e-06     00000 
    4    -657.7315087347      2.40e-06     00000 
    5    -657.7315096050      1.36e-06     00000 
    6    -657.7315098780      5.60e-07     00000 
    7    -657.7315099192      3.01e-07     00000 
    8    -657.7315099275      1.44e-07     00000 
    9    -657.7315099287      6.12e-08     00000 
   10    -657.7315099290      3.23e-08     00000 
   11    -657.7315099291      1.51e-08     00000 
   12    -657.7315099291      5.20e-09     00000 Convergence criterion met
write pseudocanon occs and virts to disk
write pseudocanon orbital energies to disk
Timing for Total SCF: 5846.00s (wall), 38028.12s (cpu)
<S^2> of polarized wavefunction after polarization iterations 0.0000000000
relaxing scfmi constraint to allow all rotations in the entire AO span
Doing General SCFMI
 Exchange:     0.1670 Hartree-Fock + 1.0000 wB97X-V + LR-HF
 Correlation:  1.0000 wB97X-V
 Using Euler-Maclaurin-Lebedev (99,590) quadrature formula
 Nonlocal Correlation:  VV10 with C = 0.0100 and b = 6.00 and scale = 1.00000
 Grid used for NLC:  SG-1 standard quadrature
performing fock build at end of subrot_r(subrot) constructor so that all methods have access
<S^2> of polarized wavefunction before ct-allowed iterations 0.0000000000
Beginning iterations for the determination of the CT-Allowed wavefunction
Energy prior to optimization (guess energy) = -657.731509929147
Begin Timing: Total SCF Calculation
begin iterations for algorithm: DIIS         
the SCF tolerance is set to 1.00e-08
    1    -657.7315099291      5.26e-05     00000 
    2    -657.7321579744      4.58e-06     00000 
    3    -657.7321753361      8.27e-07     00000 
    4    -657.7321759892      3.83e-07     00000 
    5    -657.7321760405      9.32e-08     00000 
    6    -657.7321760467      3.26e-08     00000 
    7    -657.7321760471      9.41e-09     00000 Convergence criterion met
write pseudocanon occs and virts to disk
write pseudocanon orbital energies to disk
Timing for Total SCF: 3206.00s (wall), 21318.70s (cpu)
<S^2> of ct_allowed wavefunction after ct-allowed iterations 0.0000000000

================================
        Results of EDA2         
================================
Basic EDA Quantities
--------------------
Fragment Energies (Ha):
1 -271.5803428970
2 -386.1362402548
--------------------
  E_prp (kJ/mol) = 0.0000
  E_sol (kJ/mol) = 0.5144
  E_frz (kJ/mol) = -11.0269
  E_pol (kJ/mol) = -0.5020
  E_vct (kJ/mol) = -1.7489
  E_int (kJ/mol) = -12.7635
--------------------


Initial Wavefunction Decomposition
--------------------
  --------------------
  Orthogonal Fragment Subspace Decomposition:
  --------------------
     E_elec   (ELEC)   (kJ/mol) = -19.9838
     E_pauli  (PAULI)  (kJ/mol) = 29.0832
     E_disp   (DISP)   (kJ/mol) = -20.1263
     --------------------
     Terms summing to E_pauli:
     --------------------
        E_kep_pauli       (kJ/mol) = 38.2278
        E_disp_free_pauli (kJ/mol) = -9.1446
  --------------------
  Classical Frozen Decomposition:
  --------------------
     E_cls_elec  (CLS ELEC)  (kJ/mol) = -7.2540
     E_cls_pauli (CLS PAULI) (kJ/mol) = -3.7729
    [E_mod_pauli (MOD PAULI) (kJ/mol) = 16.3534 (CLS PAULI - DISP from orthogonal decomposition) ]
  --------------------
--------------------

Simplified EDA Summary (kJ/mol)
--------------------
 PREPARATION     0.0000
 SOLVATION       0.5144
 FROZEN          9.0994      (does not include dispersion)
[PAULI           29.0832]     (if this is negligible, then frozen describes electrostatics)
 DISPERSION      -20.1263
 POLARIZATION    -0.5020
 CHARGE TRANSFER -1.7489
 TOTAL           -12.7635     (PRP + SOL + FRZ + DISP + POL + CT)
--------------------

 --------------------------------------------------------------

                    Orbital Energies (a.u.)
 --------------------------------------------------------------

 Alpha MOs
 -- Occupied --
-19.2398 -10.3317 -10.2790 -10.2699 -10.2699 -10.2689 -10.2684 -10.2675
-10.2674 -10.2667 -10.2661 -10.2652 -10.2642 -10.2550 -10.2538 -10.2480
 -1.1933  -0.9914  -0.9902  -0.9134  -0.8997  -0.8783  -0.8742  -0.8437
 -0.8061  -0.7525  -0.7406  -0.7239  -0.7004  -0.6978  -0.6601  -0.6229
 -0.6035  -0.5788  -0.5668  -0.5612  -0.5478  -0.5389  -0.5341  -0.5287
 -0.5250  -0.5241  -0.5171  -0.5065  -0.4884  -0.4791  -0.4754  -0.4669
 -0.4454  -0.4353  -0.4351  -0.4344  -0.4285  -0.4245  -0.3501  -0.3450
 -0.3330  -0.3084
 -- Virtual --
  0.0591   0.0607   0.0648   0.0686   0.0698   0.0764   0.0804   0.0845
  0.0889   0.0950   0.1033   0.1073   0.1102   0.1143   0.1172   0.1223
  0.1272   0.1304   0.1384   0.1429   0.1494   0.1638   0.1658   0.1694
  0.1754   0.1777   0.1834   0.1871   0.1944   0.1964   0.2039   0.2061
  0.2127   0.2156   0.2206   0.2215   0.2285   0.2321   0.2335   0.2354
  0.2426   0.2460   0.2554   0.2562   0.2567   0.2627   0.2694   0.2716
  0.2734   0.2777   0.2798   0.2820   0.2839   0.2862   0.2906   0.2947
  0.2963   0.3024   0.3072   0.3094   0.3110   0.3129   0.3152   0.3194
  0.3230   0.3288   0.3305   0.3349   0.3355   0.3399   0.3416   0.3452
  0.3477   0.3527   0.3549   0.3600   0.3607   0.3619   0.3649   0.3703
  0.3726   0.3744   0.3759   0.3774   0.3810   0.3827   0.3844   0.3882
  0.3897   0.3923   0.3953   0.3984   0.4022   0.4073   0.4099   0.4131
  0.4168   0.4189   0.4219   0.4223   0.4279   0.4293   0.4308   0.4348
  0.4416   0.4447   0.4467   0.4480   0.4495   0.4522   0.4541   0.4551
  0.4630   0.4639   0.4681   0.4740   0.4752   0.4765   0.4805   0.4828
  0.4855   0.4917   0.4931   0.4995   0.5020   0.5023   0.5033   0.5077
  0.5103   0.5143   0.5169   0.5181   0.5236   0.5272   0.5312   0.5347
  0.5375   0.5416   0.5472   0.5517   0.5536   0.5566   0.5603   0.5643
  0.5663   0.5722   0.5741   0.5764   0.5805   0.5856   0.5897   0.5954
  0.5990   0.6022   0.6078   0.6091   0.6109   0.6203   0.6222   0.6282
  0.6330   0.6362   0.6381   0.6435   0.6511   0.6528   0.6580   0.6591
  0.6615   0.6668   0.6723   0.6738   0.6797   0.6840   0.6864   0.6877
  0.6930   0.6960   0.6983   0.7052   0.7097   0.7107   0.7164   0.7182
  0.7238   0.7277   0.7306   0.7363   0.7419   0.7436   0.7467   0.7486
  0.7509   0.7549   0.7619   0.7636   0.7661   0.7704   0.7741   0.7765
  0.7831   0.7858   0.7879   0.7897   0.7927   0.7957   0.7989   0.8043
  0.8079   0.8105   0.8140   0.8143   0.8163   0.8223   0.8271   0.8311
  0.8363   0.8370   0.8391   0.8418   0.8482   0.8489   0.8509   0.8549
  0.8575   0.8624   0.8657   0.8680   0.8712   0.8747   0.8773   0.8798
  0.8863   0.8890   0.8918   0.9024   0.9045   0.9118   0.9146   0.9180
  0.9211   0.9326   0.9366   0.9401   0.9465   0.9512   0.9559   0.9627
  0.9674   0.9727   0.9757   0.9882   0.9917   0.9951   0.9991   1.0120
  1.0144   1.0183   1.0248   1.0350   1.0391   1.0451   1.0577   1.0598
  1.0698   1.0783   1.0823   1.0884   1.0919   1.1063   1.1104   1.1168
  1.1206   1.1290   1.1387   1.1454   1.1513   1.1589   1.1631   1.1692
  1.1769   1.1844   1.1976   1.2167   1.2273   1.2309   1.2375   1.2552
  1.2658   1.2721   1.2770   1.2993   1.3049   1.3157   1.3314   1.3378
  1.3475   1.3479   1.3682   1.3728   1.3765   1.3884   1.3984   1.4063
  1.4081   1.4253   1.4371   1.4452   1.4496   1.4641   1.4727   1.4791
  1.4818   1.4954   1.5035   1.5174   1.5274   1.5372   1.5424   1.5457
  1.5588   1.5623   1.5738   1.5829   1.6138   1.6198   1.6291   1.6362
  1.6505   1.6565   1.6641   1.6700   1.6784   1.6928   1.7014   1.7188
  1.7298   1.7478   1.7675   1.7938   1.7984   1.8029   1.8092   1.8141
  1.8238   1.8297   1.8465   1.8551   1.8629   1.8809   1.8915   1.9023
  1.9148   1.9209   1.9274   1.9300   1.9348   1.9439   1.9583   1.9647
  1.9679   1.9738   1.9792   1.9920   2.0023   2.0050   2.0155   2.0240
  2.0309   2.0447   2.0473   2.0496   2.0563   2.0679   2.0702   2.0774
  2.0836   2.0896   2.1001   2.1017   2.1144   2.1161   2.1240   2.1301
  2.1540   2.1707   2.1779   2.1858   2.1927   2.2158   2.2180   2.2230
  2.2274   2.2339   2.2413   2.2484   2.2632   2.2771   2.2913   2.3030
  2.3045   2.3163   2.3243   2.3299   2.3342   2.3425   2.3562   2.3678
  2.3834   2.3947   2.4099   2.4172   2.4235   2.4351   2.4385   2.4454
  2.4683   2.4736   2.4918   2.5063   2.5166   2.5337   2.5369   2.5521
  2.5656   2.5685   2.5811   2.5908   2.6044   2.6116   2.6318   2.6345
  2.6525   2.6544   2.6577   2.6638   2.6790   2.6920   2.6951   2.7020
  2.7150   2.7169   2.7346   2.7548   2.7580   2.7637   2.7725   2.7875
  2.7941   2.8052   2.8166   2.8210   2.8268   2.8364   2.8469   2.8520
  2.8542   2.8685   2.8765   2.8947   2.9017   2.9147   2.9211   2.9326
  2.9418   2.9434   2.9532   2.9555   2.9640   2.9745   2.9763   2.9839
  2.9907   2.9952   3.0056   3.0100   3.0146   3.0260   3.0326   3.0402
  3.0495   3.0650   3.0693   3.0723   3.0766   3.0906   3.1013   3.1080
  3.1201   3.1231   3.1339   3.1482   3.1573   3.1659   3.1774   3.2028
  3.2059   3.2200   3.2305   3.2383   3.2407   3.2491   3.2718   3.2858
  3.2898   3.2979   3.2983   3.3181   3.3212   3.3275   3.3399   3.3461
  3.3481   3.3630   3.3808   3.3843   3.4034   3.4059   3.4247   3.4301
  3.4411   3.4484   3.4499   3.4636   3.4692   3.4714   3.4776   3.4814
  3.4897   3.4951   3.4967   3.4983   3.5067   3.5102   3.5137   3.5276
  3.5342   3.5418   3.5485   3.5494   3.5565   3.5620   3.5648   3.5695
  3.5764   3.5788   3.5834   3.5951   3.5982   3.5994   3.6070   3.6153
  3.6179   3.6274   3.6347   3.6503   3.6545   3.6583   3.6633   3.6791
  3.6924   3.6963   3.7025   3.7043   3.7148   3.7282   3.7365   3.7399
  3.7780   3.7839   3.7961   3.8042   3.8203   3.8273   3.8302   3.8475
  3.8546   3.8758   3.8988   3.9088   3.9277   3.9590   3.9667   3.9717
  3.9836   4.0120   4.0182   4.0371   4.0590   4.0804   4.0999   4.1124
  4.1319   4.1609   4.1834   4.1871   4.2228   4.2408   4.2455   4.2800
  4.2816   4.2858   4.2943   4.3049   4.3232   4.3259   4.3292   4.3384
  4.3481   4.3510   4.3601   4.3616   4.3744   4.3847   4.3944   4.4004
  4.4079   4.4235   4.4387   4.4494   4.4587   4.4750   4.4862   4.4917
  4.5223   4.5450   4.5876   4.6093   4.6147   4.6464   4.6584   4.7160
  4.7471   4.7500   4.7681   4.7726   4.8113   4.8353   4.8401   4.8932
  4.9096   4.9268   4.9339   4.9548   4.9688   5.0366   5.0414   5.0626
  5.0779   5.0930   5.1445   5.1737   5.1798   5.1889   5.2753   5.3364
  5.3596   5.3631   5.3708   5.4046   5.4876   5.5018   5.5279   5.5634
  5.6220   5.6657   5.6778   5.7545   5.7738   5.8384   5.9585   6.2211
  6.4939   6.6089   6.6349   6.8800   7.0372   7.3064   7.4682  22.6739
 22.7022  22.7367  22.7604  22.8962  22.9423  22.9564  22.9746  23.0296
 23.0684  23.0733  23.0889  23.2124  23.4141  23.5379  44.4463
 --------------------------------------------------------------

          Ground-State Mulliken Net Atomic Charges

     Atom                 Charge (a.u.)
  ----------------------------------------
      1 C                    -1.252530
      2 C                    -0.595891
      3 C                    -0.427582
      4 C                    -0.483617
      5 C                    -0.481524
      6 C                    -0.547372
      7 C                     0.959401
      8 H                     0.393857
      9 H                     0.403181
     10 H                     0.415221
     11 H                     0.390658
     12 H                     0.396507
     13 H                     0.306197
     14 H                     0.305269
     15 H                     0.247878
     16 C                     0.187848
     17 C                    -1.185840
     18 C                     0.316349
     19 C                    -0.665619
     20 C                    -0.378906
     21 C                    -0.382331
     22 C                    -0.893351
     23 C                     0.587326
     24 O                    -0.532262
     25 H                    -0.250433
     26 H                     0.297288
     27 H                     0.313044
     28 H                     0.413295
     29 H                     0.467941
     30 H                     0.369459
     31 H                     0.418974
     32 H                     0.326484
     33 H                     0.299427
     34 H                     0.261654
  ----------------------------------------
  Sum of atomic charges =     0.000000

 -----------------------------------------------------------------
                    Cartesian Multipole Moments
 -----------------------------------------------------------------
    Charge (ESU x 10^10)
                -0.0000
    Dipole Moment (Debye)
         X       1.1572      Y       1.5099      Z       0.2424
       Tot       1.9177
    Quadrupole Moments (Debye-Ang)
        XX     -99.6790     XY       4.8730     YY     -97.8387
        XZ       8.9796     YZ       1.4912     ZZ     -76.9325
    Octopole Moments (Debye-Ang^2)
       XXX       7.9258    XXY       4.5598    XYY       2.0361
       YYY     -13.8790    XXZ      -6.1176    XYZ     -17.9909
       YYZ      -0.2378    XZZ      -1.0031    YZZ      24.8778
       ZZZ     124.9070
    Hexadecapole Moments (Debye-Ang^3)
      XXXX   -1013.7613   XXXY      -2.2473   XXYY    -371.5388
      XYYY      -1.1754   YYYY   -1198.1993   XXXZ     641.0002
      XXYZ     -43.0538   XYYZ     242.1927   YYYZ     -85.3153
      XXZZ   -1059.4604   XYZZ      16.7005   YYZZ   -1042.3896
      XZZZ     603.9136   YZZZ    -115.7541   ZZZZ   -3830.1113
 -----------------------------------------------------------------
Archival summary:
1\1\compute-0-1.local\SP\ProcedureUnspecified\BasisUnspecified\11518\meili\ThuSep3010:23:342021ThuSep3010:23:342021\0\\#,ProcedureUnspecified,BasisUnspecified,\\0,1\C\C,1,1.3946\H,2,1.0829,1,119.704\C,2,1.39267,1,120.945,3,-179.126,0\H,4,1.08129,2,119.811,1,179.276,0\C,4,1.39135,2,119.833,1,-0.124464,0\O,6,1.35805,4,118.389,2,178.508,0\H,7,0.958354,6,111.283,4,0.642523,0\C,1,1.39604,2,118.862,3,179.967,0\H,9,1.08258,1,119.58,2,-179.922,0\C,9,1.3978,1,120.812,2,-0.91542,0\H,11,1.07747,9,120.637,1,-179.114,0\C,1,1.50635,2,120.238,3,-0.408563,0\H,13,1.09152,1,109.775,2,164.108,0\H,13,1.09189,1,108.353,2,46.8838,0\C,13,1.51787,1,112.527,2,-73.6603,0\H,16,1.09154,13,108.12,1,51.5047,0\H,16,1.1,13,111.747,1,171.931,0\H,16,1.1,13,109.493,1,-69.6186,0\C,14,2.8967,13,119.101,1,-111.042,0\H,20,1.08123,14,107.84,13,-28.3088,0\C,20,1.39345,14,82.3693,13,-147.738,0\H,22,1.08054,20,119.347,14,106.578,0\C,22,1.39504,20,120.868,14,-74.5431,0\C,20,1.3993,14,80.2037,13,90.2553,0\H,25,1.07902,20,120.187,14,-104.736,0\C,24,1.40149,22,119.295,20,1.06038,0\H,27,1.08014,24,120.155,22,179.803,0\C,27,1.3943,24,120.337,22,-1.23864,0\H,29,1.08036,27,120.095,24,-179.458,0\C,24,1.50897,22,119.699,20,-177.953,0\H,31,1.08892,24,108.653,22,34.5002,0\H,31,1.08981,24,108.056,22,150.084,0\H,31,1.1,24,114.293,22,-88.0037,0\\\@

 Total job time:  50582.28s(wall), 114737.25s(cpu) 
 Thu Sep 30 10:23:34 2021

        *************************************************************
        *                                                           *
        *  Thank you very much for using Q-Chem.  Have a nice day.  *
        *                                                           *
        *************************************************************


