                  Welcome to Q-Chem
     A Quantum Leap Into The Future Of Chemistry


 Q-Chem 5.2 (devel), Q-Chem, Inc., Pleasanton, CA (2019)

 Yihan Shao,  Zhengting Gan,  E. Epifanovsky,  A. T. B. Gilbert,  M. Wormit,  
 J. Kussmann,  A. W. Lange,  A. Behn,  Jia Deng,  Xintian Feng,  D. Ghosh,  
 M. Goldey,  P. R. Horn,  L. D. Jacobson,  I. Kaliman,  T. Kus,  A. Landau,  
 Jie Liu,  E. I. Proynov,  R. M. Richard,  R. P. Steele,  E. J. Sundstrom,  
 H. L. Woodcock III,  P. M. Zimmerman,  D. Zuev,  B. Albrecht,  E. Alguire,  
 S. A. Baeppler,  D. Barton,  Z. Benda,  Y. A. Bernard,  E. J. Berquist,  
 K. B. Bravaya,  H. Burton,  D. Casanova,  Chun-Min Chang,  Yunqing Chen,  
 A. Chien,  K. D. Closser,  M. P. Coons,  S. Coriani,  S. Dasgupta,  
 A. L. Dempwolff,  M. Diedenhofen,  Hainam Do,  R. G. Edgar,  Po-Tung Fang,  
 S. Faraji,  S. Fatehi,  Qingguo Feng,  K. D. Fenk,  J. Fosso-Tande,  
 J. Gayvert,  Qinghui Ge,  A. Ghysels,  G. Gidofalvi,  J. Gomes,  
 J. Gonthier,  A. Gunina,  D. Hait,  M. W. D. Hanson-Heine,  
 P. H. P. Harbach,  A. W. Hauser,  M. F. Herbst,  J. E. Herr,  
 E. G. Hohenstein,  Z. C. Holden,  Kerwin Hui,  B. C. Huynh,  T.-C. Jagau,  
 Hyunjun Ji,  B. Kaduk,  K. Khistyaev,  Jaehoon Kim,  P. Klunzinger,  K. Koh,  
 D. Kosenkov,  L. Koulias,  T. Kowalczyk,  C. M. Krauter,  A. Kunitsa,  
 Ka Un Lao,  A. Laurent,  K. V. Lawler,  Joonho Lee,  D. Lefrancois,  
 S. Lehtola,  D. S. Levine,  Yi-Pei Li,  You-Sheng Lin,  Fenglai Liu,  
 E. Livshits,  A. Luenser,  P. Manohar,  E. Mansoor,  S. F. Manzer,  
 Shan-Ping Mao,  Yuezhi Mao,  N. Mardirossian,  A. V. Marenich,  
 T. Markovich,  L. A. Martinez-Martinez,  S. A. Maurer,  N. J. Mayhall,  
 S. C. McKenzie,  J.-M. Mewes,  P. Morgante,  A. F. Morrison,  
 J. W. Mullinax,  K. Nanda,  T. S. Nguyen-Beck,  R. Olivares-Amaya,  
 J. A. Parkhill,  Zheng Pei,  T. M. Perrine,  F. Plasser,  P. Pokhilko,  
 S. Prager,  A. Prociuk,  E. Ramos,  D. R. Rehn,  F. Rob,  M. Scheurer,  
 M. Schneider,  N. Sergueev,  S. M. Sharada,  S. Sharma,  D. W. Small,  
 T. Stauch,  T. Stein,  Yu-Chuan Su,  A. J. W. Thom,  A. Tkatchenko,  
 T. Tsuchimochi,  N. M. Tubman,  L. Vogt,  M. L. Vidal,  O. Vydrov,  
 M. A. Watson,  J. Wenzel,  M. de Wergifosse,  T. A. Wesolowski,  A. White,  
 J. Witte,  A. Yamada,  Jun Yang,  K. Yao,  S. Yeganeh,  S. R. Yost,  
 Zhi-Qiang You,  A. Zech,  Igor Ying Zhang,  Xing Zhang,  Yan Zhao,  
 Ying Zhu,  B. R. Brooks,  G. K. L. Chan,  C. J. Cramer,  M. S. Gordon,  
 W. J. Hehre,  A. Klamt,  M. W. Schmidt,  C. D. Sherrill,  D. G. Truhlar,  
 A. Aspuru-Guzik,  R. Baer,  A. T. Bell,  N. A. Besley,  Jeng-Da Chai,  
 A. E. DePrince, III,  R. A. DiStasio Jr.,  A. Dreuw,  B. D. Dunietz,  
 T. R. Furlani,  Chao-Ping Hsu,  Yousung Jung,  Jing Kong,  D. S. Lambrecht,  
 WanZhen Liang,  C. Ochsenfeld,  V. A. Rassolov,  L. V. Slipchenko,  
 J. E. Subotnik,  T. Van Voorhis,  J. M. Herbert,  A. I. Krylov,  
 P. M. W. Gill,  M. Head-Gordon

 Contributors to earlier versions of Q-Chem not listed above: 
 R. D. Adamson,  B. Austin,  J. Baker,  G. J. O. Beran,  K. Brandhorst,  
 S. T. Brown,  E. F. C. Byrd,  A. K. Chakraborty,  C.-L. Cheng,  
 Siu Hung Chien,  D. M. Chipman,  D. L. Crittenden,  H. Dachsel,  
 R. J. Doerksen,  A. D. Dutoi,  L. Fusti-Molnar,  W. A. Goddard III,  
 A. Golubeva-Zadorozhnaya,  S. R. Gwaltney,  G. Hawkins,  A. Heyden,  
 S. Hirata,  G. Kedziora,  F. J. Keil,  C. Kelley,  Jihan Kim,  R. A. King,  
 R. Z. Khaliullin,  P. P. Korambath,  W. Kurlancheek,  A. M. Lee,  M. S. Lee,  
 S. V. Levchenko,  Ching Yeh Lin,  D. Liotard,  R. C. Lochan,  I. Lotan,  
 P. E. Maslen,  N. Nair,  D. P. O'Neill,  D. Neuhauser,  E. Neuscamman,  
 C. M. Oana,  R. Olson,  B. Peters,  R. Peverati,  P. A. Pieniazek,  
 Y. M. Rhee,  J. Ritchie,  M. A. Rohrdanz,  E. Rosta,  N. J. Russ,  
 H. F. Schaefer III,  N. E. Schultz,  N. Shenvi,  A. C. Simmonett,  A. Sodt,  
 D. Stuck,  K. S. Thanthiriwatte,  V. Vanovschi,  Tao Wang,  A. Warshel,  
 C. F. Williams,  Q. Wu,  X. Xu,  W. Zhang

 Please cite Q-Chem as follows:
 Y. Shao et al., Mol. Phys. 113, 184-215 (2015)
 DOI: 10.1080/00268976.2014.952696

 Q-Chem 5.2.1 for Intel X86 EM64T Linux

 Parts of Q-Chem use Armadillo 8.300.2 (Tropical Shenanigans).
 http://arma.sourceforge.net/

 Q-Chem begins on Wed Sep 29 11:13:30 2021  

compute-0-13.local
Host: 0

     Scratch files written to /home/meili/scratch/qchem22415//
NAlpha2: 128
NElect   128
Mult     1
Symmetry turned off for PCM/SM12/SMD calculation

 Q-Chem warning in module libgen/rem_setup.C, line 2813:

 Neither GIA nor STOLL is specified by user. Use STOLL as the default


Checking the input file for inconsistencies... 	...done.

--------------------------------------------------------------
User input:
--------------------------------------------------------------
$comment
SSI-062TRP-164PHE-1.pdb
$end

$molecule
0 1
--
0 1
C    0.159436079825    1.297019277619   -2.167150632275
C    0.021436079825    1.180019277619   -3.690150632275
C    0.975436079825    0.224019277619   -1.493150632275
C    2.270436079825    0.307019277619   -1.074150632275
C    0.523436079825   -1.090980722381   -1.123150632275
C    1.604436079825   -1.751980722381   -0.481150632275
C   -0.690563920175   -1.770980722381   -1.259150632275
C    1.503436079825   -3.046980722381    0.006849367725
C   -0.793563920175   -3.074980722381   -0.774150632275
C    0.293436079825   -3.702980722381   -0.151150632275
N    2.649436079825   -0.866980722381   -0.464150632275
H    0.574436079825    2.274019277619   -1.914150632275
H   -0.838563920175    1.255019277619   -1.728150632275
H   -0.158563920175    0.134019277619   -3.917150632275
H    2.901436079825    1.183019277619   -1.190150632275
H    3.558436079825   -1.023980722381   -0.043150632275
H   -1.530563920175   -1.289980722381   -1.738150632275
H    2.341436079825   -3.523980722381    0.494849367725
H   -1.730563920175   -3.602980722381   -0.877150632275
H    0.185436079825   -4.715980722381    0.215849367725
H    0.943536079825    1.526849277619   -4.179480632275
H   -0.843553920175    1.773029277619   -4.022010632275
--
0 1
C    1.011436079825    2.651019277619    1.764849367725
C   -0.567563920175    0.713019277619    1.535849367725
C   -0.365563920175    2.060019277619    1.811849367725
C   -1.843563920175    0.166019277619    1.583849367725
C   -1.450563920175    2.846019277619    2.188849367725
C   -2.926563920175    0.959019277619    1.946849367725
C   -2.729563920175    2.296019277619    2.259849367725
H    0.272436079825    0.085019277619    1.283849367725
H   -1.989563920175   -0.879980722381    1.349849367725
H    0.941436079825    3.656019277619    1.347849367725
H    1.633436079825    2.063019277619    1.089849367725
H   -1.304563920175    3.890019277619    2.428849367725
H   -3.920563920175    0.533019277619    1.993849367725
H   -3.566563920175    2.911019277619    2.558849367725
H    1.493946079825    2.699269277619    2.752199367725
$end

$rem
JOBTYPE			EDA
EDA2			1
method			wB97X-V
BASIS			def2-TZVPD
XC_GRID			000099000590
NL_GRID			1
UNRESTRICTED		FALSE
MAX_SCF_CYCLES		200
SYMMETRY		FALSE
SYM_IGNORE		TRUE
MEM_STATIC		2000
BASIS_LIN_DEP_THRESH 	6
THRESH 			14
SCF_CONVERGENCE 	8
SCF_PRINT_FRGM 		TRUE
SOLVENT_METHOD          PCM
$end

$PCM
THEORY                  CPCM
METHOD                  SWIG
SOLVER                  INVERSION
RADII                   UFF
HPOINTS                 302
HEAVYPOINTS             302
PRINTLEVEL              0
$END

$SOLVENT
DIELECTRIC              78.390000 ! water
$END
--------------------------------------------------------------
 ----------------------------------------------------------------
             Standard Nuclear Orientation (Angstroms)
    I     Atom           X                Y                Z
 ----------------------------------------------------------------
    1      C       0.1594360798     1.2970192776    -2.1671506323
    2      C       0.0214360798     1.1800192776    -3.6901506323
    3      C       0.9754360798     0.2240192776    -1.4931506323
    4      C       2.2704360798     0.3070192776    -1.0741506323
    5      C       0.5234360798    -1.0909807224    -1.1231506323
    6      C       1.6044360798    -1.7519807224    -0.4811506323
    7      C      -0.6905639202    -1.7709807224    -1.2591506323
    8      C       1.5034360798    -3.0469807224     0.0068493677
    9      C      -0.7935639202    -3.0749807224    -0.7741506323
   10      C       0.2934360798    -3.7029807224    -0.1511506323
   11      N       2.6494360798    -0.8669807224    -0.4641506323
   12      H       0.5744360798     2.2740192776    -1.9141506323
   13      H      -0.8385639202     1.2550192776    -1.7281506323
   14      H      -0.1585639202     0.1340192776    -3.9171506323
   15      H       2.9014360798     1.1830192776    -1.1901506323
   16      H       3.5584360798    -1.0239807224    -0.0431506323
   17      H      -1.5305639202    -1.2899807224    -1.7381506323
   18      H       2.3414360798    -3.5239807224     0.4948493677
   19      H      -1.7305639202    -3.6029807224    -0.8771506323
   20      H       0.1854360798    -4.7159807224     0.2158493677
   21      H       0.9435360798     1.5268492776    -4.1794806323
   22      H      -0.8435539202     1.7730292776    -4.0220106323
   23      C       1.0114360798     2.6510192776     1.7648493677
   24      C      -0.5675639202     0.7130192776     1.5358493677
   25      C      -0.3655639202     2.0600192776     1.8118493677
   26      C      -1.8435639202     0.1660192776     1.5838493677
   27      C      -1.4505639202     2.8460192776     2.1888493677
   28      C      -2.9265639202     0.9590192776     1.9468493677
   29      C      -2.7295639202     2.2960192776     2.2598493677
   30      H       0.2724360798     0.0850192776     1.2838493677
   31      H      -1.9895639202    -0.8799807224     1.3498493677
   32      H       0.9414360798     3.6560192776     1.3478493677
   33      H       1.6334360798     2.0630192776     1.0898493677
   34      H      -1.3045639202     3.8900192776     2.4288493677
   35      H      -3.9205639202     0.5330192776     1.9938493677
   36      H      -3.5665639202     2.9110192776     2.5588493677
   37      H       1.4939460798     2.6992692776     2.7521993677
 ----------------------------------------------------------------
 Nuclear Repulsion Energy =        1243.87252093 hartrees
 There are       64 alpha and       64 beta electrons
 Requested basis set is def2-TZVPD
 There are 329 shells and 837 basis functions

 Total QAlloc Memory Limit   2000 MB
 Mega-Array Size      1956 MB
 MEM_STATIC part      2000 MB
 Discretize the solute cavity surface with Lebedev spheres
	Using 302 Lebedev grid points for each H atom
	Using 302 Lebedev grid points for other atoms
	Atomic van der Waals radii will be scaled by 1.20
 Remove points where switching function is < 1.0e-08
 Keep 3825 surface tesserae and discard 7349 interior tesserae
 Molecular Surface Area = 360.037 Angst**2
 A cutoff of  1.0D-14 yielded  46666 shell pairs
 There are    304502 function pairs (    385762 Cartesian)
 Smallest overlap matrix eigenvalue = 3.46E-07
 Linear dependence detected in AO basis
 Tighter screening thresholds may be required for diffuse basis sets
 Use S2THRESH > 14 and THRESH = 14 in case of SCF convergence issues
 Number of orthogonalized atomic orbitals = 830
 Maximum deviation from orthogonality = 1.730E-10

 Scale SEOQF with 1.000000e-01/1.000000e-01/1.000000e-01

 Standard Electronic Orientation quadrupole field applied
 Nucleus-field energy     =     0.0000000078 hartrees

 -----------------------------------------------------------------------
  General SCF calculation program by
  Eric Jon Sundstrom, Paul Horn, Yuezhi Mao, Dmitri Zuev, Alec White,
  David Stuck, Shaama M.S., Shane Yost, Joonho Lee, David Small,
  Daniel Levine, Susi Lehtola, Hugh Burton, Evgeny Epifanovsky,
  Bang C. Huynh
 -----------------------------------------------------------------------
================================================================
                 ALMO-EDA with the EDA2 driver                  
================================================================
 The second-generation ALMO-EDA (for DFT):                      
 P. R. Horn, Y. Mao and M. Head-Gordon, PCCP, 18, 23067 (2016)  
 Decomposition of the frozen energy:                            
 P. R. Horn, Y. Mao and M. Head-Gordon, JCP, 144, 114107 (2016) 
 FERF model for polarization:                                   
 P. R. Horn and M. Head-Gordon, JCP, 143, 114111 (2015)         
Using eda2 option set 1
Option set summary: Frozen orbital wavefunction, initial wavefunction decomposition, and nDQ polarization.
--------------------------------
Printing EDA Options
--------------------------------
eda_child_super_basis      0
fragmo_guess_mode          0
child_mp                   1
child_mp_orders            232
cls_elec                   1
cls_disp                   0
scfmi_mode                 1
scfmi_occs                 0
scfmi_virts                0
frz_relax                  0
frz_relax_method           0
dc_pen_start               0
dc_pen_conv                0
dc_pen_increment           0
dc_pen_steps               0
dc_pen_thresh_factor       0
dc_pen_pre_newton_thresh   0
frz_ortho_decomp           1
frz_ortho_decomp_conv      6
frgm_method                2
scfmi_freeze_ss            0
separate_rehyb             0
plot_diff_den              0
eda_nocv                   0
eda_vct_relax              1
disp_free_x                0
disp_free_c                0
eda_bsse                   0
eda_pct_a                  0
eda_covp                   0
--------------------------------
Attempting to make child job directory: /home/meili/scratch/qchem22415//Frg1/
Attempting to make child job directory: /home/meili/scratch/qchem22415//Frg2/
Creating input file /home/meili/scratch/qchem22415/Frg1.input
using default PutDataFrgm: nothing
calling putenv with: QCSCRATCH=/home/meili/scratch/qchem22415/ 
Spawning Job For Fragment 0
                  Welcome to Q-Chem
     A Quantum Leap Into The Future Of Chemistry


 Q-Chem 5.2 (devel), Q-Chem, Inc., Pleasanton, CA (2019)

 Yihan Shao,  Zhengting Gan,  E. Epifanovsky,  A. T. B. Gilbert,  M. Wormit,  
 J. Kussmann,  A. W. Lange,  A. Behn,  Jia Deng,  Xintian Feng,  D. Ghosh,  
 M. Goldey,  P. R. Horn,  L. D. Jacobson,  I. Kaliman,  T. Kus,  A. Landau,  
 Jie Liu,  E. I. Proynov,  R. M. Richard,  R. P. Steele,  E. J. Sundstrom,  
 H. L. Woodcock III,  P. M. Zimmerman,  D. Zuev,  B. Albrecht,  E. Alguire,  
 S. A. Baeppler,  D. Barton,  Z. Benda,  Y. A. Bernard,  E. J. Berquist,  
 K. B. Bravaya,  H. Burton,  D. Casanova,  Chun-Min Chang,  Yunqing Chen,  
 A. Chien,  K. D. Closser,  M. P. Coons,  S. Coriani,  S. Dasgupta,  
 A. L. Dempwolff,  M. Diedenhofen,  Hainam Do,  R. G. Edgar,  Po-Tung Fang,  
 S. Faraji,  S. Fatehi,  Qingguo Feng,  K. D. Fenk,  J. Fosso-Tande,  
 J. Gayvert,  Qinghui Ge,  A. Ghysels,  G. Gidofalvi,  J. Gomes,  
 J. Gonthier,  A. Gunina,  D. Hait,  M. W. D. Hanson-Heine,  
 P. H. P. Harbach,  A. W. Hauser,  M. F. Herbst,  J. E. Herr,  
 E. G. Hohenstein,  Z. C. Holden,  Kerwin Hui,  B. C. Huynh,  T.-C. Jagau,  
 Hyunjun Ji,  B. Kaduk,  K. Khistyaev,  Jaehoon Kim,  P. Klunzinger,  K. Koh,  
 D. Kosenkov,  L. Koulias,  T. Kowalczyk,  C. M. Krauter,  A. Kunitsa,  
 Ka Un Lao,  A. Laurent,  K. V. Lawler,  Joonho Lee,  D. Lefrancois,  
 S. Lehtola,  D. S. Levine,  Yi-Pei Li,  You-Sheng Lin,  Fenglai Liu,  
 E. Livshits,  A. Luenser,  P. Manohar,  E. Mansoor,  S. F. Manzer,  
 Shan-Ping Mao,  Yuezhi Mao,  N. Mardirossian,  A. V. Marenich,  
 T. Markovich,  L. A. Martinez-Martinez,  S. A. Maurer,  N. J. Mayhall,  
 S. C. McKenzie,  J.-M. Mewes,  P. Morgante,  A. F. Morrison,  
 J. W. Mullinax,  K. Nanda,  T. S. Nguyen-Beck,  R. Olivares-Amaya,  
 J. A. Parkhill,  Zheng Pei,  T. M. Perrine,  F. Plasser,  P. Pokhilko,  
 S. Prager,  A. Prociuk,  E. Ramos,  D. R. Rehn,  F. Rob,  M. Scheurer,  
 M. Schneider,  N. Sergueev,  S. M. Sharada,  S. Sharma,  D. W. Small,  
 T. Stauch,  T. Stein,  Yu-Chuan Su,  A. J. W. Thom,  A. Tkatchenko,  
 T. Tsuchimochi,  N. M. Tubman,  L. Vogt,  M. L. Vidal,  O. Vydrov,  
 M. A. Watson,  J. Wenzel,  M. de Wergifosse,  T. A. Wesolowski,  A. White,  
 J. Witte,  A. Yamada,  Jun Yang,  K. Yao,  S. Yeganeh,  S. R. Yost,  
 Zhi-Qiang You,  A. Zech,  Igor Ying Zhang,  Xing Zhang,  Yan Zhao,  
 Ying Zhu,  B. R. Brooks,  G. K. L. Chan,  C. J. Cramer,  M. S. Gordon,  
 W. J. Hehre,  A. Klamt,  M. W. Schmidt,  C. D. Sherrill,  D. G. Truhlar,  
 A. Aspuru-Guzik,  R. Baer,  A. T. Bell,  N. A. Besley,  Jeng-Da Chai,  
 A. E. DePrince, III,  R. A. DiStasio Jr.,  A. Dreuw,  B. D. Dunietz,  
 T. R. Furlani,  Chao-Ping Hsu,  Yousung Jung,  Jing Kong,  D. S. Lambrecht,  
 WanZhen Liang,  C. Ochsenfeld,  V. A. Rassolov,  L. V. Slipchenko,  
 J. E. Subotnik,  T. Van Voorhis,  J. M. Herbert,  A. I. Krylov,  
 P. M. W. Gill,  M. Head-Gordon

 Contributors to earlier versions of Q-Chem not listed above: 
 R. D. Adamson,  B. Austin,  J. Baker,  G. J. O. Beran,  K. Brandhorst,  
 S. T. Brown,  E. F. C. Byrd,  A. K. Chakraborty,  C.-L. Cheng,  
 Siu Hung Chien,  D. M. Chipman,  D. L. Crittenden,  H. Dachsel,  
 R. J. Doerksen,  A. D. Dutoi,  L. Fusti-Molnar,  W. A. Goddard III,  
 A. Golubeva-Zadorozhnaya,  S. R. Gwaltney,  G. Hawkins,  A. Heyden,  
 S. Hirata,  G. Kedziora,  F. J. Keil,  C. Kelley,  Jihan Kim,  R. A. King,  
 R. Z. Khaliullin,  P. P. Korambath,  W. Kurlancheek,  A. M. Lee,  M. S. Lee,  
 S. V. Levchenko,  Ching Yeh Lin,  D. Liotard,  R. C. Lochan,  I. Lotan,  
 P. E. Maslen,  N. Nair,  D. P. O'Neill,  D. Neuhauser,  E. Neuscamman,  
 C. M. Oana,  R. Olson,  B. Peters,  R. Peverati,  P. A. Pieniazek,  
 Y. M. Rhee,  J. Ritchie,  M. A. Rohrdanz,  E. Rosta,  N. J. Russ,  
 H. F. Schaefer III,  N. E. Schultz,  N. Shenvi,  A. C. Simmonett,  A. Sodt,  
 D. Stuck,  K. S. Thanthiriwatte,  V. Vanovschi,  Tao Wang,  A. Warshel,  
 C. F. Williams,  Q. Wu,  X. Xu,  W. Zhang

 Please cite Q-Chem as follows:
 Y. Shao et al., Mol. Phys. 113, 184-215 (2015)
 DOI: 10.1080/00268976.2014.952696

 Q-Chem 5.2.1 for Intel X86 EM64T Linux

 Parts of Q-Chem use Armadillo 8.300.2 (Tropical Shenanigans).
 http://arma.sourceforge.net/

 Q-Chem begins on Wed Sep 29 11:13:39 2021  

compute-0-13.local
Host: 0

     Scratch files written to /home/meili/scratch/qchem22415//Frg1//
NAlpha2: 78
NElect   78
Mult     1
Symmetry turned off for PCM/SM12/SMD calculation

Checking the input file for inconsistencies... 	...done.

--------------------------------------------------------------
User input:
--------------------------------------------------------------
$molecule
0 1
 6	0.1594360798	1.2970192776	-2.1671506323
 6	0.0214360798	1.1800192776	-3.6901506323
 6	0.9754360798	0.2240192776	-1.4931506323
 6	2.2704360798	0.3070192776	-1.0741506323
 6	0.5234360798	-1.0909807224	-1.1231506323
 6	1.6044360798	-1.7519807224	-0.4811506323
 6	-0.6905639202	-1.7709807224	-1.2591506323
 6	1.5034360798	-3.0469807224	0.0068493677
 6	-0.7935639202	-3.0749807224	-0.7741506323
 6	0.2934360798	-3.7029807224	-0.1511506323
 7	2.6494360798	-0.8669807224	-0.4641506323
 1	0.5744360798	2.2740192776	-1.9141506323
 1	-0.8385639202	1.2550192776	-1.7281506323
 1	-0.1585639202	0.1340192776	-3.9171506323
 1	2.9014360798	1.1830192776	-1.1901506323
 1	3.5584360798	-1.0239807224	-0.0431506323
 1	-1.5305639202	-1.2899807224	-1.7381506323
 1	2.3414360798	-3.5239807224	0.4948493677
 1	-1.7305639202	-3.6029807224	-0.8771506323
 1	0.1854360798	-4.7159807224	0.2158493677
 1	0.9435360798	1.5268492776	-4.1794806323
 1	-0.8435539202	1.7730292776	-4.0220106323
$end
$rem
EDA2		1
METHOD		WB97X-V
BASIS		DEF2-TZVPD
XC_GRID		000099000590
NL_GRID		1
UNRESTRICTED		FALSE
MAX_SCF_CYCLES		200
SYMMETRY		FALSE
SYM_IGNORE		TRUE
BASIS_LIN_DEP_THRESH		6
THRESH		14
SCF_CONVERGENCE		8
SCF_PRINT_FRGM		TRUE
SOLVENT_METHOD		PCM
!required keywords
JOBTYPE		SP
SYM_IGNORE		TRUE
SUBSYSTEM		TRUE
GEN_SCFMAN		TRUE
CHILD_INSTRUCTION		2
SYM_IGNORE		TRUE
SCFMI		0
RI_K 0		
PARI_K 0		
MIN_PARI_K 0		
IARI_K 0		
OCC_RI_K 0		
PURECART		1111
MEM_STATIC		2000
MEM_TOTAL		2000
GUI		0
CHILD_MP		1
CHILD_MP_ORDERS		232
FRZ_RELAX		0
FRZ_RELAX_METHOD		0
EDA_CLS_ELEC		1
EDA_CLS_DISP		0
FRZ_ORTHO_DECOMP		1
EDA2		FALSE
FRGM_METHOD		FALSE
CIS_N_ROOTS  0
LOCAL_CIS    0
CIS_RLX_DNS  1
$end
$pcm
THEORY                  CPCM
METHOD                  SWIG
SOLVER                  INVERSION
RADII                   UFF
HPOINTS                 302
HEAVYPOINTS             302
PRINTLEVEL              0
$end
$solvent
DIELECTRIC              78.390000 ! water
$end
--------------------------------------------------------------
 ----------------------------------------------------------------
             Standard Nuclear Orientation (Angstroms)
    I     Atom           X                Y                Z
 ----------------------------------------------------------------
    1      C       0.1594360798     1.2970192776    -2.1671506323
    2      C       0.0214360798     1.1800192776    -3.6901506323
    3      C       0.9754360798     0.2240192776    -1.4931506323
    4      C       2.2704360798     0.3070192776    -1.0741506323
    5      C       0.5234360798    -1.0909807224    -1.1231506323
    6      C       1.6044360798    -1.7519807224    -0.4811506323
    7      C      -0.6905639202    -1.7709807224    -1.2591506323
    8      C       1.5034360798    -3.0469807224     0.0068493677
    9      C      -0.7935639202    -3.0749807224    -0.7741506323
   10      C       0.2934360798    -3.7029807224    -0.1511506323
   11      N       2.6494360798    -0.8669807224    -0.4641506323
   12      H       0.5744360798     2.2740192776    -1.9141506323
   13      H      -0.8385639202     1.2550192776    -1.7281506323
   14      H      -0.1585639202     0.1340192776    -3.9171506323
   15      H       2.9014360798     1.1830192776    -1.1901506323
   16      H       3.5584360798    -1.0239807224    -0.0431506323
   17      H      -1.5305639202    -1.2899807224    -1.7381506323
   18      H       2.3414360798    -3.5239807224     0.4948493677
   19      H      -1.7305639202    -3.6029807224    -0.8771506323
   20      H       0.1854360798    -4.7159807224     0.2158493677
   21      H       0.9435360798     1.5268492776    -4.1794806323
   22      H      -0.8435539202     1.7730292776    -4.0220106323
 ----------------------------------------------------------------
 Nuclear Repulsion Energy =         570.67935065 hartrees
 There are       39 alpha and       39 beta electrons
 Requested basis set is def2-TZVPD
 There are 198 shells and 506 basis functions

 Total QAlloc Memory Limit   2000 MB
 Mega-Array Size      1956 MB
 MEM_STATIC part      2000 MB
 Discretize the solute cavity surface with Lebedev spheres
	Using 302 Lebedev grid points for each H atom
	Using 302 Lebedev grid points for other atoms
	Atomic van der Waals radii will be scaled by 1.20
 Remove points where switching function is < 1.0e-08
 Keep 2441 surface tesserae and discard 4203 interior tesserae
 Molecular Surface Area = 238.743 Angst**2
 A cutoff of  1.0D-14 yielded  18186 shell pairs
 There are    121240 function pairs (    155093 Cartesian)
 Smallest overlap matrix eigenvalue = 4.88E-07
 Linear dependence detected in AO basis
 Tighter screening thresholds may be required for diffuse basis sets
 Use S2THRESH > 14 and THRESH = 14 in case of SCF convergence issues
 Number of orthogonalized atomic orbitals = 503
 Maximum deviation from orthogonality = 2.009E-10

 Scale SEOQF with 1.000000e-01/1.000000e-01/1.000000e-01

 Standard Electronic Orientation quadrupole field applied
 Nucleus-field energy     =     0.0000000060 hartrees
 Guess from superposition of atomic densities
 Warning:  Energy on first SCF cycle will be non-variational
 SAD guess density has 78.000000 electrons

 -----------------------------------------------------------------------
  General SCF calculation program by
  Eric Jon Sundstrom, Paul Horn, Yuezhi Mao, Dmitri Zuev, Alec White,
  David Stuck, Shaama M.S., Shane Yost, Joonho Lee, David Small,
  Daniel Levine, Susi Lehtola, Hugh Burton, Evgeny Epifanovsky,
  Bang C. Huynh
 -----------------------------------------------------------------------
 Exchange:     0.1670 Hartree-Fock + 1.0000 wB97X-V + LR-HF
 Correlation:  1.0000 wB97X-V
 Using Euler-Maclaurin-Lebedev (99,590) quadrature formula
 Nonlocal Correlation:  VV10 with C = 0.0100 and b = 6.00 and scale = 1.00000
 Grid used for NLC:  SG-1 standard quadrature
Energy prior to optimization (guess energy) = -442.389195107866
Begin Timing: Total SCF Calculation
begin iterations for algorithm: DIIS         
the SCF tolerance is set to 1.00e-08
    1    -442.3891951079      1.56e-03     00000 
    2    -442.4412698254      1.14e-03     00000 
    3    -442.4834181507      2.41e-04     00000 
    4    -442.4850918420      1.14e-04     00000 
    5    -442.4855024864      2.27e-05     00000 
    6    -442.4855235187      8.91e-06     00000 
    7    -442.4855264565      2.65e-06     00000 
    8    -442.4855269486      6.61e-07     00000 
    9    -442.4855270122      3.20e-07     00000 
   10    -442.4855270271      1.43e-07     00000 
   11    -442.4855270309      5.74e-08     00000 
   12    -442.4855270315      2.48e-08     00000 
   13    -442.4855270316      8.94e-09     00000 Convergence criterion met
Timing for Total SCF: 2176.00s (wall), 13258.44s (cpu)

************** Final PCM Free Energy Summary **************
 G_electrostatic  =      -0.00645578 hartree =      -4.05106554 kcal/mol
 G_cavitation     =       0.00000000 hartree =       0.00000000 kcal/mol
 G_dispersion     =       0.00000000 hartree =       0.00000000 kcal/mol
 G_repulsion      =       0.00000000 hartree =       0.00000000 kcal/mol
 --------------------------------------------------
 Non-electrostatic Free Energy =       0.00000000 hartree =       0.00000000 kcal/mol
 Total                         =      -0.00645578 hartree =      -4.05106554 kcal/mol
 --------------------------------------------------
 SCF Energy (H0 + V/2)                       =    -442.48552703 
 Solute Internal Energy (H0)                 =    -442.47907125 
 Total Free Energy (H0 + V/2 + non-elec)     =    -442.48552703 hartree
                                             = -277663.85899273 kcal/mol
***********************************************************

E_pcm = -0.0064557839
Multipole orders to be included
        2
        3
computing dipole RHS
computing quadrupole RHS
total number of RHS in solve_reponses: 8
RHS batch sizes
        8
Beginning Block Conjugate Gradient Iterations. Batch Number: 0
computing hessian-vector products by finite difference
              1      6.07e-01     00000 Conjugate Gradient Iteration
computing hessian-vector products by finite difference
              2      2.06e-01     00000 Conjugate Gradient Iteration
computing hessian-vector products by finite difference
              3      5.85e-02     00000 Conjugate Gradient Iteration
computing hessian-vector products by finite difference
              4      2.22e-02     00000 Conjugate Gradient Iteration
computing hessian-vector products by finite difference
              5      8.23e-03     00000 Conjugate Gradient Iteration
computing hessian-vector products by finite difference
              6      2.38e-03     00000 Conjugate Gradient Iteration
computing hessian-vector products by finite difference
              7      5.79e-04     00000 Conjugate Gradient Iteration
computing hessian-vector products by finite difference
              8      1.18e-04     00000 Conjugate Gradient Iteration
computing hessian-vector products by finite difference
              9      2.19e-05     00000 Conjugate Gradient Iteration
computing hessian-vector products by finite difference
             10      4.11e-06     00000 Conjugate Gradient Iteration
computing hessian-vector products by finite difference
             11      7.68e-07     00000 Conjugate Gradient Iteration
computing hessian-vector products by finite difference
             12      1.40e-07     00000 Conjugate Gradient Iteration
computing hessian-vector products by finite difference
             13      2.06e-08     00000 Conjugate Gradient Iteration
computing hessian-vector products by finite difference
             14      5.55e-09     00000 CG Converged
batch 0 complete
Done Calculating Responses
TESTING ORTHOGONALIZATION OF MULTIPOLE BASIS
Multipole virts passed orthogonality test
Virts Per Order
          117
          195

 --------------------------------------------------------------

                    Orbital Energies (a.u.)
 --------------------------------------------------------------

 Alpha MOs
 -- Occupied --
-14.4507 -10.3030 -10.2978 -10.2724 -10.2715 -10.2695 -10.2675 -10.2670
-10.2653 -10.2610 -10.2559  -1.1168  -0.9799  -0.9390  -0.8840  -0.8669
 -0.8457  -0.7590  -0.7449  -0.7153  -0.6741  -0.6504  -0.6019  -0.5849
 -0.5651  -0.5538  -0.5405  -0.5365  -0.5308  -0.4970  -0.4801  -0.4659
 -0.4606  -0.4525  -0.4397  -0.4269  -0.3788  -0.3164  -0.2928
 -- Virtual --
  0.0522   0.0598   0.0741   0.0756   0.0893   0.0919   0.0958   0.0979
  0.1046   0.1238   0.1281   0.1397   0.1478   0.1577   0.1596   0.1635
  0.1678   0.1786   0.1864   0.1926   0.1976   0.2021   0.2127   0.2213
  0.2236   0.2364   0.2406   0.2436   0.2480   0.2555   0.2603   0.2639
  0.2697   0.2728   0.2759   0.2780   0.2844   0.2901   0.2926   0.2981
  0.3022   0.3056   0.3106   0.3143   0.3158   0.3251   0.3262   0.3345
  0.3394   0.3416   0.3443   0.3494   0.3516   0.3591   0.3597   0.3672
  0.3687   0.3763   0.3797   0.3854   0.3877   0.3946   0.3986   0.3994
  0.4051   0.4098   0.4149   0.4184   0.4253   0.4279   0.4296   0.4370
  0.4416   0.4467   0.4495   0.4531   0.4620   0.4642   0.4687   0.4710
  0.4790   0.4826   0.4885   0.4949   0.4992   0.5066   0.5138   0.5162
  0.5205   0.5256   0.5264   0.5301   0.5388   0.5430   0.5441   0.5508
  0.5541   0.5620   0.5655   0.5711   0.5760   0.5906   0.5970   0.6007
  0.6060   0.6095   0.6126   0.6234   0.6287   0.6373   0.6401   0.6439
  0.6527   0.6587   0.6662   0.6689   0.6759   0.6805   0.6925   0.6947
  0.6981   0.7046   0.7079   0.7151   0.7254   0.7312   0.7348   0.7383
  0.7432   0.7526   0.7561   0.7652   0.7703   0.7718   0.7769   0.7807
  0.7847   0.7911   0.7964   0.7989   0.8014   0.8060   0.8093   0.8102
  0.8182   0.8203   0.8270   0.8343   0.8381   0.8408   0.8515   0.8536
  0.8611   0.8666   0.8726   0.8761   0.8812   0.8941   0.9060   0.9098
  0.9128   0.9231   0.9373   0.9463   0.9591   0.9735   0.9805   0.9931
  1.0015   1.0116   1.0242   1.0284   1.0485   1.0667   1.0713   1.0787
  1.0862   1.0940   1.1001   1.1080   1.1096   1.1204   1.1436   1.1522
  1.1584   1.1673   1.1837   1.2062   1.2112   1.2314   1.2437   1.2546
  1.2689   1.2731   1.3111   1.3133   1.3330   1.3390   1.3544   1.3704
  1.3838   1.3914   1.4109   1.4309   1.4451   1.4498   1.4677   1.4771
  1.4923   1.5256   1.5370   1.5637   1.5773   1.5956   1.6079   1.6210
  1.6297   1.6416   1.6577   1.6698   1.7073   1.7182   1.7363   1.7629
  1.7702   1.7853   1.8077   1.8169   1.8462   1.8529   1.8705   1.8750
  1.8940   1.9045   1.9089   1.9188   1.9249   1.9463   1.9531   1.9596
  1.9733   1.9806   1.9869   1.9944   2.0093   2.0129   2.0177   2.0230
  2.0344   2.0569   2.0577   2.0700   2.0828   2.0879   2.1224   2.1271
  2.1744   2.1799   2.1916   2.1942   2.2202   2.2302   2.2530   2.2737
  2.2955   2.2984   2.3225   2.3408   2.3561   2.3874   2.3965   2.4102
  2.4367   2.4426   2.4553   2.4860   2.5052   2.5089   2.5192   2.5400
  2.5532   2.5752   2.6038   2.6078   2.6169   2.6361   2.6512   2.6702
  2.6790   2.7016   2.7066   2.7474   2.7623   2.7647   2.7831   2.7870
  2.7938   2.8079   2.8191   2.8417   2.8436   2.8527   2.8659   2.8714
  2.8888   2.8981   2.9141   2.9251   2.9360   2.9458   2.9669   2.9751
  2.9831   2.9951   3.0018   3.0171   3.0373   3.0571   3.0622   3.0750
  3.0795   3.0905   3.1149   3.1355   3.1548   3.1610   3.1839   3.1900
  3.2139   3.2306   3.2465   3.2492   3.2558   3.2783   3.2897   3.3075
  3.3136   3.3257   3.3446   3.3675   3.3782   3.3851   3.3971   3.4119
  3.4245   3.4290   3.4337   3.4523   3.4543   3.4609   3.4759   3.4905
  3.5035   3.5155   3.5199   3.5290   3.5345   3.5437   3.5548   3.5783
  3.5849   3.6011   3.6136   3.6172   3.6337   3.6418   3.6523   3.6634
  3.6769   3.6865   3.7037   3.7123   3.7186   3.7280   3.7437   3.7604
  3.7615   3.7790   3.7884   3.8082   3.8353   3.8705   3.8798   3.9012
  3.9325   3.9548   3.9826   4.0245   4.0393   4.0633   4.0769   4.1125
  4.1315   4.1703   4.1809   4.2074   4.2206   4.2294   4.2460   4.2779
  4.2867   4.2981   4.3174   4.3491   4.3544   4.3651   4.3905   4.4148
  4.4270   4.4534   4.4695   4.5182   4.5327   4.5676   4.5970   4.6258
  4.6329   4.6412   4.7058   4.7448   4.7595   4.7990   4.8408   4.8891
  4.9301   4.9412   4.9616   4.9766   4.9949   5.0138   5.0681   5.0705
  5.0950   5.1276   5.1495   5.1788   5.2036   5.2268   5.2840   5.3948
  5.4105   5.4589   5.5066   5.5612   5.6142   5.6464   5.7151   5.8171
  5.8250   5.9655   5.9790   6.2849   6.3401  22.6500  22.7611  22.7827
 22.9362  22.9578  22.9970  23.1963  23.2650  23.4884  23.8015  32.8480
 --------------------------------------------------------------

          Ground-State Mulliken Net Atomic Charges

     Atom                 Charge (a.u.)
  ----------------------------------------
      1 C                    -0.583058
      2 C                    -0.758513
      3 C                     0.596531
      4 C                    -0.576686
      5 C                     0.516220
      6 C                    -0.102849
      7 C                    -0.417303
      8 C                    -0.849498
      9 C                    -0.649878
     10 C                    -0.391190
     11 N                     0.189337
     12 H                     0.251594
     13 H                     0.272390
     14 H                     0.234430
     15 H                     0.258746
     16 H                     0.183666
     17 H                     0.361206
     18 H                     0.345047
     19 H                     0.345717
     20 H                     0.345585
     21 H                     0.225888
     22 H                     0.202617
  ----------------------------------------
  Sum of atomic charges =     0.000000

 -----------------------------------------------------------------
                    Cartesian Multipole Moments
 -----------------------------------------------------------------
    Charge (ESU x 10^10)
                -0.0000
    Dipole Moment (Debye)
         X       2.4152      Y       1.0482      Z       0.6141
       Tot       2.7035
    Quadrupole Moments (Debye-Ang)
        XX     -51.4038     XY      -0.7330     YY     -64.2660
        XZ       3.3685     YZ      -5.1120     ZZ     -70.3050
    Octopole Moments (Debye-Ang^2)
       XXX     -93.0570    XXY      57.9482    XYY     -43.2143
       YYY     199.4930    XXZ      82.3818    XYZ     -10.5595
       YYZ      91.4520    XZZ     -54.5766    YZZ      81.9411
       ZZZ     256.3198
    Hexadecapole Moments (Debye-Ang^3)
      XXXX    -613.8082   XXXY      69.0077   XXYY    -383.4399
      XYYY     111.3367   YYYY   -1660.2334   XXXZ      99.9645
      XXYZ      -5.2642   XYYZ      46.0332   YYYZ     -14.2533
      XXZZ    -335.8095   XYZZ      44.5327   YYZZ    -511.0215
      XZZZ      92.1692   YZZZ      29.5988   ZZZZ   -1229.3986
 -----------------------------------------------------------------
Archival summary:
1\1\compute-0-13.local\SP\ProcedureUnspecified\BasisUnspecified\11011\meili\ThuSep3001:45:022021ThuSep3001:45:022021\0\\#,ProcedureUnspecified,BasisUnspecified,\\0,1\C\C,1,1.3981\H,2,1.08,1,120.125\C,2,1.39508,1,119.007,3,179.684,0\H,4,1.08045,2,119.188,1,179.962,0\C,4,1.40146,2,121.073,1,0.357789,0\H,6,1.08283,4,119.506,2,-179.99,0\C,6,1.38542,4,121.06,2,0.220808,0\H,8,1.0807,6,121.315,4,179.421,0\C,8,1.38758,6,117.734,4,-0.457221,0\N,10,1.3695,8,130.865,6,179.549,0\H,11,1.01399,10,126.096,8,-1.90657,0\C,11,1.37623,10,109.61,8,-179.946,0\H,13,1.08581,11,125.137,10,179.335,0\C,13,1.36363,11,110.231,10,0.453926,0\C,15,1.50714,13,127.463,11,177.986,0\H,16,1.0911,15,106.732,13,-138.835,0\H,16,1.09122,15,109.137,13,-23.7614,0\C,16,1.53371,15,116.007,13,100.378,0\H,19,1.08538,16,107.225,15,42.5254,0\H,19,1.1,16,109.221,15,160.533,0\H,19,1.1,16,110.015,15,-77.6563,0\\\@

 Total job time:  52283.09s(wall), 321207.65s(cpu) 
 Thu Sep 30 01:45:02 2021

        *************************************************************
        *                                                           *
        *  Thank you very much for using Q-Chem.  Have a nice day.  *
        *                                                           *
        *************************************************************


Done Job For Fragment 0
calling putenv with: QCSCRATCH=/home/meili/scratch 
calling putenv with: QCTHREADS=8 
Creating input file /home/meili/scratch/qchem22415/Frg2.input
using default PutDataFrgm: nothing
calling putenv with: QCSCRATCH=/home/meili/scratch/qchem22415/ 
Spawning Job For Fragment 1
                  Welcome to Q-Chem
     A Quantum Leap Into The Future Of Chemistry


 Q-Chem 5.2 (devel), Q-Chem, Inc., Pleasanton, CA (2019)

 Yihan Shao,  Zhengting Gan,  E. Epifanovsky,  A. T. B. Gilbert,  M. Wormit,  
 J. Kussmann,  A. W. Lange,  A. Behn,  Jia Deng,  Xintian Feng,  D. Ghosh,  
 M. Goldey,  P. R. Horn,  L. D. Jacobson,  I. Kaliman,  T. Kus,  A. Landau,  
 Jie Liu,  E. I. Proynov,  R. M. Richard,  R. P. Steele,  E. J. Sundstrom,  
 H. L. Woodcock III,  P. M. Zimmerman,  D. Zuev,  B. Albrecht,  E. Alguire,  
 S. A. Baeppler,  D. Barton,  Z. Benda,  Y. A. Bernard,  E. J. Berquist,  
 K. B. Bravaya,  H. Burton,  D. Casanova,  Chun-Min Chang,  Yunqing Chen,  
 A. Chien,  K. D. Closser,  M. P. Coons,  S. Coriani,  S. Dasgupta,  
 A. L. Dempwolff,  M. Diedenhofen,  Hainam Do,  R. G. Edgar,  Po-Tung Fang,  
 S. Faraji,  S. Fatehi,  Qingguo Feng,  K. D. Fenk,  J. Fosso-Tande,  
 J. Gayvert,  Qinghui Ge,  A. Ghysels,  G. Gidofalvi,  J. Gomes,  
 J. Gonthier,  A. Gunina,  D. Hait,  M. W. D. Hanson-Heine,  
 P. H. P. Harbach,  A. W. Hauser,  M. F. Herbst,  J. E. Herr,  
 E. G. Hohenstein,  Z. C. Holden,  Kerwin Hui,  B. C. Huynh,  T.-C. Jagau,  
 Hyunjun Ji,  B. Kaduk,  K. Khistyaev,  Jaehoon Kim,  P. Klunzinger,  K. Koh,  
 D. Kosenkov,  L. Koulias,  T. Kowalczyk,  C. M. Krauter,  A. Kunitsa,  
 Ka Un Lao,  A. Laurent,  K. V. Lawler,  Joonho Lee,  D. Lefrancois,  
 S. Lehtola,  D. S. Levine,  Yi-Pei Li,  You-Sheng Lin,  Fenglai Liu,  
 E. Livshits,  A. Luenser,  P. Manohar,  E. Mansoor,  S. F. Manzer,  
 Shan-Ping Mao,  Yuezhi Mao,  N. Mardirossian,  A. V. Marenich,  
 T. Markovich,  L. A. Martinez-Martinez,  S. A. Maurer,  N. J. Mayhall,  
 S. C. McKenzie,  J.-M. Mewes,  P. Morgante,  A. F. Morrison,  
 J. W. Mullinax,  K. Nanda,  T. S. Nguyen-Beck,  R. Olivares-Amaya,  
 J. A. Parkhill,  Zheng Pei,  T. M. Perrine,  F. Plasser,  P. Pokhilko,  
 S. Prager,  A. Prociuk,  E. Ramos,  D. R. Rehn,  F. Rob,  M. Scheurer,  
 M. Schneider,  N. Sergueev,  S. M. Sharada,  S. Sharma,  D. W. Small,  
 T. Stauch,  T. Stein,  Yu-Chuan Su,  A. J. W. Thom,  A. Tkatchenko,  
 T. Tsuchimochi,  N. M. Tubman,  L. Vogt,  M. L. Vidal,  O. Vydrov,  
 M. A. Watson,  J. Wenzel,  M. de Wergifosse,  T. A. Wesolowski,  A. White,  
 J. Witte,  A. Yamada,  Jun Yang,  K. Yao,  S. Yeganeh,  S. R. Yost,  
 Zhi-Qiang You,  A. Zech,  Igor Ying Zhang,  Xing Zhang,  Yan Zhao,  
 Ying Zhu,  B. R. Brooks,  G. K. L. Chan,  C. J. Cramer,  M. S. Gordon,  
 W. J. Hehre,  A. Klamt,  M. W. Schmidt,  C. D. Sherrill,  D. G. Truhlar,  
 A. Aspuru-Guzik,  R. Baer,  A. T. Bell,  N. A. Besley,  Jeng-Da Chai,  
 A. E. DePrince, III,  R. A. DiStasio Jr.,  A. Dreuw,  B. D. Dunietz,  
 T. R. Furlani,  Chao-Ping Hsu,  Yousung Jung,  Jing Kong,  D. S. Lambrecht,  
 WanZhen Liang,  C. Ochsenfeld,  V. A. Rassolov,  L. V. Slipchenko,  
 J. E. Subotnik,  T. Van Voorhis,  J. M. Herbert,  A. I. Krylov,  
 P. M. W. Gill,  M. Head-Gordon

 Contributors to earlier versions of Q-Chem not listed above: 
 R. D. Adamson,  B. Austin,  J. Baker,  G. J. O. Beran,  K. Brandhorst,  
 S. T. Brown,  E. F. C. Byrd,  A. K. Chakraborty,  C.-L. Cheng,  
 Siu Hung Chien,  D. M. Chipman,  D. L. Crittenden,  H. Dachsel,  
 R. J. Doerksen,  A. D. Dutoi,  L. Fusti-Molnar,  W. A. Goddard III,  
 A. Golubeva-Zadorozhnaya,  S. R. Gwaltney,  G. Hawkins,  A. Heyden,  
 S. Hirata,  G. Kedziora,  F. J. Keil,  C. Kelley,  Jihan Kim,  R. A. King,  
 R. Z. Khaliullin,  P. P. Korambath,  W. Kurlancheek,  A. M. Lee,  M. S. Lee,  
 S. V. Levchenko,  Ching Yeh Lin,  D. Liotard,  R. C. Lochan,  I. Lotan,  
 P. E. Maslen,  N. Nair,  D. P. O'Neill,  D. Neuhauser,  E. Neuscamman,  
 C. M. Oana,  R. Olson,  B. Peters,  R. Peverati,  P. A. Pieniazek,  
 Y. M. Rhee,  J. Ritchie,  M. A. Rohrdanz,  E. Rosta,  N. J. Russ,  
 H. F. Schaefer III,  N. E. Schultz,  N. Shenvi,  A. C. Simmonett,  A. Sodt,  
 D. Stuck,  K. S. Thanthiriwatte,  V. Vanovschi,  Tao Wang,  A. Warshel,  
 C. F. Williams,  Q. Wu,  X. Xu,  W. Zhang

 Please cite Q-Chem as follows:
 Y. Shao et al., Mol. Phys. 113, 184-215 (2015)
 DOI: 10.1080/00268976.2014.952696

 Q-Chem 5.2.1 for Intel X86 EM64T Linux

 Parts of Q-Chem use Armadillo 8.300.2 (Tropical Shenanigans).
 http://arma.sourceforge.net/

 Q-Chem begins on Thu Sep 30 01:45:03 2021  

compute-0-13.local
Host: 0

     Scratch files written to /home/meili/scratch/qchem22415//Frg2//
NAlpha2: 50
NElect   50
Mult     1
Symmetry turned off for PCM/SM12/SMD calculation

Checking the input file for inconsistencies... 	...done.

--------------------------------------------------------------
User input:
--------------------------------------------------------------
$molecule
0 1
 6	1.0114360798	2.6510192776	1.7648493677
 6	-0.5675639202	0.7130192776	1.5358493677
 6	-0.3655639202	2.0600192776	1.8118493677
 6	-1.8435639202	0.1660192776	1.5838493677
 6	-1.4505639202	2.8460192776	2.1888493677
 6	-2.9265639202	0.9590192776	1.9468493677
 6	-2.7295639202	2.2960192776	2.2598493677
 1	0.2724360798	0.0850192776	1.2838493677
 1	-1.9895639202	-0.8799807224	1.3498493677
 1	0.9414360798	3.6560192776	1.3478493677
 1	1.6334360798	2.0630192776	1.0898493677
 1	-1.3045639202	3.8900192776	2.4288493677
 1	-3.9205639202	0.5330192776	1.9938493677
 1	-3.5665639202	2.9110192776	2.5588493677
 1	1.4939460798	2.6992692776	2.7521993677
$end
$rem
EDA2		1
METHOD		WB97X-V
BASIS		DEF2-TZVPD
XC_GRID		000099000590
NL_GRID		1
UNRESTRICTED		FALSE
MAX_SCF_CYCLES		200
SYMMETRY		FALSE
SYM_IGNORE		TRUE
BASIS_LIN_DEP_THRESH		6
THRESH		14
SCF_CONVERGENCE		8
SCF_PRINT_FRGM		TRUE
SOLVENT_METHOD		PCM
!required keywords
JOBTYPE		SP
SYM_IGNORE		TRUE
SUBSYSTEM		TRUE
GEN_SCFMAN		TRUE
CHILD_INSTRUCTION		2
SYM_IGNORE		TRUE
SCFMI		0
RI_K 0		
PARI_K 0		
MIN_PARI_K 0		
IARI_K 0		
OCC_RI_K 0		
PURECART		1111
MEM_STATIC		2000
MEM_TOTAL		2000
GUI		0
CHILD_MP		1
CHILD_MP_ORDERS		232
FRZ_RELAX		0
FRZ_RELAX_METHOD		0
EDA_CLS_ELEC		1
EDA_CLS_DISP		0
FRZ_ORTHO_DECOMP		1
EDA2		FALSE
FRGM_METHOD		FALSE
CIS_N_ROOTS  0
LOCAL_CIS    0
CIS_RLX_DNS  1
$end
$pcm
THEORY                  CPCM
METHOD                  SWIG
SOLVER                  INVERSION
RADII                   UFF
HPOINTS                 302
HEAVYPOINTS             302
PRINTLEVEL              0
$end
$solvent
DIELECTRIC              78.390000 ! water
$end
--------------------------------------------------------------
 ----------------------------------------------------------------
             Standard Nuclear Orientation (Angstroms)
    I     Atom           X                Y                Z
 ----------------------------------------------------------------
    1      C       1.0114360798     2.6510192776     1.7648493677
    2      C      -0.5675639202     0.7130192776     1.5358493677
    3      C      -0.3655639202     2.0600192776     1.8118493677
    4      C      -1.8435639202     0.1660192776     1.5838493677
    5      C      -1.4505639202     2.8460192776     2.1888493677
    6      C      -2.9265639202     0.9590192776     1.9468493677
    7      C      -2.7295639202     2.2960192776     2.2598493677
    8      H       0.2724360798     0.0850192776     1.2838493677
    9      H      -1.9895639202    -0.8799807224     1.3498493677
   10      H       0.9414360798     3.6560192776     1.3478493677
   11      H       1.6334360798     2.0630192776     1.0898493677
   12      H      -1.3045639202     3.8900192776     2.4288493677
   13      H      -3.9205639202     0.5330192776     1.9938493677
   14      H      -3.5665639202     2.9110192776     2.5588493677
   15      H       1.4939460798     2.6992692776     2.7521993677
 ----------------------------------------------------------------
 Nuclear Repulsion Energy =         270.32118554 hartrees
 There are       25 alpha and       25 beta electrons
 Requested basis set is def2-TZVPD
 There are 131 shells and 331 basis functions

 Total QAlloc Memory Limit   2000 MB
 Mega-Array Size      1956 MB
 MEM_STATIC part      2000 MB
 Discretize the solute cavity surface with Lebedev spheres
	Using 302 Lebedev grid points for each H atom
	Using 302 Lebedev grid points for other atoms
	Atomic van der Waals radii will be scaled by 1.20
 Remove points where switching function is < 1.0e-08
 Keep 1805 surface tesserae and discard 2725 interior tesserae
 Molecular Surface Area = 177.887 Angst**2

                       Distance Matrix (Angstroms)
             C (  1)   C (  2)   C (  3)   C (  4)   C (  5)   C (  6)
   C (  2)  2.510284
   C (  3)  1.499206  1.389744
   C (  4)  3.789329  1.389132  2.413235
   C (  5)  2.505842  2.399122  1.391815  2.775405
   C (  6)  4.289969  2.407139  2.790904  1.390506  2.407885
   C (  7)  3.790268  2.775664  2.417622  2.403928  1.394052  1.387208
   H (  8)  2.713271  1.078651  2.141601  2.138695  3.377999  3.381870
   H (  9)  4.652546  2.143439  3.390342  1.081752  3.857139  2.148557
   H ( 10)  1.090327  3.312654  2.114417  4.471244  2.661775  4.753318
   H ( 11)  1.090070  2.620270  2.125393  3.991513  3.366296  4.769367
   H ( 12)  2.709220  3.381412  2.147396  3.856517  1.081135  3.384371
   H ( 13)  5.372429  3.388919  3.873355  2.148655  3.389527  1.082461
   H ( 14)  4.653614  3.856389  3.395381  3.384432  2.149088  2.143466
   H ( 15)  1.100002  3.110389  2.179605  4.349870  3.001506  4.818503
             C (  7)   H (  8)   H (  9)   H ( 10)   H ( 11)   H ( 12)
   H (  8)  3.853972
   H (  9)  3.385657  2.460127
   H ( 10)  4.019650  3.633689  5.400561
   H ( 11)  4.523158  2.408826  4.674931  1.755869
   H ( 12)  2.144766  4.275041  4.938255  2.503564  3.709811
   H ( 13)  2.144156  4.276219  2.477916  5.814593  5.831383  4.278099
   H ( 14)  1.080831  4.934554  4.280221  4.726903  5.469649  2.468195
   H ( 15)  4.271189  3.237660  5.187722  1.786851  1.785407  3.058447
             H ( 13)   H ( 14)
   H ( 14)  2.469701
   H ( 15)  5.880872  5.068627

 A cutoff of  1.0D-14 yielded   8360 shell pairs
 There are     54504 function pairs (     69458 Cartesian)
 Smallest overlap matrix eigenvalue = 5.51E-07
 Linear dependence detected in AO basis
 Tighter screening thresholds may be required for diffuse basis sets
 Use S2THRESH > 14 and THRESH = 14 in case of SCF convergence issues
 Number of orthogonalized atomic orbitals = 330
 Maximum deviation from orthogonality = 3.244E-10

 Scale SEOQF with 1.000000e-01/1.000000e-01/1.000000e-01

 Standard Electronic Orientation quadrupole field applied
 Nucleus-field energy     =     0.0000000018 hartrees
 Guess from superposition of atomic densities
 Warning:  Energy on first SCF cycle will be non-variational
 SAD guess density has 50.000000 electrons

 -----------------------------------------------------------------------
  General SCF calculation program by
  Eric Jon Sundstrom, Paul Horn, Yuezhi Mao, Dmitri Zuev, Alec White,
  David Stuck, Shaama M.S., Shane Yost, Joonho Lee, David Small,
  Daniel Levine, Susi Lehtola, Hugh Burton, Evgeny Epifanovsky,
  Bang C. Huynh
 -----------------------------------------------------------------------
 Exchange:     0.1670 Hartree-Fock + 1.0000 wB97X-V + LR-HF
 Correlation:  1.0000 wB97X-V
 Using Euler-Maclaurin-Lebedev (99,590) quadrature formula
 Nonlocal Correlation:  VV10 with C = 0.0100 and b = 6.00 and scale = 1.00000
 Grid used for NLC:  SG-1 standard quadrature
Energy prior to optimization (guess energy) = -271.527095366627
Begin Timing: Total SCF Calculation
begin iterations for algorithm: DIIS         
the SCF tolerance is set to 1.00e-08
    1    -271.5270953666      1.84e-03     00000 
    2    -271.5630921982      1.14e-03     00000 
    3    -271.5812802025      1.41e-04     00000 
    4    -271.5817011503      4.27e-05     00000 
    5    -271.5817290925      1.47e-05     00000 
    6    -271.5817329925      3.16e-06     00000 
    7    -271.5817332473      9.75e-07     00000 
    8    -271.5817332651      3.71e-07     00000 
    9    -271.5817332676      6.46e-08     00000 
   10    -271.5817332678      2.90e-08     00000 
   11    -271.5817332678      6.09e-09     00000 Convergence criterion met
Timing for Total SCF: 589.00s (wall), 3367.61s (cpu)

************** Final PCM Free Energy Summary **************
 G_electrostatic  =      -0.00244794 hartree =      -1.53610479 kcal/mol
 G_cavitation     =       0.00000000 hartree =       0.00000000 kcal/mol
 G_dispersion     =       0.00000000 hartree =       0.00000000 kcal/mol
 G_repulsion      =       0.00000000 hartree =       0.00000000 kcal/mol
 --------------------------------------------------
 Non-electrostatic Free Energy =       0.00000000 hartree =       0.00000000 kcal/mol
 Total                         =      -0.00244794 hartree =      -1.53610479 kcal/mol
 --------------------------------------------------
 SCF Energy (H0 + V/2)                       =    -271.58173327 
 Solute Internal Energy (H0)                 =    -271.57928533 
 Total Free Energy (H0 + V/2 + non-elec)     =    -271.58173327 hartree
                                             = -170420.10977613 kcal/mol
***********************************************************

E_pcm = -0.0024479388
Multipole orders to be included
        2
        3
computing dipole RHS
computing quadrupole RHS
total number of RHS in solve_reponses: 8
RHS batch sizes
        8
Beginning Block Conjugate Gradient Iterations. Batch Number: 0
computing hessian-vector products by finite difference
              1      5.82e-01     00000 Conjugate Gradient Iteration
computing hessian-vector products by finite difference
              2      1.91e-01     00000 Conjugate Gradient Iteration
computing hessian-vector products by finite difference
              3      4.43e-02     00000 Conjugate Gradient Iteration
computing hessian-vector products by finite difference
              4      1.02e-02     00000 Conjugate Gradient Iteration
computing hessian-vector products by finite difference
              5      2.11e-03     00000 Conjugate Gradient Iteration
computing hessian-vector products by finite difference
              6      5.83e-04     00000 Conjugate Gradient Iteration
computing hessian-vector products by finite difference
              7      1.69e-04     00000 Conjugate Gradient Iteration
computing hessian-vector products by finite difference
              8      2.59e-05     00000 Conjugate Gradient Iteration
computing hessian-vector products by finite difference
              9      3.43e-06     00000 Conjugate Gradient Iteration
computing hessian-vector products by finite difference
             10      5.87e-07     00000 Conjugate Gradient Iteration
computing hessian-vector products by finite difference
             11      9.48e-08     00000 Conjugate Gradient Iteration
computing hessian-vector products by finite difference
             12      1.36e-08     00000 Conjugate Gradient Iteration
computing hessian-vector products by finite difference
             13      2.49e-09     00000 CG Converged
batch 0 complete
Done Calculating Responses
TESTING ORTHOGONALIZATION OF MULTIPOLE BASIS
Multipole virts passed orthogonality test
Virts Per Order
           75
          125

 --------------------------------------------------------------

                    Orbital Energies (a.u.)
 --------------------------------------------------------------

 Alpha MOs
 -- Occupied --
-10.2806 -10.2730 -10.2728 -10.2700 -10.2694 -10.2686 -10.2619  -0.9987
 -0.9086  -0.8797  -0.8138  -0.7313  -0.7061  -0.6307  -0.5749  -0.5673
 -0.5372  -0.5306  -0.5147  -0.4880  -0.4741  -0.4419  -0.4411  -0.3495
 -0.3386
 -- Virtual --
  0.0630   0.0631   0.0686   0.0791   0.0845   0.1044   0.1104   0.1136
  0.1355   0.1516   0.1654   0.1672   0.1861   0.1896   0.1948   0.2012
  0.2217   0.2254   0.2338   0.2392   0.2482   0.2575   0.2600   0.2702
  0.2769   0.2800   0.2841   0.2924   0.2938   0.3011   0.3051   0.3112
  0.3212   0.3240   0.3315   0.3347   0.3496   0.3531   0.3650   0.3726
  0.3775   0.3824   0.3836   0.3883   0.3907   0.4018   0.4026   0.4070
  0.4115   0.4279   0.4294   0.4353   0.4413   0.4476   0.4509   0.4531
  0.4624   0.4691   0.4748   0.4805   0.4927   0.4956   0.5119   0.5168
  0.5185   0.5241   0.5328   0.5379   0.5423   0.5480   0.5486   0.5658
  0.5816   0.5865   0.5958   0.5989   0.6021   0.6222   0.6389   0.6414
  0.6602   0.6734   0.6826   0.6856   0.6872   0.6982   0.7208   0.7245
  0.7292   0.7303   0.7436   0.7603   0.7639   0.7650   0.7784   0.7853
  0.7910   0.7942   0.7985   0.8023   0.8067   0.8220   0.8255   0.8321
  0.8336   0.8357   0.8429   0.8529   0.8571   0.8729   0.8905   0.8924
  0.9100   0.9151   0.9327   0.9473   0.9510   1.0088   1.0228   1.0385
  1.0457   1.0605   1.0720   1.0770   1.0885   1.0908   1.1037   1.1429
  1.1650   1.1776   1.2521   1.2761   1.2964   1.3207   1.3473   1.3500
  1.3806   1.4361   1.4493   1.4573   1.4686   1.4846   1.5263   1.5391
  1.5980   1.6032   1.6199   1.6236   1.6691   1.6773   1.7355   1.7779
  1.7894   1.7979   1.8070   1.8160   1.8309   1.8679   1.8821   1.9082
  1.9178   1.9288   1.9475   1.9621   1.9839   1.9961   2.0121   2.0227
  2.0330   2.0460   2.0693   2.0933   2.1106   2.1222   2.1728   2.1775
  2.1944   2.2350   2.2427   2.2678   2.2862   2.3127   2.3931   2.4010
  2.4078   2.4131   2.4808   2.5091   2.5363   2.5520   2.5668   2.6084
  2.6137   2.6317   2.6679   2.6710   2.6949   2.7112   2.7548   2.7718
  2.7867   2.8118   2.8214   2.8482   2.8614   2.9020   2.9090   2.9133
  2.9389   2.9423   2.9642   2.9766   2.9917   3.0154   3.0167   3.0495
  3.0639   3.0892   3.0991   3.1371   3.1793   3.1891   3.2019   3.2217
  3.2277   3.2409   3.2899   3.3033   3.3365   3.3567   3.3661   3.3792
  3.3996   3.4425   3.4472   3.4500   3.4600   3.4725   3.4876   3.5026
  3.5065   3.5287   3.5432   3.5445   3.5624   3.5789   3.5883   3.6042
  3.6169   3.6290   3.6580   3.6909   3.7101   3.7523   3.7816   3.8159
  3.8483   3.8898   3.9107   3.9603   3.9672   3.9951   4.0376   4.0567
  4.1179   4.2003   4.2687   4.2793   4.2926   4.3164   4.3236   4.3335
  4.3559   4.3757   4.3863   4.4057   4.4357   4.4516   4.4846   4.5369
  4.6013   4.6352   4.7559   4.7736   4.8344   4.8894   4.9051   4.9488
  5.0282   5.0500   5.1700   5.2658   5.3761   5.3869   5.5053   5.5345
  5.6730   5.8481  22.5770  22.6757  22.8933  22.9035  23.0207  23.0858
 23.4357
 --------------------------------------------------------------

          Ground-State Mulliken Net Atomic Charges

     Atom                 Charge (a.u.)
  ----------------------------------------
      1 C                    -1.032213
      2 C                    -0.390259
      3 C                     0.878230
      4 C                    -0.504826
      5 C                    -0.339876
      6 C                    -0.469528
      7 C                    -0.496099
      8 H                     0.316481
      9 H                     0.308792
     10 H                     0.265877
     11 H                     0.277581
     12 H                     0.330544
     13 H                     0.330683
     14 H                     0.311521
     15 H                     0.213092
  ----------------------------------------
  Sum of atomic charges =     0.000000

 -----------------------------------------------------------------
                    Cartesian Multipole Moments
 -----------------------------------------------------------------
    Charge (ESU x 10^10)
                -0.0000
    Dipole Moment (Debye)
         X       0.4470      Y       0.1887      Z       0.0429
       Tot       0.4871
    Quadrupole Moments (Debye-Ang)
        XX     -39.4187     XY       0.8560     YY     -38.0778
        XZ      -0.3013     YZ       2.2494     ZZ     -45.4770
    Octopole Moments (Debye-Ang^2)
       XXX     135.6943    XXY     -68.7703    XYY      46.7853
       YYY    -197.0060    XXZ     -69.1419    XYZ      -3.1584
       YYZ     -66.0014    XZZ      55.4169    YZZ     -68.3642
       ZZZ    -254.9631
    Hexadecapole Moments (Debye-Ang^3)
      XXXX    -860.2316   XXXY     173.5740   XXYY    -318.1963
      XYYY     176.2326   YYYY    -996.7734   XXXZ     260.0899
      XXYZ    -120.2615   XYYZ      81.7873   YYYZ    -375.5462
      XXZZ    -304.6711   XYZZ      60.4705   YYZZ    -314.7912
      XZZZ     343.8099   YZZZ    -433.1846   ZZZZ   -1036.6583
 -----------------------------------------------------------------
Archival summary:
1\1\compute-0-13.local\SP\ProcedureUnspecified\BasisUnspecified\78\meili\ThuSep3005:44:332021ThuSep3005:44:332021\0\\#,ProcedureUnspecified,BasisUnspecified,\\0,1\C\C,1,1.38974\H,2,1.07865,1,119.835\C,2,1.38913,1,120.551,3,179.886,0\H,4,1.08175,2,119.819,1,178.924,0\C,4,1.39051,2,119.992,1,-1.81215,0\H,6,1.08246,4,120.139,2,-179.438,0\C,6,1.38721,4,119.865,2,0.0292785,0\H,8,1.08083,6,120.057,4,-178.948,0\C,1,1.39182,2,119.199,3,-177.391,0\H,10,1.08113,1,120.012,2,178.579,0\C,1,1.49921,2,120.621,3,-0.0853202,0\H,12,1.09007,1,109.321,2,25.7584,0\H,12,1.09033,1,108.444,2,142.419,0\H,12,1.1,1,113.082,2,-96.1521,0\\\@

 Total job time:  14369.41s(wall), 80154.02s(cpu) 
 Thu Sep 30 05:44:33 2021

        *************************************************************
        *                                                           *
        *  Thank you very much for using Q-Chem.  Have a nice day.  *
        *                                                           *
        *************************************************************


Done Job For Fragment 1
calling putenv with: QCSCRATCH=/home/meili/scratch 
calling putenv with: QCTHREADS=8 
Doing General SCFMI
 Exchange:     0.1670 Hartree-Fock + 1.0000 wB97X-V + LR-HF
 Correlation:  1.0000 wB97X-V
 Using Euler-Maclaurin-Lebedev (99,590) quadrature formula
 Nonlocal Correlation:  VV10 with C = 0.0100 and b = 6.00 and scale = 1.00000
 Grid used for NLC:  SG-1 standard quadrature
performing fock build before subrot guess so that all methods have access
Printing subrot_rss_gen Method Specification:
Occupied Subspace Method is 0
Virtual Subspace Method is 0
Energy of the unrelaxed supersystem initial determinant -714.063641511947
performing fock build before subrot guess so that all methods have access
Printing subrot_rss_gen Method Specification:
Occupied Subspace Method is 0
Virtual Subspace Method is 0
Energy of the unrelaxed supersystem initial determinant w/ solvent -714.071689553797
write pseudocanon occs and virts to disk
write pseudocanon orbital energies to disk
Tolerance of ortho_decomp_scf: 1.00e-06
GDM subspace size: 20
Beginning the Orthogonal Decomposition of the Initial Supersystem Wavefunction
    1    -714.0291441096      2.08e-02     ortho_decomp Preconditoned Steepest Descent
    2    -714.0322585843      5.68e-04     ortho_decomp BFGS Step
    3    -714.0322701335      4.52e-05     ortho_decomp BFGS Step
    4    -714.0322701560      1.92e-06     ortho_decomp BFGS Step
    5    -714.0322701561      6.68e-08     ortho_decomp 00000 Convergence criterion met
 Hartree-Fock
 Hartree-Fock
 Hartree-Fock
Doing General SCFMI
 Exchange:     0.1670 Hartree-Fock + 1.0000 wB97X-V + LR-HF
 Correlation:  1.0000 wB97X-V
 Using Euler-Maclaurin-Lebedev (99,590) quadrature formula
 Nonlocal Correlation:  VV10 with C = 0.0100 and b = 6.00 and scale = 1.00000
 Grid used for NLC:  SG-1 standard quadrature
performing fock build at end of subrot_r(subrot) constructor so that all methods have access
<S^2> of initial wavefunction before polarization iterations 0.0000000000
Beginning iterations for the determination of the polarized wavefunction
Energy prior to optimization (guess energy) = -714.071689553797
Begin Timing: Total SCF Calculation
begin iterations for algorithm: DIIS         
the SCF tolerance is set to 1.00e-08
    1    -714.0716895538      5.36e-05     00000 
    2    -714.0721096793      3.21e-05     00000 
    3    -714.0722001113      1.41e-05     00000 
    4    -714.0722249408      4.72e-06     00000 
    5    -714.0722280137      2.56e-06     00000 
    6    -714.0722290089      1.45e-06     00000 
    7    -714.0722292586      7.92e-07     00000 
    8    -714.0722293099      4.16e-07     00000 
    9    -714.0722293204      1.95e-07     00000 
   10    -714.0722293239      1.10e-07     00000 
   11    -714.0722293258      4.40e-08     00000 
   12    -714.0722293263      2.16e-08     00000 
   13    -714.0722293264      1.03e-08     00000 
   14    -714.0722293264      4.41e-09     00000 Convergence criterion met
write pseudocanon occs and virts to disk
write pseudocanon orbital energies to disk
Timing for Total SCF: 11898.00s (wall), 73755.32s (cpu)
<S^2> of polarized wavefunction after polarization iterations 0.0000000000
relaxing scfmi constraint to allow all rotations in the entire AO span
Doing General SCFMI
 Exchange:     0.1670 Hartree-Fock + 1.0000 wB97X-V + LR-HF
 Correlation:  1.0000 wB97X-V
 Using Euler-Maclaurin-Lebedev (99,590) quadrature formula
 Nonlocal Correlation:  VV10 with C = 0.0100 and b = 6.00 and scale = 1.00000
 Grid used for NLC:  SG-1 standard quadrature
performing fock build at end of subrot_r(subrot) constructor so that all methods have access
<S^2> of polarized wavefunction before ct-allowed iterations 0.0000000000
Beginning iterations for the determination of the CT-Allowed wavefunction
Energy prior to optimization (guess energy) = -714.072229326400
Begin Timing: Total SCF Calculation
begin iterations for algorithm: DIIS         
the SCF tolerance is set to 1.00e-08
    1    -714.0722293264      6.33e-05     00000 
    2    -714.0736357736      6.66e-06     00000 
    3    -714.0736854795      1.27e-06     00000 
    4    -714.0736876669      6.24e-07     00000 
    5    -714.0736878329      1.72e-07     00000 
    6    -714.0736878534      6.84e-08     00000 
    7    -714.0736878558      1.64e-08     00000 
    8    -714.0736878560      8.77e-09     00000 Convergence criterion met
write pseudocanon occs and virts to disk
write pseudocanon orbital energies to disk
Timing for Total SCF: 6392.00s (wall), 39438.72s (cpu)
<S^2> of ct_allowed wavefunction after ct-allowed iterations 0.0000000000

================================
        Results of EDA2         
================================
Basic EDA Quantities
--------------------
Fragment Energies (Ha):
1 -442.4855270316
2 -271.5817332678
--------------------
  E_prp (kJ/mol) = 0.0000
  E_sol (kJ/mol) = 2.2466
  E_frz (kJ/mol) = -13.8758
  E_pol (kJ/mol) = -1.4172
  E_vct (kJ/mol) = -3.8294
  E_int (kJ/mol) = -16.8758
--------------------


Initial Wavefunction Decomposition
--------------------
  --------------------
  Orthogonal Fragment Subspace Decomposition:
  --------------------
     E_elec   (ELEC)   (kJ/mol) = -34.6136
     E_pauli  (PAULI)  (kJ/mol) = 52.6654
     E_disp   (DISP)   (kJ/mol) = -31.9275
     --------------------
     Terms summing to E_pauli:
     --------------------
        E_kep_pauli       (kJ/mol) = 68.4907
        E_disp_free_pauli (kJ/mol) = -15.8254
  --------------------
  Classical Frozen Decomposition:
  --------------------
     E_cls_elec  (CLS ELEC)  (kJ/mol) = -14.3754
     E_cls_pauli (CLS PAULI) (kJ/mol) = 0.4996
    [E_mod_pauli (MOD PAULI) (kJ/mol) = 32.4271 (CLS PAULI - DISP from orthogonal decomposition) ]
  --------------------
--------------------

Simplified EDA Summary (kJ/mol)
--------------------
 PREPARATION     0.0000
 SOLVATION       2.2466
 FROZEN          18.0517      (does not include dispersion)
[PAULI           52.6654]     (if this is negligible, then frozen describes electrostatics)
 DISPERSION      -31.9275
 POLARIZATION    -1.4172
 CHARGE TRANSFER -3.8294
 TOTAL           -16.8758     (PRP + SOL + FRZ + DISP + POL + CT)
--------------------

 --------------------------------------------------------------

                    Orbital Energies (a.u.)
 --------------------------------------------------------------

 Alpha MOs
 -- Occupied --
-14.4516 -10.3034 -10.2981 -10.2771 -10.2727 -10.2714 -10.2704 -10.2699
-10.2687 -10.2674 -10.2670 -10.2670 -10.2662 -10.2654 -10.2637 -10.2609
-10.2590 -10.2557  -1.1175  -0.9955  -0.9801  -0.9388  -0.9056  -0.8839
 -0.8761  -0.8673  -0.8459  -0.8110  -0.7588  -0.7451  -0.7281  -0.7155
 -0.7030  -0.6741  -0.6506  -0.6282  -0.6022  -0.5852  -0.5720  -0.5674
 -0.5640  -0.5544  -0.5406  -0.5372  -0.5344  -0.5315  -0.5237  -0.5119
 -0.4973  -0.4853  -0.4797  -0.4718  -0.4657  -0.4604  -0.4527  -0.4392
 -0.4379  -0.4374  -0.4266  -0.3793  -0.3447  -0.3360  -0.3164  -0.2928
 -- Virtual --
  0.0484   0.0568   0.0660   0.0680   0.0686   0.0702   0.0767   0.0864
  0.0887   0.0903   0.0957   0.0986   0.1020   0.1079   0.1140   0.1170
  0.1219   0.1253   0.1263   0.1379   0.1454   0.1497   0.1561   0.1598
  0.1641   0.1681   0.1721   0.1789   0.1813   0.1889   0.1922   0.1960
  0.2020   0.2070   0.2126   0.2174   0.2188   0.2224   0.2260   0.2282
  0.2307   0.2346   0.2409   0.2438   0.2475   0.2521   0.2566   0.2572
  0.2634   0.2657   0.2665   0.2695   0.2711   0.2750   0.2774   0.2812
  0.2827   0.2868   0.2904   0.2924   0.2950   0.2974   0.2996   0.3014
  0.3043   0.3109   0.3150   0.3184   0.3195   0.3229   0.3265   0.3282
  0.3307   0.3342   0.3353   0.3377   0.3408   0.3424   0.3428   0.3487
  0.3511   0.3547   0.3561   0.3594   0.3632   0.3640   0.3670   0.3704
  0.3747   0.3772   0.3821   0.3849   0.3858   0.3869   0.3888   0.3927
  0.3942   0.3986   0.4033   0.4074   0.4105   0.4118   0.4133   0.4160
  0.4200   0.4220   0.4248   0.4280   0.4296   0.4310   0.4373   0.4380
  0.4428   0.4437   0.4457   0.4473   0.4502   0.4510   0.4539   0.4577
  0.4602   0.4636   0.4670   0.4685   0.4721   0.4747   0.4787   0.4833
  0.4874   0.4906   0.4933   0.4950   0.4995   0.5014   0.5053   0.5114
  0.5132   0.5161   0.5185   0.5205   0.5246   0.5283   0.5333   0.5376
  0.5378   0.5394   0.5446   0.5465   0.5520   0.5540   0.5554   0.5619
  0.5670   0.5692   0.5700   0.5707   0.5787   0.5802   0.5875   0.5947
  0.5968   0.6000   0.6034   0.6062   0.6094   0.6140   0.6151   0.6231
  0.6248   0.6273   0.6309   0.6359   0.6362   0.6404   0.6481   0.6503
  0.6531   0.6585   0.6593   0.6644   0.6685   0.6701   0.6750   0.6765
  0.6849   0.6896   0.6903   0.6929   0.6991   0.7024   0.7045   0.7105
  0.7113   0.7143   0.7192   0.7210   0.7224   0.7263   0.7293   0.7336
  0.7361   0.7424   0.7456   0.7467   0.7471   0.7502   0.7570   0.7602
  0.7613   0.7630   0.7683   0.7707   0.7754   0.7788   0.7805   0.7844
  0.7897   0.7916   0.7944   0.7973   0.8008   0.8039   0.8060   0.8072
  0.8120   0.8142   0.8187   0.8219   0.8238   0.8276   0.8289   0.8322
  0.8330   0.8376   0.8417   0.8443   0.8483   0.8518   0.8545   0.8588
  0.8604   0.8674   0.8695   0.8704   0.8730   0.8796   0.8820   0.8839
  0.8876   0.8946   0.8968   0.9041   0.9119   0.9143   0.9151   0.9196
  0.9204   0.9281   0.9341   0.9379   0.9402   0.9478   0.9553   0.9592
  0.9602   0.9661   0.9711   0.9764   0.9858   0.9882   0.9947   1.0005
  1.0025   1.0111   1.0195   1.0230   1.0247   1.0325   1.0399   1.0463
  1.0499   1.0592   1.0616   1.0631   1.0706   1.0802   1.0839   1.0936
  1.0980   1.1059   1.1076   1.1182   1.1226   1.1262   1.1293   1.1351
  1.1464   1.1499   1.1628   1.1667   1.1818   1.1921   1.1991   1.2073
  1.2106   1.2142   1.2194   1.2221   1.2327   1.2413   1.2550   1.2569
  1.2588   1.2698   1.2906   1.2939   1.3083   1.3099   1.3178   1.3271
  1.3343   1.3389   1.3483   1.3525   1.3627   1.3703   1.3838   1.3958
  1.3981   1.4125   1.4199   1.4272   1.4295   1.4364   1.4407   1.4495
  1.4625   1.4681   1.4790   1.4820   1.4952   1.4972   1.5089   1.5099
  1.5210   1.5300   1.5355   1.5513   1.5593   1.5758   1.5803   1.5957
  1.6062   1.6101   1.6215   1.6324   1.6411   1.6489   1.6536   1.6602
  1.6653   1.6710   1.6894   1.6945   1.7067   1.7218   1.7343   1.7415
  1.7478   1.7637   1.7923   1.8012   1.8109   1.8172   1.8275   1.8329
  1.8454   1.8555   1.8596   1.8614   1.8646   1.8837   1.8896   1.8943
  1.9120   1.9211   1.9271   1.9367   1.9374   1.9437   1.9522   1.9549
  1.9618   1.9646   1.9775   1.9835   1.9876   1.9930   2.0020   2.0051
  2.0120   2.0154   2.0292   2.0309   2.0355   2.0415   2.0480   2.0512
  2.0564   2.0624   2.0729   2.0777   2.0928   2.0994   2.1091   2.1153
  2.1234   2.1264   2.1309   2.1428   2.1476   2.1606   2.1695   2.1768
  2.1841   2.1846   2.1957   2.2036   2.2244   2.2312   2.2403   2.2450
  2.2581   2.2662   2.2668   2.2916   2.2968   2.3105   2.3173   2.3233
  2.3367   2.3456   2.3488   2.3581   2.3728   2.3837   2.3912   2.4087
  2.4244   2.4290   2.4376   2.4409   2.4558   2.4638   2.4740   2.4767
  2.4883   2.4931   2.5043   2.5275   2.5388   2.5446   2.5567   2.5726
  2.5819   2.5900   2.5997   2.6015   2.6183   2.6240   2.6291   2.6375
  2.6448   2.6507   2.6659   2.6798   2.6825   2.6895   2.7023   2.7124
  2.7144   2.7309   2.7346   2.7432   2.7613   2.7658   2.7762   2.7854
  2.7903   2.7962   2.7990   2.8074   2.8159   2.8226   2.8327   2.8431
  2.8525   2.8564   2.8680   2.8690   2.8741   2.8826   2.8888   2.8906
  2.9005   2.9126   2.9184   2.9308   2.9376   2.9432   2.9476   2.9518
  2.9627   2.9650   2.9701   2.9805   2.9908   2.9971   3.0010   3.0124
  3.0153   3.0249   3.0259   3.0333   3.0401   3.0431   3.0488   3.0553
  3.0749   3.0820   3.0858   3.0955   3.1089   3.1098   3.1266   3.1361
  3.1463   3.1498   3.1642   3.1708   3.1800   3.1849   3.1945   3.2086
  3.2271   3.2344   3.2458   3.2522   3.2572   3.2677   3.2754   3.2889
  3.2921   3.3056   3.3094   3.3188   3.3321   3.3373   3.3464   3.3482
  3.3552   3.3624   3.3739   3.3786   3.3853   3.3940   3.4023   3.4066
  3.4144   3.4215   3.4227   3.4347   3.4412   3.4436   3.4472   3.4582
  3.4636   3.4729   3.4783   3.4813   3.4831   3.4907   3.5019   3.5036
  3.5160   3.5185   3.5245   3.5296   3.5399   3.5434   3.5462   3.5566
  3.5629   3.5652   3.5735   3.5843   3.5854   3.5893   3.5970   3.6003
  3.6082   3.6122   3.6198   3.6212   3.6265   3.6339   3.6376   3.6440
  3.6582   3.6590   3.6692   3.6731   3.6747   3.6900   3.6926   3.6935
  3.7057   3.7093   3.7127   3.7266   3.7288   3.7350   3.7488   3.7550
  3.7594   3.7736   3.7797   3.7914   3.8096   3.8205   3.8285   3.8335
  3.8534   3.8607   3.8780   3.8915   3.9086   3.9120   3.9323   3.9591
  3.9628   3.9823   3.9967   4.0013   4.0152   4.0399   4.0428   4.0627
  4.0710   4.0843   4.0947   4.1102   4.1388   4.1428   4.1650   4.1962
  4.1972   4.2254   4.2317   4.2329   4.2412   4.2605   4.2815   4.2954
  4.3019   4.3129   4.3174   4.3246   4.3316   4.3456   4.3523   4.3595
  4.3702   4.3735   4.3830   4.3919   4.3982   4.4145   4.4201   4.4292
  4.4407   4.4524   4.4598   4.4696   4.4804   4.4877   4.5146   4.5341
  4.5558   4.5693   4.5858   4.6141   4.6355   4.6473   4.6491   4.6556
  4.6686   4.7228   4.7632   4.7723   4.7792   4.8014   4.8274   4.8430
  4.8636   4.9011   4.9131   4.9388   4.9523   4.9614   4.9750   4.9871
  5.0016   5.0114   5.0350   5.0561   5.0760   5.0865   5.0991   5.1111
  5.1488   5.1615   5.1951   5.2097   5.2249   5.2396   5.2892   5.3084
  5.3878   5.3963   5.4032   5.4311   5.4912   5.5134   5.5248   5.5525
  5.5634   5.6291   5.6487   5.7130   5.7259   5.8240   5.8353   5.8412
  5.9663   5.9864   6.2960   6.3355  22.6699  22.6882  22.7426  22.7942
 22.8541  22.9343  22.9442  22.9712  23.0055  23.0458  23.1074  23.1293
 23.2145  23.3011  23.4787  23.5352  23.8088  32.9295
 --------------------------------------------------------------

          Ground-State Mulliken Net Atomic Charges

     Atom                 Charge (a.u.)
  ----------------------------------------
      1 C                    -0.335599
      2 C                    -0.919638
      3 C                     0.281191
      4 C                    -0.430061
      5 C                     0.184856
      6 C                    -0.154432
      7 C                    -0.285469
      8 C                    -0.567664
      9 C                    -0.492705
     10 C                    -0.532330
     11 N                     0.181096
     12 H                     0.236681
     13 H                     0.242039
     14 H                     0.255727
     15 H                     0.270133
     16 H                     0.194555
     17 H                     0.393138
     18 H                     0.364467
     19 H                     0.355344
     20 H                     0.353892
     21 H                     0.245593
     22 H                     0.220542
     23 C                    -0.969746
     24 C                    -0.311204
     25 C                     0.594836
     26 C                    -0.329821
     27 C                    -0.397271
     28 C                    -0.463128
     29 C                    -0.462809
     30 H                     0.285856
     31 H                     0.332329
     32 H                     0.259047
     33 H                     0.119840
     34 H                     0.364787
     35 H                     0.354845
     36 H                     0.323153
     37 H                     0.237932
  ----------------------------------------
  Sum of atomic charges =     0.000000

 -----------------------------------------------------------------
                    Cartesian Multipole Moments
 -----------------------------------------------------------------
    Charge (ESU x 10^10)
                -0.0000
    Dipole Moment (Debye)
         X       2.9480      Y       1.0241      Z       0.4121
       Tot       3.1479
    Quadrupole Moments (Debye-Ang)
        XX     -91.6143     XY       0.4351     YY    -103.1777
        XZ       3.4669     YZ      -3.3920     ZZ    -116.7039
    Octopole Moments (Debye-Ang^2)
       XXX      44.8211    XXY     -12.3427    XYY       4.3736
       YYY      -0.7644    XXZ      11.5621    XYZ     -13.0855
       YYZ      23.6888    XZZ       1.7665    YZZ      12.0655
       ZZZ      -0.5578
    Hexadecapole Moments (Debye-Ang^3)
      XXXX   -1484.3141   XXXY     246.0667   XXYY    -705.9862
      XYYY     289.8308   YYYY   -2668.8412   XXXZ     364.9473
      XXYZ    -128.5036   XYYZ     129.7372   YYYZ    -396.1274
      XXZZ    -645.5298   XYZZ     106.6537   YYZZ    -831.7932
      XZZZ     439.6172   YZZZ    -408.1301   ZZZZ   -2277.3364
 -----------------------------------------------------------------
Archival summary:
1\1\compute-0-13.local\SP\ProcedureUnspecified\BasisUnspecified\11719\meili\ThuSep3015:05:282021ThuSep3015:05:282021\0\\#,ProcedureUnspecified,BasisUnspecified,\\0,1\C\C,1,1.3981\H,2,1.08,1,120.125\C,2,1.39508,1,119.007,3,179.684,0\H,4,1.08045,2,119.188,1,179.962,0\C,4,1.40146,2,121.073,1,0.357789,0\H,6,1.08283,4,119.506,2,-179.99,0\C,6,1.38542,4,121.06,2,0.220808,0\H,8,1.0807,6,121.315,4,179.421,0\C,8,1.38758,6,117.734,4,-0.457221,0\N,10,1.3695,8,130.865,6,179.549,0\H,11,1.01399,10,126.096,8,-1.90657,0\C,11,1.37623,10,109.61,8,-179.946,0\H,13,1.08581,11,125.137,10,179.335,0\C,13,1.36363,11,110.231,10,0.453926,0\C,15,1.50714,13,127.463,11,177.986,0\H,16,1.0911,15,106.732,13,-138.835,0\H,16,1.09122,15,109.137,13,-23.7614,0\C,16,1.53371,15,116.007,13,100.378,0\H,19,1.08538,16,107.225,15,42.5254,0\H,19,1.1,16,109.221,15,160.533,0\H,19,1.1,16,110.015,15,-77.6563,0\H,1,2.69066,2,102.627,3,91.3468,0\C,23,1.07865,1,122.419,2,-53.7141,0\C,24,1.38913,23,119.613,1,64.1125,0\H,25,1.08175,24,119.819,23,-1.1898,0\C,24,1.38974,23,119.835,1,-116,0\C,25,1.39051,24,119.992,23,178.074,0\H,28,1.08246,25,120.139,24,-179.438,0\C,28,1.38721,25,119.865,24,0.0292785,0\H,30,1.08083,28,120.057,25,-178.948,0\C,27,1.39182,24,119.199,23,-177.391,0\H,32,1.08113,27,120.012,24,178.579,0\C,27,1.49921,24,120.621,23,-0.0853202,0\H,34,1.09007,27,109.321,24,25.7584,0\H,34,1.09033,27,108.444,24,142.419,0\H,34,1.1,27,113.082,24,-96.1521,0\\\@

 Total job time:  100317.93s(wall), 214214.75s(cpu) 
 Thu Sep 30 15:05:28 2021

        *************************************************************
        *                                                           *
        *  Thank you very much for using Q-Chem.  Have a nice day.  *
        *                                                           *
        *************************************************************


