
Running Job 1 of 1 SSI-006ARG-090TYR-1_SMD_TZVPD.in
qchem SSI-006ARG-090TYR-1_SMD_TZVPD.in_59843.0 /tmp/qchem59843/ 0
/global/common/cori/software/qchem/5.2/exe/qcprog.exe_s SSI-006ARG-090TYR-1_SMD_TZVPD.in_59843.0 /tmp/qchem59843/
                  Welcome to Q-Chem
     A Quantum Leap Into The Future Of Chemistry


 Q-Chem 5.2, Q-Chem, Inc., Pleasanton, CA (2019)

 License issued to: National Energy Research Scientific Computing Center

 Yihan Shao,  Zhengting Gan,  E. Epifanovsky,  A. T. B. Gilbert,  M. Wormit,  
 J. Kussmann,  A. W. Lange,  A. Behn,  Jia Deng,  Xintian Feng,  D. Ghosh,  
 M. Goldey,  P. R. Horn,  L. D. Jacobson,  I. Kaliman,  T. Kus,  A. Landau,  
 Jie Liu,  E. I. Proynov,  R. M. Richard,  R. P. Steele,  E. J. Sundstrom,  
 H. L. Woodcock III,  P. M. Zimmerman,  D. Zuev,  B. Albrecht,  E. Alguire,  
 S. A. Baeppler,  D. Barton,  Z. Benda,  Y. A. Bernard,  E. J. Berquist,  
 K. B. Bravaya,  H. Burton,  D. Casanova,  Chun-Min Chang,  Yunqing Chen,  
 A. Chien,  K. D. Closser,  M. P. Coons,  S. Coriani,  S. Dasgupta,  
 A. L. Dempwolff,  M. Diedenhofen,  Hainam Do,  R. G. Edgar,  Po-Tung Fang,  
 S. Faraji,  S. Fatehi,  Qingguo Feng,  K. D. Fenk,  J. Fosso-Tande,  
 J. Gayvert,  Qinghui Ge,  A. Ghysels,  G. Gidofalvi,  J. Gomes,  
 J. Gonthier,  A. Gunina,  D. Hait,  M. W. D. Hanson-Heine,  
 P. H. P. Harbach,  A. W. Hauser,  M. F. Herbst,  J. E. Herr,  
 E. G. Hohenstein,  Z. C. Holden,  Kerwin Hui,  B. C. Huynh,  T.-C. Jagau,  
 Hyunjun Ji,  B. Kaduk,  K. Khistyaev,  Jaehoon Kim,  P. Klunzinger,  K. Koh,  
 D. Kosenkov,  L. Koulias,  T. Kowalczyk,  C. M. Krauter,  A. Kunitsa,  
 Ka Un Lao,  A. Laurent,  K. V. Lawler,  Joonho Lee,  D. Lefrancois,  
 S. Lehtola,  D. S. Levine,  Yi-Pei Li,  You-Sheng Lin,  Fenglai Liu,  
 E. Livshits,  A. Luenser,  P. Manohar,  E. Mansoor,  S. F. Manzer,  
 Shan-Ping Mao,  Yuezhi Mao,  N. Mardirossian,  A. V. Marenich,  
 T. Markovich,  L. A. Martinez-Martinez,  S. A. Maurer,  N. J. Mayhall,  
 S. C. McKenzie,  J.-M. Mewes,  P. Morgante,  A. F. Morrison,  
 J. W. Mullinax,  K. Nanda,  T. S. Nguyen-Beck,  R. Olivares-Amaya,  
 J. A. Parkhill,  Zheng Pei,  T. M. Perrine,  F. Plasser,  P. Pokhilko,  
 S. Prager,  A. Prociuk,  E. Ramos,  D. R. Rehn,  F. Rob,  M. Scheurer,  
 M. Schneider,  N. Sergueev,  S. M. Sharada,  S. Sharma,  D. W. Small,  
 T. Stauch,  T. Stein,  Yu-Chuan Su,  A. J. W. Thom,  A. Tkatchenko,  
 T. Tsuchimochi,  N. M. Tubman,  L. Vogt,  M. L. Vidal,  O. Vydrov,  
 M. A. Watson,  J. Wenzel,  M. de Wergifosse,  T. A. Wesolowski,  A. White,  
 J. Witte,  A. Yamada,  Jun Yang,  K. Yao,  S. Yeganeh,  S. R. Yost,  
 Zhi-Qiang You,  A. Zech,  Igor Ying Zhang,  Xing Zhang,  Yan Zhao,  
 Ying Zhu,  B. R. Brooks,  G. K. L. Chan,  C. J. Cramer,  M. S. Gordon,  
 W. J. Hehre,  A. Klamt,  M. W. Schmidt,  C. D. Sherrill,  D. G. Truhlar,  
 A. Aspuru-Guzik,  R. Baer,  A. T. Bell,  N. A. Besley,  Jeng-Da Chai,  
 A. E. DePrince, III,  R. A. DiStasio Jr.,  A. Dreuw,  B. D. Dunietz,  
 T. R. Furlani,  Chao-Ping Hsu,  Yousung Jung,  Jing Kong,  D. S. Lambrecht,  
 WanZhen Liang,  C. Ochsenfeld,  V. A. Rassolov,  L. V. Slipchenko,  
 J. E. Subotnik,  T. Van Voorhis,  J. M. Herbert,  A. I. Krylov,  
 P. M. W. Gill,  M. Head-Gordon

 Contributors to earlier versions of Q-Chem not listed above: 
 R. D. Adamson,  B. Austin,  J. Baker,  G. J. O. Beran,  K. Brandhorst,  
 S. T. Brown,  E. F. C. Byrd,  A. K. Chakraborty,  C.-L. Cheng,  
 Siu Hung Chien,  D. M. Chipman,  D. L. Crittenden,  H. Dachsel,  
 R. J. Doerksen,  A. D. Dutoi,  L. Fusti-Molnar,  W. A. Goddard III,  
 A. Golubeva-Zadorozhnaya,  S. R. Gwaltney,  G. Hawkins,  A. Heyden,  
 S. Hirata,  G. Kedziora,  F. J. Keil,  C. Kelley,  Jihan Kim,  R. A. King,  
 R. Z. Khaliullin,  P. P. Korambath,  W. Kurlancheek,  A. M. Lee,  M. S. Lee,  
 S. V. Levchenko,  Ching Yeh Lin,  D. Liotard,  R. C. Lochan,  I. Lotan,  
 P. E. Maslen,  N. Nair,  D. P. O'Neill,  D. Neuhauser,  E. Neuscamman,  
 C. M. Oana,  R. Olson,  B. Peters,  R. Peverati,  P. A. Pieniazek,  
 Y. M. Rhee,  J. Ritchie,  M. A. Rohrdanz,  E. Rosta,  N. J. Russ,  
 H. F. Schaefer III,  N. E. Schultz,  N. Shenvi,  A. C. Simmonett,  A. Sodt,  
 D. Stuck,  K. S. Thanthiriwatte,  V. Vanovschi,  Tao Wang,  A. Warshel,  
 C. F. Williams,  Q. Wu,  X. Xu,  W. Zhang

 Please cite Q-Chem as follows:
 Y. Shao et al., Mol. Phys. 113, 184-215 (2015)
 DOI: 10.1080/00268976.2014.952696

 Q-Chem 5.2.0 for Intel X86 EM64T Linux

 Parts of Q-Chem use Armadillo 8.300.2 (Tropical Shenanigans).
 http://arma.sourceforge.net/

 Q-Chem begins on Sun Sep 26 01:47:45 2021  

Host: cori01
0

     Scratch files written to /tmp/qchem59843//
 May1019 |scratch|qcdevops|jenkins|workspace|build_RNUM -1
Processing $rem in /global/common/cori/software/qchem/5.2/config/preferences:
	 MEM_TOTAL  96000 
NAlpha2: 98
NElect   98
Mult     1
Symmetry turned off for PCM/SM12/SMD calculation

 Q-Chem warning in module libgen/rem_setup.C, line 2803:

 Neither GIA nor STOLL is specified by user. Use STOLL as the default


Checking the input file for inconsistencies... 	...done.

--------------------------------------------------------------
User input:
--------------------------------------------------------------
$comment
SSI-006ARG-090TYR-1.pdb
$end

$molecule
1 1
--
1 1
C   -0.100368947452    1.069241769200   -3.328989514575
C    0.093631052548   -1.197758230800   -2.352989514575
N   -0.626368947452   -0.119758230800   -2.639989514575
N    1.370631052548   -1.252758230800   -2.683989514575
N   -0.461368947452   -2.218758230800   -1.730989514575
H   -1.602368947452   -0.120758230800   -2.377989514575
H    1.783631052548   -0.503758230800   -3.213989514575
H    1.895631052548   -2.101758230800   -2.546989514575
H   -1.441368947452   -2.190758230800   -1.500989514575
H    0.086631052548   -3.016758230800   -1.435989514575
H    0.108631052548    0.818241769200   -4.371989514575
H    0.827631052548    1.386241769200   -2.848989514575
H   -0.799638947452    1.917997769200   -3.303835514575
--
0 1
C    2.602631052548   -0.738758230800    1.526010485425
C   -0.604368947452    1.118241769200    0.643010485425
C    0.663631052548    0.546241769200    0.547010485425
C   -1.290368947452    1.086241769200    1.858010485425
C    1.258631052548   -0.061758230800    1.657010485425
C   -0.706368947452    0.488241769200    2.977010485425
C    0.564631052548   -0.081758230800    2.871010485425
O   -2.536368947452    1.629241769200    1.946010485425
H   -1.050368947452    1.589241769200   -0.215989514575
H    1.200631052548    0.585241769200   -0.390989514575
H   -2.838368947452    1.905241769200    1.049010485425
H   -1.246368947452    0.457241769200    3.912010485425
H    3.093631052548   -0.772758230800    2.499010485425
H    3.222631052548   -0.123758230800    0.871010485425
H    1.004631052548   -0.562758230800    3.734010485425
H    2.529271052548   -1.755712230800    1.113187485425
$end

$rem
JOBTYPE			EDA
EDA2			1
method			wB97X-V
BASIS			def2-TZVPD
XC_GRID			000099000590
NL_GRID			1
UNRESTRICTED		FALSE
MAX_SCF_CYCLES		200
SYMMETRY		FALSE
SYM_IGNORE		TRUE
MEM_STATIC		2000
BASIS_LIN_DEP_THRESH 	6
THRESH 			14
SCF_CONVERGENCE 	8
SCF_PRINT_FRGM 		TRUE
SOLVENT_METHOD          SMD
$end

$SMX
SOLVENT			WATER
$END
--------------------------------------------------------------
 ----------------------------------------------------------------
             Standard Nuclear Orientation (Angstroms)
    I     Atom           X                Y                Z
 ----------------------------------------------------------------
    1      C      -0.1003689475     1.0692417692    -3.3289895146
    2      C       0.0936310525    -1.1977582308    -2.3529895146
    3      N      -0.6263689475    -0.1197582308    -2.6399895146
    4      N       1.3706310525    -1.2527582308    -2.6839895146
    5      N      -0.4613689475    -2.2187582308    -1.7309895146
    6      H      -1.6023689475    -0.1207582308    -2.3779895146
    7      H       1.7836310525    -0.5037582308    -3.2139895146
    8      H       1.8956310525    -2.1017582308    -2.5469895146
    9      H      -1.4413689475    -2.1907582308    -1.5009895146
   10      H       0.0866310525    -3.0167582308    -1.4359895146
   11      H       0.1086310525     0.8182417692    -4.3719895146
   12      H       0.8276310525     1.3862417692    -2.8489895146
   13      H      -0.7996389475     1.9179977692    -3.3038355146
   14      C       2.6026310525    -0.7387582308     1.5260104854
   15      C      -0.6043689475     1.1182417692     0.6430104854
   16      C       0.6636310525     0.5462417692     0.5470104854
   17      C      -1.2903689475     1.0862417692     1.8580104854
   18      C       1.2586310525    -0.0617582308     1.6570104854
   19      C      -0.7063689475     0.4882417692     2.9770104854
   20      C       0.5646310525    -0.0817582308     2.8710104854
   21      O      -2.5363689475     1.6292417692     1.9460104854
   22      H      -1.0503689475     1.5892417692    -0.2159895146
   23      H       1.2006310525     0.5852417692    -0.3909895146
   24      H      -2.8383689475     1.9052417692     1.0490104854
   25      H      -1.2463689475     0.4572417692     3.9120104854
   26      H       3.0936310525    -0.7727582308     2.4990104854
   27      H       3.2226310525    -0.1237582308     0.8710104854
   28      H       1.0046310525    -0.5627582308     3.7340104854
   29      H       2.5292710525    -1.7557122308     1.1131874854
 ----------------------------------------------------------------
 Nuclear Repulsion Energy =         793.37093542 hartrees
 There are       49 alpha and       49 beta electrons
 Requested basis set is def2-TZVPD
 There are 250 shells and 628 basis functions

 Total QAlloc Memory Limit  96000 MB
 Mega-Array Size      1956 MB
 MEM_STATIC part      2000 MB
 
 Citation of the SMD model:
 Marenich, A.V.; Cramer, C.J.; Truhlar, D.G.
 J. Phys. Chem. B 2009, 113, 6378-6396.
 iSolventCode=           1
 Solvent: water                                                           
 
 vradii
            1           2           3           4           5           6
    1   1.8500000   1.8500000   1.8900000   1.8900000   1.8900000   1.2000000
            7           8           9          10          11          12
    1   1.2000000   1.2000000   1.2000000   1.2000000   1.2000000   1.2000000
           13          14          15          16          17          18
    1   1.2000000   1.8500000   1.8500000   1.8500000   1.8500000   1.8500000
           19          20          21          22          23          24
    1   1.8500000   1.8500000   1.5200000   1.2000000   1.2000000   1.2000000
           25          26          27          28          29
    1   1.2000000   1.2000000   1.2000000   1.2000000   1.2000000
 Changing PCM_VDW_RADII to SMD_RADIUS
 Discretize the solute cavity surface with Lebedev spheres
	Using 110 Lebedev grid points for each H atom
	Using 194 Lebedev grid points for other atoms
	Atomic van der Waals radii will be scaled by 1.20
 Remove points where switching function is < 1.0e-08
 Keep 2112 surface tesserae and discard 2170 interior tesserae
 Molecular Surface Area = 247.407 Angst**2
 A cutoff of  1.0D-14 yielded  27479 shell pairs
 There are    174441 function pairs (    219207 Cartesian)
 Smallest overlap matrix eigenvalue = 4.47E-07
 Linear dependence detected in AO basis
 Tighter screening thresholds may be required for diffuse basis sets
 Use S2THRESH > 14 and THRESH = 14 in case of SCF convergence issues
 Number of orthogonalized atomic orbitals = 626
 Maximum deviation from orthogonality = 2.490E-10

 Scale SEOQF with 1.000000e-01/1.000000e-01/1.000000e-01

 Standard Electronic Orientation quadrupole field applied
 Nucleus-field energy     =    -0.0000000381 hartrees

 -----------------------------------------------------------------------
  General SCF calculation program by
  Eric Jon Sundstrom, Paul Horn, Yuezhi Mao, Dmitri Zuev, Alec White,
  David Stuck, Shaama M.S., Shane Yost, Joonho Lee, David Small,
  Daniel Levine, Susi Lehtola, Hugh Burton, Evgeny Epifanovsky
 -----------------------------------------------------------------------
================================================================
                 ALMO-EDA with the EDA2 driver                  
================================================================
 The second-generation ALMO-EDA (for DFT):                      
 P. R. Horn, Y. Mao and M. Head-Gordon, PCCP, 18, 23067 (2016)  
 Decomposition of the frozen energy:                            
 P. R. Horn, Y. Mao and M. Head-Gordon, JCP, 144, 114107 (2016) 
 FERF model for polarization:                                   
 P. R. Horn and M. Head-Gordon, JCP, 143, 114111 (2015)         
Using eda2 option set 1
Option set summary: Frozen orbital wavefunction, initial wavefunction decomposition, and nDQ polarization.
--------------------------------
Printing EDA Options
--------------------------------
eda_child_super_basis      0
fragmo_guess_mode          0
child_mp                   1
child_mp_orders            232
cls_elec                   1
cls_disp                   0
scfmi_mode                 1
scfmi_occs                 0
scfmi_virts                0
frz_relax                  0
frz_relax_method           0
dc_pen_start               0
dc_pen_conv                0
dc_pen_increment           0
dc_pen_steps               0
dc_pen_thresh_factor       0
dc_pen_pre_newton_thresh   0
frz_ortho_decomp           1
frz_ortho_decomp_conv      6
frgm_method                2
scfmi_freeze_ss            0
separate_rehyb             0
plot_diff_den              0
eda_nocv                   0
eda_vct_relax              1
disp_free_x                0
disp_free_c                0
eda_bsse                   0
eda_pct_a                  0
eda_covp                   0
--------------------------------
Attempting to make child job directory: /tmp/qchem59843//Frg1/
Attempting to make child job directory: /tmp/qchem59843//Frg2/
Creating input file /tmp/qchem59843/Frg1.input
using default PutDataFrgm: nothing
calling putenv with: QCSCRATCH=/tmp/qchem59843/ 
calling putenv with: QCLOCALSCR=/tmp/qchem59843/ 
Spawning Job For Fragment 0
                  Welcome to Q-Chem
     A Quantum Leap Into The Future Of Chemistry


 Q-Chem 5.2, Q-Chem, Inc., Pleasanton, CA (2019)

 License issued to: National Energy Research Scientific Computing Center

 Yihan Shao,  Zhengting Gan,  E. Epifanovsky,  A. T. B. Gilbert,  M. Wormit,  
 J. Kussmann,  A. W. Lange,  A. Behn,  Jia Deng,  Xintian Feng,  D. Ghosh,  
 M. Goldey,  P. R. Horn,  L. D. Jacobson,  I. Kaliman,  T. Kus,  A. Landau,  
 Jie Liu,  E. I. Proynov,  R. M. Richard,  R. P. Steele,  E. J. Sundstrom,  
 H. L. Woodcock III,  P. M. Zimmerman,  D. Zuev,  B. Albrecht,  E. Alguire,  
 S. A. Baeppler,  D. Barton,  Z. Benda,  Y. A. Bernard,  E. J. Berquist,  
 K. B. Bravaya,  H. Burton,  D. Casanova,  Chun-Min Chang,  Yunqing Chen,  
 A. Chien,  K. D. Closser,  M. P. Coons,  S. Coriani,  S. Dasgupta,  
 A. L. Dempwolff,  M. Diedenhofen,  Hainam Do,  R. G. Edgar,  Po-Tung Fang,  
 S. Faraji,  S. Fatehi,  Qingguo Feng,  K. D. Fenk,  J. Fosso-Tande,  
 J. Gayvert,  Qinghui Ge,  A. Ghysels,  G. Gidofalvi,  J. Gomes,  
 J. Gonthier,  A. Gunina,  D. Hait,  M. W. D. Hanson-Heine,  
 P. H. P. Harbach,  A. W. Hauser,  M. F. Herbst,  J. E. Herr,  
 E. G. Hohenstein,  Z. C. Holden,  Kerwin Hui,  B. C. Huynh,  T.-C. Jagau,  
 Hyunjun Ji,  B. Kaduk,  K. Khistyaev,  Jaehoon Kim,  P. Klunzinger,  K. Koh,  
 D. Kosenkov,  L. Koulias,  T. Kowalczyk,  C. M. Krauter,  A. Kunitsa,  
 Ka Un Lao,  A. Laurent,  K. V. Lawler,  Joonho Lee,  D. Lefrancois,  
 S. Lehtola,  D. S. Levine,  Yi-Pei Li,  You-Sheng Lin,  Fenglai Liu,  
 E. Livshits,  A. Luenser,  P. Manohar,  E. Mansoor,  S. F. Manzer,  
 Shan-Ping Mao,  Yuezhi Mao,  N. Mardirossian,  A. V. Marenich,  
 T. Markovich,  L. A. Martinez-Martinez,  S. A. Maurer,  N. J. Mayhall,  
 S. C. McKenzie,  J.-M. Mewes,  P. Morgante,  A. F. Morrison,  
 J. W. Mullinax,  K. Nanda,  T. S. Nguyen-Beck,  R. Olivares-Amaya,  
 J. A. Parkhill,  Zheng Pei,  T. M. Perrine,  F. Plasser,  P. Pokhilko,  
 S. Prager,  A. Prociuk,  E. Ramos,  D. R. Rehn,  F. Rob,  M. Scheurer,  
 M. Schneider,  N. Sergueev,  S. M. Sharada,  S. Sharma,  D. W. Small,  
 T. Stauch,  T. Stein,  Yu-Chuan Su,  A. J. W. Thom,  A. Tkatchenko,  
 T. Tsuchimochi,  N. M. Tubman,  L. Vogt,  M. L. Vidal,  O. Vydrov,  
 M. A. Watson,  J. Wenzel,  M. de Wergifosse,  T. A. Wesolowski,  A. White,  
 J. Witte,  A. Yamada,  Jun Yang,  K. Yao,  S. Yeganeh,  S. R. Yost,  
 Zhi-Qiang You,  A. Zech,  Igor Ying Zhang,  Xing Zhang,  Yan Zhao,  
 Ying Zhu,  B. R. Brooks,  G. K. L. Chan,  C. J. Cramer,  M. S. Gordon,  
 W. J. Hehre,  A. Klamt,  M. W. Schmidt,  C. D. Sherrill,  D. G. Truhlar,  
 A. Aspuru-Guzik,  R. Baer,  A. T. Bell,  N. A. Besley,  Jeng-Da Chai,  
 A. E. DePrince, III,  R. A. DiStasio Jr.,  A. Dreuw,  B. D. Dunietz,  
 T. R. Furlani,  Chao-Ping Hsu,  Yousung Jung,  Jing Kong,  D. S. Lambrecht,  
 WanZhen Liang,  C. Ochsenfeld,  V. A. Rassolov,  L. V. Slipchenko,  
 J. E. Subotnik,  T. Van Voorhis,  J. M. Herbert,  A. I. Krylov,  
 P. M. W. Gill,  M. Head-Gordon

 Contributors to earlier versions of Q-Chem not listed above: 
 R. D. Adamson,  B. Austin,  J. Baker,  G. J. O. Beran,  K. Brandhorst,  
 S. T. Brown,  E. F. C. Byrd,  A. K. Chakraborty,  C.-L. Cheng,  
 Siu Hung Chien,  D. M. Chipman,  D. L. Crittenden,  H. Dachsel,  
 R. J. Doerksen,  A. D. Dutoi,  L. Fusti-Molnar,  W. A. Goddard III,  
 A. Golubeva-Zadorozhnaya,  S. R. Gwaltney,  G. Hawkins,  A. Heyden,  
 S. Hirata,  G. Kedziora,  F. J. Keil,  C. Kelley,  Jihan Kim,  R. A. King,  
 R. Z. Khaliullin,  P. P. Korambath,  W. Kurlancheek,  A. M. Lee,  M. S. Lee,  
 S. V. Levchenko,  Ching Yeh Lin,  D. Liotard,  R. C. Lochan,  I. Lotan,  
 P. E. Maslen,  N. Nair,  D. P. O'Neill,  D. Neuhauser,  E. Neuscamman,  
 C. M. Oana,  R. Olson,  B. Peters,  R. Peverati,  P. A. Pieniazek,  
 Y. M. Rhee,  J. Ritchie,  M. A. Rohrdanz,  E. Rosta,  N. J. Russ,  
 H. F. Schaefer III,  N. E. Schultz,  N. Shenvi,  A. C. Simmonett,  A. Sodt,  
 D. Stuck,  K. S. Thanthiriwatte,  V. Vanovschi,  Tao Wang,  A. Warshel,  
 C. F. Williams,  Q. Wu,  X. Xu,  W. Zhang

 Please cite Q-Chem as follows:
 Y. Shao et al., Mol. Phys. 113, 184-215 (2015)
 DOI: 10.1080/00268976.2014.952696

 Q-Chem 5.2.0 for Intel X86 EM64T Linux

 Parts of Q-Chem use Armadillo 8.300.2 (Tropical Shenanigans).
 http://arma.sourceforge.net/

 Q-Chem begins on Sun Sep 26 01:47:52 2021  

Host: cori01
0

     Scratch files written to /tmp/qchem59843//Frg1//
 May1019 |scratch|qcdevops|jenkins|workspace|build_RNUM -1
Processing $rem in /global/common/cori/software/qchem/5.2/config/preferences:
	 MEM_TOTAL  96000 
NAlpha2: 40
NElect   40
Mult     1
Symmetry turned off for PCM/SM12/SMD calculation

Checking the input file for inconsistencies... 	...done.

--------------------------------------------------------------
User input:
--------------------------------------------------------------
$molecule
1 1
 6	-0.1003689475	1.0692417692	-3.3289895146
 6	0.0936310525	-1.1977582308	-2.3529895146
 7	-0.6263689475	-0.1197582308	-2.6399895146
 7	1.3706310525	-1.2527582308	-2.6839895146
 7	-0.4613689475	-2.2187582308	-1.7309895146
 1	-1.6023689475	-0.1207582308	-2.3779895146
 1	1.7836310525	-0.5037582308	-3.2139895146
 1	1.8956310525	-2.1017582308	-2.5469895146
 1	-1.4413689475	-2.1907582308	-1.5009895146
 1	0.0866310525	-3.0167582308	-1.4359895146
 1	0.1086310525	0.8182417692	-4.3719895146
 1	0.8276310525	1.3862417692	-2.8489895146
 1	-0.7996389475	1.9179977692	-3.3038355146
$end
$rem
EDA2		1
METHOD		WB97X-V
BASIS		DEF2-TZVPD
XC_GRID		000099000590
NL_GRID		1
UNRESTRICTED		FALSE
MAX_SCF_CYCLES		200
SYMMETRY		FALSE
SYM_IGNORE		TRUE
BASIS_LIN_DEP_THRESH		6
THRESH		14
SCF_CONVERGENCE		8
SCF_PRINT_FRGM		TRUE
SOLVENT_METHOD		SMD
!required keywords
JOBTYPE		SP
SYM_IGNORE		TRUE
SUBSYSTEM		TRUE
GEN_SCFMAN		TRUE
CHILD_INSTRUCTION		2
SYM_IGNORE		TRUE
SCFMI		0
RI_K 0		
PARI_K 0		
MIN_PARI_K 0		
IARI_K 0		
OCC_RI_K 0		
PURECART		1111
MEM_STATIC		2000
MEM_TOTAL		96000
GUI		0
CHILD_MP		1
CHILD_MP_ORDERS		232
FRZ_RELAX		0
FRZ_RELAX_METHOD		0
EDA_CLS_ELEC		1
EDA_CLS_DISP		0
FRZ_ORTHO_DECOMP		1
EDA2		FALSE
FRGM_METHOD		FALSE
CIS_N_ROOTS  0
LOCAL_CIS    0
CIS_RLX_DNS  1
$end
$smx
SOLVENT			WATER
$end
--------------------------------------------------------------
 ----------------------------------------------------------------
             Standard Nuclear Orientation (Angstroms)
    I     Atom           X                Y                Z
 ----------------------------------------------------------------
    1      C      -0.1003689475     1.0692417692    -3.3289895146
    2      C       0.0936310525    -1.1977582308    -2.3529895146
    3      N      -0.6263689475    -0.1197582308    -2.6399895146
    4      N       1.3706310525    -1.2527582308    -2.6839895146
    5      N      -0.4613689475    -2.2187582308    -1.7309895146
    6      H      -1.6023689475    -0.1207582308    -2.3779895146
    7      H       1.7836310525    -0.5037582308    -3.2139895146
    8      H       1.8956310525    -2.1017582308    -2.5469895146
    9      H      -1.4413689475    -2.1907582308    -1.5009895146
   10      H       0.0866310525    -3.0167582308    -1.4359895146
   11      H       0.1086310525     0.8182417692    -4.3719895146
   12      H       0.8276310525     1.3862417692    -2.8489895146
   13      H      -0.7996389475     1.9179977692    -3.3038355146
 ----------------------------------------------------------------
 Nuclear Repulsion Energy =         194.17221055 hartrees
 There are       20 alpha and       20 beta electrons
 Requested basis set is def2-TZVPD
 There are 105 shells and 257 basis functions

 Total QAlloc Memory Limit  96000 MB
 Mega-Array Size      1956 MB
 MEM_STATIC part      2000 MB
 
 Citation of the SMD model:
 Marenich, A.V.; Cramer, C.J.; Truhlar, D.G.
 J. Phys. Chem. B 2009, 113, 6378-6396.
 iSolventCode=           1
 Solvent: water                                                           
 
 vradii
            1           2           3           4           5           6
    1   1.8500000   1.8500000   1.8900000   1.8900000   1.8900000   1.2000000
            7           8           9          10          11          12
    1   1.2000000   1.2000000   1.2000000   1.2000000   1.2000000   1.2000000
           13
    1   1.2000000
 Changing PCM_VDW_RADII to SMD_RADIUS
 Discretize the solute cavity surface with Lebedev spheres
	Using 110 Lebedev grid points for each H atom
	Using 194 Lebedev grid points for other atoms
	Atomic van der Waals radii will be scaled by 1.20
 Remove points where switching function is < 1.0e-08
 Keep 920 surface tesserae and discard 930 interior tesserae
 Molecular Surface Area = 114.120 Angst**2

                       Distance Matrix (Angstroms)
             C (  1)   C (  2)   N (  3)   N (  4)   N (  5)   H (  6)
   C (  2)  2.475783
   N (  3)  1.471434  1.327725
   N (  4)  2.823393  1.320347  2.296439
   N (  5)  3.673536  1.318086  2.293318  2.279822
   H (  6)  2.139277  2.009221  1.010555  3.195902  2.474287
   H (  7)  2.457033  2.019668  2.506997  1.006216  3.190696  3.508644
   H (  8)  3.827634  2.025353  3.208965  1.007569  2.496997  4.023546
   H (  9)  3.970827  2.016972  2.500117  3.191657  1.007017  2.253874
   H ( 10)  4.507085  2.037081  3.217234  2.513535  1.011995  3.482370
   H ( 11)  1.092946  2.853216  2.102354  2.954831  4.064868  2.790211
   H ( 12)  1.091821  2.731635  2.103766  2.699332  3.988417  2.897894
   H ( 13)  1.099999  3.377865  2.150154  3.892040  4.438583  2.378674
             H (  7)   H (  8)   H (  9)   H ( 10)   H ( 11)   H ( 12)
   H (  8)  1.735234
   H (  9)  4.022557  3.498229
   H ( 10)  3.515148  2.311715  1.738184
   H ( 11)  2.427812  3.879484  4.438381  4.829887
   H ( 12)  2.149247  3.660324  4.445266  4.683168  1.777390
   H ( 13)  3.542070  4.898544  4.532543  5.350340  1.781957  1.771343

 
 A cutoff of  1.0D-14 yielded   5442 shell pairs
 There are     33170 function pairs (     41506 Cartesian)
 Smallest overlap matrix eigenvalue = 1.64E-05

 Scale SEOQF with 1.000000e-01/1.000000e-01/1.000000e-01

 Standard Electronic Orientation quadrupole field applied
 Nucleus-field energy     =    -0.0000000233 hartrees
 Guess from superposition of atomic densities
 Warning:  Energy on first SCF cycle will be non-variational
 SAD guess density has 40.388232 electrons

 -----------------------------------------------------------------------
  General SCF calculation program by
  Eric Jon Sundstrom, Paul Horn, Yuezhi Mao, Dmitri Zuev, Alec White,
  David Stuck, Shaama M.S., Shane Yost, Joonho Lee, David Small,
  Daniel Levine, Susi Lehtola, Hugh Burton, Evgeny Epifanovsky
 -----------------------------------------------------------------------
 Exchange:     0.1670 Hartree-Fock + 1.0000 wB97X-V + LR-HF
 Correlation:  1.0000 wB97X-V
 Using Euler-Maclaurin-Lebedev (99,590) quadrature formula
 Nonlocal Correlation:  VV10 with C = 0.0100 and b = 6.00 and scale = 1.00000
 Grid used for NLC:  SG-1 standard quadrature
Energy prior to optimization (guess energy) = -244.727101257730
Begin Timing: Total SCF Calculation
begin iterations for algorithm: DIIS         
the SCF tolerance is set to 1.00e-08
    1    -244.7271012577      7.93e-03     00000 
    2    -244.9656782925      6.24e-03     00000 
    3    -245.2056612772      3.31e-04     00000 
    4    -245.2065806451      1.74e-04     00000 
    5    -245.2068137860      4.58e-05     00000 
    6    -245.2068315137      1.90e-05     00000 
    7    -245.2068345090      3.16e-06     00000 
    8    -245.2068346804      9.17e-07     00000 
    9    -245.2068346936      3.84e-07     00000 
   10    -245.2068346961      1.03e-07     00000 
   11    -245.2068346963      4.88e-08     00000 
   12    -245.2068346963      1.52e-08     00000 
   13    -245.2068346963      2.00e-09     00000 Convergence criterion met
Timing for Total SCF: 737.00s (wall), 1460.95s (cpu)
(3)  G-ENP(liq) elect-nuc-pol free energy of system     -245.206834696 a.u.
(4)  G-CDS(liq) cavity-dispersion-solvent structure 
     free energy                                                2.7326 kcal/mol
(6)  G-S(liq) free energy of system                     -245.202480101 a.u.
E_pcm = -0.1078431608
E_cds = 0.0043545957
Multipole orders to be included
        2
        3
computing dipole RHS
computing quadrupole RHS
total number of RHS in solve_reponses: 8
RHS batch sizes
        8
Beginning Block Conjugate Gradient Iterations. Batch Number: 0
computing hessian-vector products by finite difference
              1      4.91e-01     00000 Conjugate Gradient Iteration
computing hessian-vector products by finite difference
              2      1.90e-01     00000 Conjugate Gradient Iteration
computing hessian-vector products by finite difference
              3      5.01e-02     00000 Conjugate Gradient Iteration
computing hessian-vector products by finite difference
              4      1.41e-02     00000 Conjugate Gradient Iteration
computing hessian-vector products by finite difference
              5      1.96e-03     00000 Conjugate Gradient Iteration
computing hessian-vector products by finite difference
              6      3.29e-04     00000 Conjugate Gradient Iteration
computing hessian-vector products by finite difference
              7      4.18e-05     00000 Conjugate Gradient Iteration
computing hessian-vector products by finite difference
              8      5.39e-06     00000 Conjugate Gradient Iteration
computing hessian-vector products by finite difference
              9      1.20e-06     00000 Conjugate Gradient Iteration
computing hessian-vector products by finite difference
             10      3.75e-07     00000 Conjugate Gradient Iteration
computing hessian-vector products by finite difference
             11      4.52e-08     00000 Conjugate Gradient Iteration
computing hessian-vector products by finite difference
             12      4.19e-09     00000 CG Converged
batch 0 complete
Done Calculating Responses
TESTING ORTHOGONALIZATION OF MULTIPOLE BASIS
Multipole virts passed orthogonality test
Virts Per Order
           60
          100
 
 --------------------------------------------------------------
 
                    Orbital Energies (a.u.)
 --------------------------------------------------------------
 
 Alpha MOs
 -- Occupied --
-14.4550 -14.4477 -14.4456 -10.4228 -10.3059  -1.1727  -1.0538  -1.0428
 -0.8514  -0.7664  -0.7228  -0.6879  -0.6154  -0.6104  -0.5958  -0.5703
 -0.5252  -0.5058  -0.3998  -0.3762
 -- Virtual --
  0.0588   0.0843   0.0981   0.1030   0.1234   0.1258   0.1367   0.1502
  0.1722   0.1816   0.1908   0.1989   0.2021   0.2125   0.2203   0.2403
  0.2428   0.2473   0.2510   0.2685   0.2827   0.2850   0.2980   0.3010
  0.3138   0.3202   0.3232   0.3278   0.3378   0.3393   0.3502   0.3589
  0.3652   0.3767   0.3820   0.4010   0.4081   0.4101   0.4119   0.4343
  0.4423   0.4486   0.4541   0.4602   0.4704   0.4754   0.4905   0.4983
  0.5030   0.5055   0.5229   0.5267   0.5279   0.5390   0.5495   0.5566
  0.5600   0.5704   0.5791   0.5897   0.6097   0.6273   0.6445   0.6578
  0.6630   0.6713   0.6842   0.7013   0.7170   0.7357   0.7491   0.7588
  0.7903   0.8000   0.8219   0.8324   0.8391   0.8515   0.8532   0.8781
  0.8827   0.8938   0.9114   0.9224   0.9362   0.9781   0.9908   1.0195
  1.0398   1.0675   1.0804   1.0913   1.1026   1.1138   1.1330   1.1353
  1.1614   1.1902   1.2207   1.2538   1.2729   1.3380   1.3732   1.4203
  1.4387   1.4447   1.4741   1.4979   1.5614   1.5732   1.6562   1.6725
  1.6795   1.7088   1.7467   1.7950   1.8422   1.8537   1.8693   1.8880
  1.8962   1.9160   1.9237   1.9807   2.0040   2.0177   2.0364   2.0742
  2.1045   2.1283   2.1755   2.1823   2.2132   2.2596   2.2641   2.3006
  2.3207   2.3559   2.3939   2.4015   2.4544   2.4758   2.5119   2.5479
  2.5747   2.5982   2.6363   2.6382   2.6523   2.6675   2.7183   2.7634
  2.7977   2.8200   2.8364   2.8946   2.9006   2.9129   2.9288   2.9725
  3.0558   3.1346   3.1397   3.1488   3.1829   3.2037   3.2289   3.2570
  3.2728   3.2916   3.3268   3.3376   3.3590   3.3932   3.4213   3.4378
  3.4574   3.4892   3.5098   3.6021   3.6294   3.6460   3.6835   3.7416
  3.8007   3.8569   3.9568   3.9783   4.1061   4.1351   4.1612   4.2320
  4.3032   4.3267   4.3327   4.3598   4.4077   4.4953   4.5880   4.6266
  4.6597   4.8412   4.8574   4.8719   4.9450   4.9969   5.0303   5.0535
  5.1172   5.1229   5.1356   5.1673   5.1886   5.2113   5.2752   5.3655
  5.3958   5.4170   5.4499   5.4709   5.4886   5.5260   5.5831   5.6527
  5.6995   5.7850   5.8126   5.8963   6.1575   6.1962   6.3975   6.4725
 22.6776  23.6546  32.3390  32.4535  32.8120
 --------------------------------------------------------------
 
          Ground-State Mulliken Net Atomic Charges

     Atom                 Charge (a.u.)
  ----------------------------------------
      1 C                    -0.799535
      2 C                     0.409901
      3 N                    -0.106866
      4 N                    -0.285791
      5 N                    -0.306058
      6 H                     0.279246
      7 H                     0.219629
      8 H                     0.248356
      9 H                     0.248082
     10 H                     0.247097
     11 H                     0.278430
     12 H                     0.294053
     13 H                     0.273456
  ----------------------------------------
  Sum of atomic charges =     1.000000

 -----------------------------------------------------------------
                    Cartesian Multipole Moments
 -----------------------------------------------------------------
    Charge (ESU x 10^10)
                 4.8032
    Dipole Moment (Debye)
         X       0.2885      Y      -5.2791      Z     -11.7049
       Tot      12.8436
    Quadrupole Moments (Debye-Ang)
        XX     -17.5347     XY      -2.6854     YY     -11.1025
        XZ      -4.3213     YZ       6.3666     ZZ       0.1544
    Octopole Moments (Debye-Ang^2)
       XXX      -4.4242    XXY       5.6295    XYY       4.2093
       YYY      17.0565    XXZ      46.7862    XYZ      10.7734
       YYZ      46.0837    XZZ      17.3235    YZZ      18.6151
       ZZZ     149.1451
    Hexadecapole Moments (Debye-Ang^3)
      XXXX     -98.7686   XXXY       6.6131   XXYY     -52.4540
      XYYY      -9.6186   YYYY    -247.0205   XXXZ       6.8142
      XXYZ      -2.9802   XYYZ     -11.0708   YYYZ     -44.2403
      XXZZ    -161.4932   XYZZ     -28.1239   YYZZ    -227.6963
      XZZZ     -45.0195   YZZZ    -127.6940   ZZZZ   -1048.4615
 -----------------------------------------------------------------
Archival summary:
1\1\nid00569\SP\ProcedureUnspecified\BasisUnspecified\328(1+,1)\meili\SunSep2605:31:452021SunSep2605:31:452021\0\\#,ProcedureUnspecified,BasisUnspecified,\\1,1\C\N,1,1.31809\H,2,1.00702,1,119.736\H,2,1.01199,1,121.357,3,-176.925,0\N,1,1.32035,2,119.556,3,-178.237,0\H,5,1.00622,1,119.869,2,175.825,0\H,5,1.00757,1,120.329,2,6.11298,0\N,1,1.32772,2,120.171,3,2.00368,0\H,8,1.01055,1,117.833,2,-0.834126,0\C,8,1.47143,1,124.294,2,179.947,0\H,10,1.09182,8,109.426,1,-49.3445,0\H,10,1.09295,8,109.247,1,69.778,0\H,10,1.1,8,112.677,1,-169.298,0\\\@

 Total job time:  13433.62s(wall), 26638.34s(cpu) 
 Sun Sep 26 05:31:46 2021

        *************************************************************
        *                                                           *
        *  Thank you very much for using Q-Chem.  Have a nice day.  *
        *                                                           *
        *************************************************************


Done Job For Fragment 0
calling putenv with: QCSCRATCH=/global/cscratch1/sd/meili 
calling putenv with: QCLOCALSCR=/tmp 
calling putenv with: QCTHREADS=32 
Creating input file /tmp/qchem59843/Frg2.input
using default PutDataFrgm: nothing
calling putenv with: QCSCRATCH=/tmp/qchem59843/ 
calling putenv with: QCLOCALSCR=/tmp/qchem59843/ 
Spawning Job For Fragment 1
                  Welcome to Q-Chem
     A Quantum Leap Into The Future Of Chemistry


 Q-Chem 5.2, Q-Chem, Inc., Pleasanton, CA (2019)

 License issued to: National Energy Research Scientific Computing Center

 Yihan Shao,  Zhengting Gan,  E. Epifanovsky,  A. T. B. Gilbert,  M. Wormit,  
 J. Kussmann,  A. W. Lange,  A. Behn,  Jia Deng,  Xintian Feng,  D. Ghosh,  
 M. Goldey,  P. R. Horn,  L. D. Jacobson,  I. Kaliman,  T. Kus,  A. Landau,  
 Jie Liu,  E. I. Proynov,  R. M. Richard,  R. P. Steele,  E. J. Sundstrom,  
 H. L. Woodcock III,  P. M. Zimmerman,  D. Zuev,  B. Albrecht,  E. Alguire,  
 S. A. Baeppler,  D. Barton,  Z. Benda,  Y. A. Bernard,  E. J. Berquist,  
 K. B. Bravaya,  H. Burton,  D. Casanova,  Chun-Min Chang,  Yunqing Chen,  
 A. Chien,  K. D. Closser,  M. P. Coons,  S. Coriani,  S. Dasgupta,  
 A. L. Dempwolff,  M. Diedenhofen,  Hainam Do,  R. G. Edgar,  Po-Tung Fang,  
 S. Faraji,  S. Fatehi,  Qingguo Feng,  K. D. Fenk,  J. Fosso-Tande,  
 J. Gayvert,  Qinghui Ge,  A. Ghysels,  G. Gidofalvi,  J. Gomes,  
 J. Gonthier,  A. Gunina,  D. Hait,  M. W. D. Hanson-Heine,  
 P. H. P. Harbach,  A. W. Hauser,  M. F. Herbst,  J. E. Herr,  
 E. G. Hohenstein,  Z. C. Holden,  Kerwin Hui,  B. C. Huynh,  T.-C. Jagau,  
 Hyunjun Ji,  B. Kaduk,  K. Khistyaev,  Jaehoon Kim,  P. Klunzinger,  K. Koh,  
 D. Kosenkov,  L. Koulias,  T. Kowalczyk,  C. M. Krauter,  A. Kunitsa,  
 Ka Un Lao,  A. Laurent,  K. V. Lawler,  Joonho Lee,  D. Lefrancois,  
 S. Lehtola,  D. S. Levine,  Yi-Pei Li,  You-Sheng Lin,  Fenglai Liu,  
 E. Livshits,  A. Luenser,  P. Manohar,  E. Mansoor,  S. F. Manzer,  
 Shan-Ping Mao,  Yuezhi Mao,  N. Mardirossian,  A. V. Marenich,  
 T. Markovich,  L. A. Martinez-Martinez,  S. A. Maurer,  N. J. Mayhall,  
 S. C. McKenzie,  J.-M. Mewes,  P. Morgante,  A. F. Morrison,  
 J. W. Mullinax,  K. Nanda,  T. S. Nguyen-Beck,  R. Olivares-Amaya,  
 J. A. Parkhill,  Zheng Pei,  T. M. Perrine,  F. Plasser,  P. Pokhilko,  
 S. Prager,  A. Prociuk,  E. Ramos,  D. R. Rehn,  F. Rob,  M. Scheurer,  
 M. Schneider,  N. Sergueev,  S. M. Sharada,  S. Sharma,  D. W. Small,  
 T. Stauch,  T. Stein,  Yu-Chuan Su,  A. J. W. Thom,  A. Tkatchenko,  
 T. Tsuchimochi,  N. M. Tubman,  L. Vogt,  M. L. Vidal,  O. Vydrov,  
 M. A. Watson,  J. Wenzel,  M. de Wergifosse,  T. A. Wesolowski,  A. White,  
 J. Witte,  A. Yamada,  Jun Yang,  K. Yao,  S. Yeganeh,  S. R. Yost,  
 Zhi-Qiang You,  A. Zech,  Igor Ying Zhang,  Xing Zhang,  Yan Zhao,  
 Ying Zhu,  B. R. Brooks,  G. K. L. Chan,  C. J. Cramer,  M. S. Gordon,  
 W. J. Hehre,  A. Klamt,  M. W. Schmidt,  C. D. Sherrill,  D. G. Truhlar,  
 A. Aspuru-Guzik,  R. Baer,  A. T. Bell,  N. A. Besley,  Jeng-Da Chai,  
 A. E. DePrince, III,  R. A. DiStasio Jr.,  A. Dreuw,  B. D. Dunietz,  
 T. R. Furlani,  Chao-Ping Hsu,  Yousung Jung,  Jing Kong,  D. S. Lambrecht,  
 WanZhen Liang,  C. Ochsenfeld,  V. A. Rassolov,  L. V. Slipchenko,  
 J. E. Subotnik,  T. Van Voorhis,  J. M. Herbert,  A. I. Krylov,  
 P. M. W. Gill,  M. Head-Gordon

 Contributors to earlier versions of Q-Chem not listed above: 
 R. D. Adamson,  B. Austin,  J. Baker,  G. J. O. Beran,  K. Brandhorst,  
 S. T. Brown,  E. F. C. Byrd,  A. K. Chakraborty,  C.-L. Cheng,  
 Siu Hung Chien,  D. M. Chipman,  D. L. Crittenden,  H. Dachsel,  
 R. J. Doerksen,  A. D. Dutoi,  L. Fusti-Molnar,  W. A. Goddard III,  
 A. Golubeva-Zadorozhnaya,  S. R. Gwaltney,  G. Hawkins,  A. Heyden,  
 S. Hirata,  G. Kedziora,  F. J. Keil,  C. Kelley,  Jihan Kim,  R. A. King,  
 R. Z. Khaliullin,  P. P. Korambath,  W. Kurlancheek,  A. M. Lee,  M. S. Lee,  
 S. V. Levchenko,  Ching Yeh Lin,  D. Liotard,  R. C. Lochan,  I. Lotan,  
 P. E. Maslen,  N. Nair,  D. P. O'Neill,  D. Neuhauser,  E. Neuscamman,  
 C. M. Oana,  R. Olson,  B. Peters,  R. Peverati,  P. A. Pieniazek,  
 Y. M. Rhee,  J. Ritchie,  M. A. Rohrdanz,  E. Rosta,  N. J. Russ,  
 H. F. Schaefer III,  N. E. Schultz,  N. Shenvi,  A. C. Simmonett,  A. Sodt,  
 D. Stuck,  K. S. Thanthiriwatte,  V. Vanovschi,  Tao Wang,  A. Warshel,  
 C. F. Williams,  Q. Wu,  X. Xu,  W. Zhang

 Please cite Q-Chem as follows:
 Y. Shao et al., Mol. Phys. 113, 184-215 (2015)
 DOI: 10.1080/00268976.2014.952696

 Q-Chem 5.2.0 for Intel X86 EM64T Linux

 Parts of Q-Chem use Armadillo 8.300.2 (Tropical Shenanigans).
 http://arma.sourceforge.net/

 Q-Chem begins on Sun Sep 26 05:31:47 2021  

Host: cori01
0

     Scratch files written to /tmp/qchem59843//Frg2//
 May1019 |scratch|qcdevops|jenkins|workspace|build_RNUM -1
Processing $rem in /global/common/cori/software/qchem/5.2/config/preferences:
	 MEM_TOTAL  96000 
NAlpha2: 58
NElect   58
Mult     1
Symmetry turned off for PCM/SM12/SMD calculation

Checking the input file for inconsistencies... 	...done.

--------------------------------------------------------------
User input:
--------------------------------------------------------------
$molecule
0 1
 6	2.6026310525	-0.7387582308	1.5260104854
 6	-0.6043689475	1.1182417692	0.6430104854
 6	0.6636310525	0.5462417692	0.5470104854
 6	-1.2903689475	1.0862417692	1.8580104854
 6	1.2586310525	-0.0617582308	1.6570104854
 6	-0.7063689475	0.4882417692	2.9770104854
 6	0.5646310525	-0.0817582308	2.8710104854
 8	-2.5363689475	1.6292417692	1.9460104854
 1	-1.0503689475	1.5892417692	-0.2159895146
 1	1.2006310525	0.5852417692	-0.3909895146
 1	-2.8383689475	1.9052417692	1.0490104854
 1	-1.2463689475	0.4572417692	3.9120104854
 1	3.0936310525	-0.7727582308	2.4990104854
 1	3.2226310525	-0.1237582308	0.8710104854
 1	1.0046310525	-0.5627582308	3.7340104854
 1	2.5292710525	-1.7557122308	1.1131874854
$end
$rem
EDA2		1
METHOD		WB97X-V
BASIS		DEF2-TZVPD
XC_GRID		000099000590
NL_GRID		1
UNRESTRICTED		FALSE
MAX_SCF_CYCLES		200
SYMMETRY		FALSE
SYM_IGNORE		TRUE
BASIS_LIN_DEP_THRESH		6
THRESH		14
SCF_CONVERGENCE		8
SCF_PRINT_FRGM		TRUE
SOLVENT_METHOD		SMD
!required keywords
JOBTYPE		SP
SYM_IGNORE		TRUE
SUBSYSTEM		TRUE
GEN_SCFMAN		TRUE
CHILD_INSTRUCTION		2
SYM_IGNORE		TRUE
SCFMI		0
RI_K 0		
PARI_K 0		
MIN_PARI_K 0		
IARI_K 0		
OCC_RI_K 0		
PURECART		1111
MEM_STATIC		2000
MEM_TOTAL		96000
GUI		0
CHILD_MP		1
CHILD_MP_ORDERS		232
FRZ_RELAX		0
FRZ_RELAX_METHOD		0
EDA_CLS_ELEC		1
EDA_CLS_DISP		0
FRZ_ORTHO_DECOMP		1
EDA2		FALSE
FRGM_METHOD		FALSE
CIS_N_ROOTS  0
LOCAL_CIS    0
CIS_RLX_DNS  1
$end
$smx
SOLVENT			WATER
$end
--------------------------------------------------------------
 ----------------------------------------------------------------
             Standard Nuclear Orientation (Angstroms)
    I     Atom           X                Y                Z
 ----------------------------------------------------------------
    1      C       2.6026310525    -0.7387582308     1.5260104854
    2      C      -0.6043689475     1.1182417692     0.6430104854
    3      C       0.6636310525     0.5462417692     0.5470104854
    4      C      -1.2903689475     1.0862417692     1.8580104854
    5      C       1.2586310525    -0.0617582308     1.6570104854
    6      C      -0.7063689475     0.4882417692     2.9770104854
    7      C       0.5646310525    -0.0817582308     2.8710104854
    8      O      -2.5363689475     1.6292417692     1.9460104854
    9      H      -1.0503689475     1.5892417692    -0.2159895146
   10      H       1.2006310525     0.5852417692    -0.3909895146
   11      H      -2.8383689475     1.9052417692     1.0490104854
   12      H      -1.2463689475     0.4572417692     3.9120104854
   13      H       3.0936310525    -0.7727582308     2.4990104854
   14      H       3.2226310525    -0.1237582308     0.8710104854
   15      H       1.0046310525    -0.5627582308     3.7340104854
   16      H       2.5292710525    -1.7557122308     1.1131874854
 ----------------------------------------------------------------
 Nuclear Repulsion Energy =         342.48916744 hartrees
 There are       29 alpha and       29 beta electrons
 Requested basis set is def2-TZVPD
 There are 145 shells and 371 basis functions

 Total QAlloc Memory Limit  96000 MB
 Mega-Array Size      1956 MB
 MEM_STATIC part      2000 MB
 
 Citation of the SMD model:
 Marenich, A.V.; Cramer, C.J.; Truhlar, D.G.
 J. Phys. Chem. B 2009, 113, 6378-6396.
 iSolventCode=           1
 Solvent: water                                                           
 
 vradii
            1           2           3           4           5           6
    1   1.8500000   1.8500000   1.8500000   1.8500000   1.8500000   1.8500000
            7           8           9          10          11          12
    1   1.8500000   1.5200000   1.2000000   1.2000000   1.2000000   1.2000000
           13          14          15          16
    1   1.2000000   1.2000000   1.2000000   1.2000000
 Changing PCM_VDW_RADII to SMD_RADIUS
 Discretize the solute cavity surface with Lebedev spheres
	Using 110 Lebedev grid points for each H atom
	Using 194 Lebedev grid points for other atoms
	Atomic van der Waals radii will be scaled by 1.20
 Remove points where switching function is < 1.0e-08
 Keep 1194 surface tesserae and discard 1238 interior tesserae
 Molecular Surface Area = 141.687 Angst**2
 A cutoff of  1.0D-14 yielded  10044 shell pairs
 There are     67076 function pairs (     85768 Cartesian)
 Smallest overlap matrix eigenvalue = 5.71E-07
 Linear dependence detected in AO basis
 Tighter screening thresholds may be required for diffuse basis sets
 Use S2THRESH > 14 and THRESH = 14 in case of SCF convergence issues
 Number of orthogonalized atomic orbitals = 370
 Maximum deviation from orthogonality = 3.059E-10

 Scale SEOQF with 1.000000e-01/1.000000e-01/1.000000e-01

 Standard Electronic Orientation quadrupole field applied
 Nucleus-field energy     =    -0.0000000148 hartrees
 Guess from superposition of atomic densities
 Warning:  Energy on first SCF cycle will be non-variational
 SAD guess density has 57.738434 electrons

 -----------------------------------------------------------------------
  General SCF calculation program by
  Eric Jon Sundstrom, Paul Horn, Yuezhi Mao, Dmitri Zuev, Alec White,
  David Stuck, Shaama M.S., Shane Yost, Joonho Lee, David Small,
  Daniel Levine, Susi Lehtola, Hugh Burton, Evgeny Epifanovsky
 -----------------------------------------------------------------------
 Exchange:     0.1670 Hartree-Fock + 1.0000 wB97X-V + LR-HF
 Correlation:  1.0000 wB97X-V
 Using Euler-Maclaurin-Lebedev (99,590) quadrature formula
 Nonlocal Correlation:  VV10 with C = 0.0100 and b = 6.00 and scale = 1.00000
 Grid used for NLC:  SG-1 standard quadrature
Energy prior to optimization (guess energy) = -346.494860930983
Begin Timing: Total SCF Calculation
begin iterations for algorithm: DIIS         
the SCF tolerance is set to 1.00e-08
    1    -346.4948609310      5.17e-03     00000 
    2    -346.4272972479      5.64e-03     00000 
    3    -346.8203339106      5.36e-04     00000 
    4    -346.8253295374      1.75e-04     00000 
    5    -346.8260375127      3.82e-05     00000 
    6    -346.8260900360      1.29e-05     00000 
    7    -346.8260948231      4.84e-06     00000 
    8    -346.8260955245      1.45e-06     00000 
    9    -346.8260956135      4.66e-07     00000 
   10    -346.8260956254      2.55e-07     00000 
   11    -346.8260956289      7.24e-08     00000 
   12    -346.8260956296      3.47e-08     00000 
   13    -346.8260956297      1.44e-08     00000 
   14    -346.8260956297      3.63e-09     00000 Convergence criterion met
Timing for Total SCF: 2186.00s (wall), 4345.70s (cpu)
(3)  G-ENP(liq) elect-nuc-pol free energy of system     -346.826095630 a.u.
(4)  G-CDS(liq) cavity-dispersion-solvent structure 
     free energy                                                3.8088 kcal/mol
(6)  G-S(liq) free energy of system                     -346.820025996 a.u.
E_pcm = -0.0176724742
E_cds = 0.0060696333
Multipole orders to be included
        2
        3
computing dipole RHS
computing quadrupole RHS
total number of RHS in solve_reponses: 8
RHS batch sizes
        8
Beginning Block Conjugate Gradient Iterations. Batch Number: 0
computing hessian-vector products by finite difference
              1      6.41e-01     00000 Conjugate Gradient Iteration
computing hessian-vector products by finite difference
              2      2.01e-01     00000 Conjugate Gradient Iteration
computing hessian-vector products by finite difference
              3      5.36e-02     00000 Conjugate Gradient Iteration
computing hessian-vector products by finite difference
              4      1.76e-02     00000 Conjugate Gradient Iteration
computing hessian-vector products by finite difference
              5      5.00e-03     00000 Conjugate Gradient Iteration
computing hessian-vector products by finite difference
              6      1.91e-03     00000 Conjugate Gradient Iteration
computing hessian-vector products by finite difference
              7      4.05e-04     00000 Conjugate Gradient Iteration
computing hessian-vector products by finite difference
              8      7.20e-05     00000 Conjugate Gradient Iteration
computing hessian-vector products by finite difference
              9      1.39e-05     00000 Conjugate Gradient Iteration
computing hessian-vector products by finite difference
             10      2.20e-06     00000 Conjugate Gradient Iteration
computing hessian-vector products by finite difference
             11      3.10e-07     00000 Conjugate Gradient Iteration
computing hessian-vector products by finite difference
             12      4.88e-08     00000 Conjugate Gradient Iteration
computing hessian-vector products by finite difference
             13      1.70e-08     00000 Conjugate Gradient Iteration
computing hessian-vector products by finite difference
             14      5.33e-09     00000 CG Converged
batch 0 complete
Done Calculating Responses
TESTING ORTHOGONALIZATION OF MULTIPOLE BASIS
Multipole virts passed orthogonality test
Virts Per Order
           87
          145
 
 --------------------------------------------------------------
 
                    Orbital Energies (a.u.)
 --------------------------------------------------------------
 
 Alpha MOs
 -- Occupied --
-19.2423 -10.3314 -10.2719 -10.2697 -10.2691 -10.2672 -10.2663 -10.2531
 -1.1882  -0.9888  -0.8941  -0.8784  -0.8020  -0.7419  -0.7062  -0.6560
 -0.5980  -0.5733  -0.5427  -0.5371  -0.5273  -0.5159  -0.5070  -0.4705
 -0.4494  -0.4385  -0.4347  -0.3491  -0.3088
 -- Virtual --
  0.0627   0.0635   0.0743   0.0814   0.0889   0.0998   0.1140   0.1157
  0.1188   0.1368   0.1508   0.1563   0.1594   0.1771   0.1807   0.1977
  0.2080   0.2093   0.2223   0.2296   0.2405   0.2455   0.2558   0.2581
  0.2674   0.2725   0.2773   0.2807   0.2875   0.3002   0.3011   0.3071
  0.3093   0.3160   0.3171   0.3278   0.3382   0.3481   0.3493   0.3546
  0.3602   0.3620   0.3648   0.3769   0.3829   0.3835   0.3865   0.3975
  0.3983   0.3999   0.4035   0.4128   0.4179   0.4262   0.4291   0.4367
  0.4413   0.4539   0.4603   0.4638   0.4757   0.4775   0.4793   0.4857
  0.4914   0.4999   0.5028   0.5082   0.5149   0.5208   0.5299   0.5384
  0.5463   0.5513   0.5542   0.5633   0.5664   0.5744   0.5892   0.6007
  0.6042   0.6093   0.6239   0.6326   0.6461   0.6599   0.6703   0.6724
  0.6768   0.6845   0.6929   0.6986   0.7012   0.7043   0.7190   0.7325
  0.7373   0.7441   0.7477   0.7579   0.7614   0.7799   0.7842   0.7898
  0.7923   0.7941   0.7991   0.8042   0.8107   0.8166   0.8338   0.8402
  0.8451   0.8507   0.8578   0.8594   0.8727   0.8789   0.8865   0.8949
  0.9050   0.9139   0.9337   0.9532   0.9628   0.9762   0.9924   1.0113
  1.0232   1.0397   1.0452   1.0505   1.0572   1.0770   1.0792   1.0871
  1.1058   1.1212   1.1435   1.1822   1.1974   1.2336   1.2581   1.2944
  1.3045   1.3151   1.3327   1.3562   1.3639   1.3901   1.3939   1.4334
  1.4595   1.4697   1.4773   1.4836   1.5328   1.5682   1.6069   1.6226
  1.6334   1.6392   1.6846   1.6898   1.7039   1.7295   1.7910   1.8088
  1.8229   1.8299   1.8412   1.8640   1.8744   1.8855   1.9263   1.9313
  1.9461   1.9590   1.9766   1.9926   2.0052   2.0361   2.0405   2.0558
  2.0627   2.0790   2.0972   2.1071   2.1190   2.1546   2.1986   2.2118
  2.2249   2.2408   2.2749   2.2825   2.3020   2.3104   2.3461   2.3669
  2.4007   2.4140   2.4393   2.4624   2.4958   2.4979   2.5255   2.5621
  2.5816   2.6009   2.6206   2.6484   2.6521   2.6745   2.6884   2.7446
  2.7588   2.7643   2.7786   2.8031   2.8265   2.8367   2.8687   2.8815
  2.9032   2.9222   2.9394   2.9527   2.9639   2.9743   2.9781   3.0035
  3.0155   3.0489   3.0762   3.0850   3.1113   3.1322   3.1470   3.1673
  3.1856   3.2042   3.2227   3.2290   3.2513   3.2654   3.2820   3.2958
  3.3331   3.3458   3.3892   3.3912   3.3979   3.4188   3.4513   3.4604
  3.4682   3.4788   3.4988   3.5159   3.5234   3.5261   3.5397   3.5455
  3.5618   3.5688   3.5836   3.5997   3.6010   3.6237   3.6517   3.6640
  3.6801   3.7025   3.7405   3.7647   3.7987   3.8121   3.8413   3.8939
  3.9396   3.9646   3.9790   3.9905   4.0389   4.0847   4.1276   4.1482
  4.2511   4.2725   4.2853   4.3057   4.3118   4.3274   4.3402   4.3573
  4.3730   4.3819   4.4255   4.4517   4.4954   4.5401   4.6042   4.6083
  4.7355   4.7409   4.7842   4.8053   4.8819   4.9210   5.0260   5.0621
  5.0911   5.1316   5.1509   5.3013   5.3212   5.4114   5.4480   5.5365
  5.5920   5.6504   5.7156   5.7649   5.9511   6.1677   6.4710   6.5438
  6.6429   6.8754   7.0154   7.2942   7.4398  22.6642  22.6827  22.9313
 22.9884  23.0264  23.1706  23.4939  44.4201
 --------------------------------------------------------------
 
          Ground-State Mulliken Net Atomic Charges

     Atom                 Charge (a.u.)
  ----------------------------------------
      1 C                    -1.071722
      2 C                    -0.407330
      3 C                    -0.613657
      4 C                     0.692004
      5 C                     0.506660
      6 C                    -0.795504
      7 C                    -0.477507
      8 O                    -0.557218
      9 H                     0.371156
     10 H                     0.389516
     11 H                     0.341273
     12 H                     0.399106
     13 H                     0.302298
     14 H                     0.291786
     15 H                     0.386627
     16 H                     0.242512
  ----------------------------------------
  Sum of atomic charges =     0.000000

 -----------------------------------------------------------------
                    Cartesian Multipole Moments
 -----------------------------------------------------------------
    Charge (ESU x 10^10)
                 0.0000
    Dipole Moment (Debye)
         X       0.5513      Y       0.0001      Z      -2.0375
       Tot       2.1108
    Quadrupole Moments (Debye-Ang)
        XX     -45.5035     XY      -3.4601     YY     -48.8940
        XZ       5.8824     YZ      -6.0333     ZZ     -49.1009
    Octopole Moments (Debye-Ang^2)
       XXX      -9.5513    XXY     -17.7097    XYY      -8.7409
       YYY     -68.3420    XXZ     -96.2645    XYZ       4.6067
       YYZ     -95.5588    XZZ      12.8667    YZZ     -38.7712
       ZZZ    -237.8718
    Hexadecapole Moments (Debye-Ang^3)
      XXXX    -787.3283   XXXY     145.2941   XXYY    -168.9188
      XYYY     149.5178   YYYY    -299.0203   XXXZ      63.7223
      XXYZ     -60.4424   XYYZ      19.5479   YYYZ    -113.4228
      XXZZ    -361.5340   XYZZ      69.8049   YYZZ    -279.6392
      XZZZ      47.0192   YZZZ    -142.5750   ZZZZ   -1082.2342
 -----------------------------------------------------------------
Archival summary:
1\1\nid00569\SP\ProcedureUnspecified\BasisUnspecified\178\meili\SunSep2616:00:332021SunSep2616:00:332021\0\\#,ProcedureUnspecified,BasisUnspecified,\\0,1\C\O,1,1.36202\H,2,0.985895,1,109.454\C,1,1.39565,2,119.786,3,6.31968,0\H,4,1.0764,1,120.073,2,1.30058,0\C,4,1.39435,1,119.836,2,-179.113,0\H,6,1.08154,4,119.765,1,-179.051,0\C,1,1.39672,2,120.095,3,-173.082,0\H,8,1.08018,1,119.785,2,0.0434271,0\C,8,1.39699,1,119.625,2,179.133,0\H,10,1.08154,8,119.41,1,-178.685,0\C,6,1.3985,4,120.704,1,0.020354,0\C,12,1.51057,6,120.302,4,176.955,0\H,13,1.0904,12,109.708,6,156.123,0\H,13,1.09163,12,107.751,6,39.6238,0\H,13,1.1,12,112.802,6,-81.3387,0\\\@

 Total job time:  37729.44s(wall), 74552.81s(cpu) 
 Sun Sep 26 16:00:36 2021

        *************************************************************
        *                                                           *
        *  Thank you very much for using Q-Chem.  Have a nice day.  *
        *                                                           *
        *************************************************************


Done Job For Fragment 1
calling putenv with: QCSCRATCH=/global/cscratch1/sd/meili 
calling putenv with: QCLOCALSCR=/tmp 
calling putenv with: QCTHREADS=32 
Doing General SCFMI
 Exchange:     0.1670 Hartree-Fock + 1.0000 wB97X-V + LR-HF
 Correlation:  1.0000 wB97X-V
 Using Euler-Maclaurin-Lebedev (99,590) quadrature formula
 Nonlocal Correlation:  VV10 with C = 0.0100 and b = 6.00 and scale = 1.00000
 Grid used for NLC:  SG-1 standard quadrature
performing fock build before subrot guess so that all methods have access
Printing subrot_rss_gen Method Specification:
Occupied Subspace Method is 0
Virtual Subspace Method is 0
Energy of the unrelaxed supersystem initial determinant -591.906136045286
performing fock build before subrot guess so that all methods have access
Printing subrot_rss_gen Method Specification:
Occupied Subspace Method is 0
Virtual Subspace Method is 0
Energy of the unrelaxed supersystem initial determinant w/ solvent -592.036367737695
write pseudocanon occs and virts to disk
write pseudocanon orbital energies to disk
Tolerance of ortho_decomp_scf: 1.00e-06
GDM subspace size: 20
Beginning the Orthogonal Decomposition of the Initial Supersystem Wavefunction
    1    -591.8932619575      1.93e-02     ortho_decomp Preconditoned Steepest Descent
    2    -591.8946752290      4.77e-04     ortho_decomp BFGS Step
    3    -591.8946794393      3.31e-05     ortho_decomp BFGS Step
    4    -591.8946794455      1.25e-06     ortho_decomp BFGS Step
    5    -591.8946794455      3.88e-08     ortho_decomp 00000 Convergence criterion met
 Hartree-Fock
 Hartree-Fock
 Hartree-Fock
Doing General SCFMI
 Exchange:     0.1670 Hartree-Fock + 1.0000 wB97X-V + LR-HF
 Correlation:  1.0000 wB97X-V
 Using Euler-Maclaurin-Lebedev (99,590) quadrature formula
 Nonlocal Correlation:  VV10 with C = 0.0100 and b = 6.00 and scale = 1.00000
 Grid used for NLC:  SG-1 standard quadrature
performing fock build at end of subrot_r(subrot) constructor so that all methods have access
<S^2> of initial wavefunction before polarization iterations 0.0000000000
Beginning iterations for the determination of the polarized wavefunction
Energy prior to optimization (guess energy) = -592.036367737695
Begin Timing: Total SCF Calculation
begin iterations for algorithm: DIIS         
the SCF tolerance is set to 1.00e-08
    1    -592.0363677377      3.94e-05     00000 
    2    -592.0365352002      1.76e-05     00000 
    3    -592.0365578861      1.02e-05     00000 
    4    -592.0365661646      3.06e-06     00000 
    5    -592.0365672629      1.67e-06     00000 
    6    -592.0365675905      5.08e-07     00000 
    7    -592.0365676173      2.44e-07     00000 
    8    -592.0365676222      7.93e-08     00000 
    9    -592.0365676227      3.46e-08     00000 
   10    -592.0365676227      1.69e-08     00000 
   11    -592.0365676228      6.83e-09     00000 Convergence criterion met
write pseudocanon occs and virts to disk
write pseudocanon orbital energies to disk
Timing for Total SCF: 8301.00s (wall), 16499.21s (cpu)
<S^2> of polarized wavefunction after polarization iterations 0.0000000000
relaxing scfmi constraint to allow all rotations in the entire AO span
Doing General SCFMI
 Exchange:     0.1670 Hartree-Fock + 1.0000 wB97X-V + LR-HF
 Correlation:  1.0000 wB97X-V
 Using Euler-Maclaurin-Lebedev (99,590) quadrature formula
 Nonlocal Correlation:  VV10 with C = 0.0100 and b = 6.00 and scale = 1.00000
 Grid used for NLC:  SG-1 standard quadrature
performing fock build at end of subrot_r(subrot) constructor so that all methods have access
<S^2> of polarized wavefunction before ct-allowed iterations 0.0000000000
Beginning iterations for the determination of the CT-Allowed wavefunction
Energy prior to optimization (guess energy) = -592.036567622756
Begin Timing: Total SCF Calculation
begin iterations for algorithm: DIIS         
the SCF tolerance is set to 1.00e-08
    1    -592.0365676228      6.31e-05     00000 
    2    -592.0372261946      5.62e-06     00000 
    3    -592.0372423712      8.53e-07     00000 
    4    -592.0372428483      3.52e-07     00000 
    5    -592.0372428723      1.00e-07     00000 
    6    -592.0372428761      2.93e-08     00000 
    7    -592.0372428763      1.15e-08     00000 
    8    -592.0372428763      3.78e-09     00000 Convergence criterion met
write pseudocanon occs and virts to disk
write pseudocanon orbital energies to disk
Timing for Total SCF: 5796.00s (wall), 11543.90s (cpu)
<S^2> of ct_allowed wavefunction after ct-allowed iterations 0.0000000000

================================
        Results of EDA2         
================================
Basic EDA Quantities
--------------------
Fragment Energies (Ha):
1 -245.2024801006
2 -346.8200259963
--------------------
  E_prp (kJ/mol) = 0.0000
  E_sol (kJ/mol) = -12.6710
  E_frz (kJ/mol) = 3.3571
  E_pol (kJ/mol) = -0.5248
  E_vct (kJ/mol) = -1.7729
  E_int (kJ/mol) = -11.6116
--------------------


Initial Wavefunction Decomposition
--------------------
  --------------------
  Orthogonal Fragment Subspace Decomposition:
  --------------------
     E_elec   (ELEC)   (kJ/mol) = -3.8864
     E_pauli  (PAULI)  (kJ/mol) = 25.4278
     E_disp   (DISP)   (kJ/mol) = -18.1842
     --------------------
     Terms summing to E_pauli:
     --------------------
        E_kep_pauli       (kJ/mol) = 33.4368
        E_disp_free_pauli (kJ/mol) = -8.0090
  --------------------
  Classical Frozen Decomposition:
  --------------------
     E_cls_elec  (CLS ELEC)  (kJ/mol) = 6.2190
     E_cls_pauli (CLS PAULI) (kJ/mol) = -2.8618
    [E_mod_pauli (MOD PAULI) (kJ/mol) = 15.3224 (CLS PAULI - DISP from orthogonal decomposition) ]
  --------------------
--------------------

Simplified EDA Summary (kJ/mol)
--------------------
 PREPARATION     0.0000
 SOLVATION       -12.6710
 FROZEN          21.5413      (does not include dispersion)
[PAULI           25.4278]     (if this is negligible, then frozen describes electrostatics)
 DISPERSION      -18.1842
 POLARIZATION    -0.5248
 CHARGE TRANSFER -1.7729
 TOTAL           -11.6116     (PRP + SOL + FRZ + DISP + POL + CT)
--------------------
 
 --------------------------------------------------------------
 
                    Orbital Energies (a.u.)
 --------------------------------------------------------------
 
 Alpha MOs
 -- Occupied --
-19.2435 -14.4548 -14.4478 -14.4458 -10.4226 -10.3327 -10.3061 -10.2734
-10.2710 -10.2705 -10.2684 -10.2677 -10.2546  -1.1894  -1.1727  -1.0538
 -1.0429  -0.9901  -0.8955  -0.8799  -0.8515  -0.8033  -0.7665  -0.7434
 -0.7228  -0.7078  -0.6880  -0.6579  -0.6155  -0.6105  -0.6001  -0.5961
 -0.5748  -0.5703  -0.5439  -0.5387  -0.5281  -0.5250  -0.5172  -0.5083
 -0.5058  -0.4718  -0.4508  -0.4398  -0.4364  -0.3997  -0.3763  -0.3499
 -0.3101
 -- Virtual --
  0.0552   0.0601   0.0679   0.0717   0.0732   0.0884   0.0920   0.0959
  0.1033   0.1057   0.1129   0.1170   0.1197   0.1270   0.1336   0.1401
  0.1456   0.1537   0.1608   0.1624   0.1719   0.1733   0.1817   0.1866
  0.1914   0.2001   0.2022   0.2072   0.2132   0.2177   0.2201   0.2275
  0.2365   0.2376   0.2419   0.2475   0.2525   0.2557   0.2582   0.2618
  0.2663   0.2702   0.2713   0.2740   0.2840   0.2864   0.2922   0.2942
  0.2989   0.3020   0.3078   0.3148   0.3181   0.3232   0.3251   0.3271
  0.3284   0.3308   0.3377   0.3391   0.3406   0.3479   0.3512   0.3541
  0.3582   0.3601   0.3617   0.3662   0.3727   0.3735   0.3754   0.3792
  0.3812   0.3875   0.3885   0.3929   0.3950   0.3973   0.4056   0.4114
  0.4121   0.4149   0.4173   0.4261   0.4297   0.4337   0.4378   0.4411
  0.4444   0.4498   0.4518   0.4568   0.4587   0.4636   0.4664   0.4696
  0.4717   0.4755   0.4782   0.4846   0.4877   0.4907   0.4931   0.4980
  0.5033   0.5048   0.5077   0.5124   0.5149   0.5181   0.5231   0.5310
  0.5321   0.5347   0.5426   0.5479   0.5521   0.5548   0.5580   0.5609
  0.5683   0.5694   0.5730   0.5825   0.5866   0.5897   0.5912   0.5965
  0.6021   0.6047   0.6099   0.6205   0.6235   0.6259   0.6313   0.6427
  0.6451   0.6465   0.6556   0.6572   0.6646   0.6681   0.6698   0.6786
  0.6821   0.6960   0.6986   0.7011   0.7028   0.7074   0.7132   0.7193
  0.7237   0.7275   0.7323   0.7367   0.7433   0.7452   0.7498   0.7523
  0.7646   0.7682   0.7700   0.7724   0.7801   0.7850   0.7896   0.7921
  0.7964   0.8007   0.8058   0.8075   0.8098   0.8134   0.8241   0.8267
  0.8276   0.8319   0.8353   0.8445   0.8547   0.8563   0.8583   0.8643
  0.8675   0.8745   0.8821   0.8874   0.8884   0.8977   0.9010   0.9072
  0.9153   0.9214   0.9283   0.9299   0.9398   0.9478   0.9514   0.9607
  0.9699   0.9753   0.9791   0.9845   0.9886   0.9969   1.0025   1.0137
  1.0170   1.0303   1.0383   1.0418   1.0498   1.0546   1.0601   1.0649
  1.0708   1.0755   1.0791   1.0949   1.1040   1.1109   1.1195   1.1245
  1.1298   1.1389   1.1514   1.1569   1.1629   1.1719   1.1783   1.1906
  1.2043   1.2079   1.2156   1.2294   1.2546   1.2659   1.2704   1.2882
  1.3090   1.3202   1.3397   1.3402   1.3517   1.3702   1.3767   1.3920
  1.3988   1.4083   1.4127   1.4368   1.4517   1.4636   1.4740   1.4764
  1.4956   1.5001   1.5048   1.5208   1.5294   1.5540   1.5691   1.5782
  1.5999   1.6133   1.6280   1.6494   1.6649   1.6665   1.6678   1.6917
  1.7022   1.7140   1.7228   1.7384   1.7493   1.7708   1.7862   1.7945
  1.8076   1.8369   1.8373   1.8491   1.8639   1.8697   1.8785   1.8881
  1.9011   1.9051   1.9132   1.9349   1.9488   1.9517   1.9591   1.9661
  1.9717   1.9743   1.9895   2.0048   2.0124   2.0145   2.0277   2.0348
  2.0454   2.0594   2.0644   2.0709   2.0961   2.1029   2.1073   2.1137
  2.1214   2.1306   2.1561   2.1749   2.1905   2.2077   2.2181   2.2218
  2.2345   2.2419   2.2480   2.2613   2.2745   2.2826   2.2936   2.2967
  2.3099   2.3251   2.3280   2.3358   2.3567   2.3716   2.3814   2.3933
  2.4062   2.4210   2.4286   2.4354   2.4604   2.4727   2.4819   2.4944
  2.5147   2.5421   2.5554   2.5655   2.5743   2.5822   2.5997   2.6134
  2.6335   2.6424   2.6557   2.6711   2.6767   2.6811   2.6883   2.7007
  2.7070   2.7313   2.7404   2.7423   2.7504   2.7764   2.7807   2.7931
  2.8073   2.8150   2.8242   2.8433   2.8514   2.8626   2.8796   2.8868
  2.9011   2.9235   2.9302   2.9426   2.9438   2.9518   2.9598   2.9713
  2.9837   2.9901   2.9947   3.0082   3.0164   3.0486   3.0535   3.0735
  3.0889   3.1005   3.1142   3.1289   3.1320   3.1511   3.1575   3.1722
  3.1812   3.1913   3.1970   3.2084   3.2116   3.2237   3.2411   3.2480
  3.2634   3.2754   3.2816   3.2913   3.3001   3.3034   3.3118   3.3326
  3.3392   3.3548   3.3700   3.3785   3.3845   3.3936   3.4011   3.4099
  3.4257   3.4377   3.4421   3.4542   3.4614   3.4666   3.4850   3.4869
  3.4929   3.4991   3.5074   3.5190   3.5312   3.5405   3.5499   3.5612
  3.5706   3.5768   3.5926   3.6054   3.6133   3.6219   3.6260   3.6387
  3.6456   3.6515   3.6654   3.6737   3.6891   3.7033   3.7192   3.7368
  3.7465   3.7803   3.7913   3.8076   3.8161   3.8289   3.8489   3.8778
  3.9118   3.9462   3.9713   3.9863   3.9930   4.0035   4.0166   4.0518
  4.0959   4.1276   4.1394   4.1573   4.1676   4.1844   4.2489   4.2604
  4.2902   4.3106   4.3138   4.3229   4.3305   4.3323   4.3420   4.3527
  4.3679   4.3719   4.3809   4.3919   4.4057   4.4226   4.4520   4.4726
  4.5052   4.5158   4.5476   4.6095   4.6188   4.6239   4.6493   4.6851
  4.7445   4.7551   4.7941   4.8257   4.8779   4.8824   4.8878   4.9041
  4.9559   4.9757   5.0214   5.0401   5.0466   5.0703   5.0940   5.1002
  5.1263   5.1300   5.1454   5.1658   5.1812   5.1964   5.2091   5.2766
  5.2981   5.3125   5.3235   5.3825   5.4089   5.4121   5.4443   5.4516
  5.4619   5.4966   5.5183   5.5398   5.5575   5.5931   5.6003   5.6563
  5.6772   5.7137   5.7302   5.7791   5.8046   5.8279   5.9112   5.9524
  6.1702   6.1744   6.2045   6.4130   6.4697   6.4830   6.5460   6.6485
  6.8808   7.0186   7.3018   7.4434  22.6874  22.6998  22.7528  22.9788
 23.0078  23.0378  23.2049  23.5157  23.6720  32.4808  32.5371  32.8504
 44.4532
 --------------------------------------------------------------
 
          Ground-State Mulliken Net Atomic Charges

     Atom                 Charge (a.u.)
  ----------------------------------------
      1 C                    -0.825647
      2 C                     0.370560
      3 N                    -0.110270
      4 N                    -0.257837
      5 N                    -0.329143
      6 H                     0.289318
      7 H                     0.230566
      8 H                     0.247477
      9 H                     0.253677
     10 H                     0.248301
     11 H                     0.305540
     12 H                     0.286055
     13 H                     0.291838
     14 C                    -1.144444
     15 C                    -0.355865
     16 C                    -0.475615
     17 C                     0.588957
     18 C                     0.635511
     19 C                    -0.820747
     20 C                    -0.566774
     21 O                    -0.545562
     22 H                     0.375558
     23 H                     0.294918
     24 H                     0.349848
     25 H                     0.408073
     26 H                     0.338863
     27 H                     0.274615
     28 H                     0.403733
     29 H                     0.238496
  ----------------------------------------
  Sum of atomic charges =     1.000000

 -----------------------------------------------------------------
                    Cartesian Multipole Moments
 -----------------------------------------------------------------
    Charge (ESU x 10^10)
                 4.8032
    Dipole Moment (Debye)
         X       0.8235      Y      -5.2633      Z     -13.7198
       Tot      14.7178
    Quadrupole Moments (Debye-Ang)
        XX     -63.0595     XY      -6.1451     YY     -60.0542
        XZ       1.6033     YZ       0.3446     ZZ     -48.8138
    Octopole Moments (Debye-Ang^2)
       XXX     -13.9573    XXY     -12.0362    XYY      -4.6091
       YYY     -51.2596    XXZ     -49.2505    XYZ      15.3319
       YYZ     -49.3851    XZZ      30.2719    YZZ     -19.9639
       ZZZ     -88.2170
    Hexadecapole Moments (Debye-Ang^3)
      XXXX    -886.0179   XXXY     151.8441   XXYY    -221.5264
      XYYY     139.9768   YYYY    -546.7097   XXXZ      70.8897
      XXYZ     -63.4817   XYYZ       8.4537   YYYZ    -157.7652
      XXZZ    -522.7567   XYZZ      41.5389   YYZZ    -507.4612
      XZZZ       2.0140   YZZZ    -270.7778   ZZZZ   -2129.5510
 -----------------------------------------------------------------
Archival summary:
1\1\nid00569\SP\ProcedureUnspecified\BasisUnspecified\13916(1+,1)\meili\SunSep2623:20:152021SunSep2623:20:152021\0\\#,ProcedureUnspecified,BasisUnspecified,\\1,1\N\H,1,1.01055\C,1,1.32772,2,117.833\N,3,1.31809,1,120.171,2,-0.834126,0\H,4,1.00702,3,119.736,1,2.00368,0\H,4,1.01199,3,121.357,1,-174.922,0\N,3,1.32035,1,120.272,2,179.408,0\H,7,1.00622,3,119.869,1,-4.41601,0\H,7,1.00757,3,120.329,1,-174.128,0\C,1,1.47143,2,117.869,3,179.27,0\H,10,1.09182,1,109.426,2,131.437,0\H,10,1.09295,1,109.247,2,-109.441,0\H,10,1.1,1,112.677,2,11.4834,0\H,11,2.61199,10,116.491,1,-21.4208,0\C,14,1.08154,11,139.139,10,-48.4259,0\C,15,1.39435,14,119.765,11,-4.27316,0\H,16,1.0764,15,120.09,14,0.534755,0\C,16,1.39565,15,119.836,14,-179.051,0\O,18,1.36202,16,119.786,15,-179.113,0\H,19,0.985895,18,109.454,16,6.31968,0\C,18,1.39672,16,120.117,15,0.287805,0\H,21,1.08018,18,119.785,16,-179.356,0\C,21,1.39699,18,119.625,16,-0.266021,0\H,23,1.08154,21,119.41,18,-178.685,0\C,15,1.3985,14,119.525,11,176.644,0\C,25,1.51057,15,120.302,14,-3.97151,0\H,26,1.0904,25,109.708,15,156.123,0\H,26,1.09163,25,107.751,15,39.6238,0\H,26,1.1,25,112.802,15,-81.3387,0\\\@

 Total job time:  77554.71s(wall), 52526.55s(cpu) 
 Sun Sep 26 23:20:20 2021

        *************************************************************
        *                                                           *
        *  Thank you very much for using Q-Chem.  Have a nice day.  *
        *                                                           *
        *************************************************************


