
Running Job 1 of 1 SSI-094HIE-104PHE-1_PCM_TZVPD.in
qchem SSI-094HIE-104PHE-1_PCM_TZVPD.in_23512.0 /tmp/qchem23512/ 0
/global/common/cori/software/qchem/5.2/exe/qcprog.exe_s SSI-094HIE-104PHE-1_PCM_TZVPD.in_23512.0 /tmp/qchem23512/
                  Welcome to Q-Chem
     A Quantum Leap Into The Future Of Chemistry


 Q-Chem 5.2, Q-Chem, Inc., Pleasanton, CA (2019)

 License issued to: National Energy Research Scientific Computing Center

 Yihan Shao,  Zhengting Gan,  E. Epifanovsky,  A. T. B. Gilbert,  M. Wormit,  
 J. Kussmann,  A. W. Lange,  A. Behn,  Jia Deng,  Xintian Feng,  D. Ghosh,  
 M. Goldey,  P. R. Horn,  L. D. Jacobson,  I. Kaliman,  T. Kus,  A. Landau,  
 Jie Liu,  E. I. Proynov,  R. M. Richard,  R. P. Steele,  E. J. Sundstrom,  
 H. L. Woodcock III,  P. M. Zimmerman,  D. Zuev,  B. Albrecht,  E. Alguire,  
 S. A. Baeppler,  D. Barton,  Z. Benda,  Y. A. Bernard,  E. J. Berquist,  
 K. B. Bravaya,  H. Burton,  D. Casanova,  Chun-Min Chang,  Yunqing Chen,  
 A. Chien,  K. D. Closser,  M. P. Coons,  S. Coriani,  S. Dasgupta,  
 A. L. Dempwolff,  M. Diedenhofen,  Hainam Do,  R. G. Edgar,  Po-Tung Fang,  
 S. Faraji,  S. Fatehi,  Qingguo Feng,  K. D. Fenk,  J. Fosso-Tande,  
 J. Gayvert,  Qinghui Ge,  A. Ghysels,  G. Gidofalvi,  J. Gomes,  
 J. Gonthier,  A. Gunina,  D. Hait,  M. W. D. Hanson-Heine,  
 P. H. P. Harbach,  A. W. Hauser,  M. F. Herbst,  J. E. Herr,  
 E. G. Hohenstein,  Z. C. Holden,  Kerwin Hui,  B. C. Huynh,  T.-C. Jagau,  
 Hyunjun Ji,  B. Kaduk,  K. Khistyaev,  Jaehoon Kim,  P. Klunzinger,  K. Koh,  
 D. Kosenkov,  L. Koulias,  T. Kowalczyk,  C. M. Krauter,  A. Kunitsa,  
 Ka Un Lao,  A. Laurent,  K. V. Lawler,  Joonho Lee,  D. Lefrancois,  
 S. Lehtola,  D. S. Levine,  Yi-Pei Li,  You-Sheng Lin,  Fenglai Liu,  
 E. Livshits,  A. Luenser,  P. Manohar,  E. Mansoor,  S. F. Manzer,  
 Shan-Ping Mao,  Yuezhi Mao,  N. Mardirossian,  A. V. Marenich,  
 T. Markovich,  L. A. Martinez-Martinez,  S. A. Maurer,  N. J. Mayhall,  
 S. C. McKenzie,  J.-M. Mewes,  P. Morgante,  A. F. Morrison,  
 J. W. Mullinax,  K. Nanda,  T. S. Nguyen-Beck,  R. Olivares-Amaya,  
 J. A. Parkhill,  Zheng Pei,  T. M. Perrine,  F. Plasser,  P. Pokhilko,  
 S. Prager,  A. Prociuk,  E. Ramos,  D. R. Rehn,  F. Rob,  M. Scheurer,  
 M. Schneider,  N. Sergueev,  S. M. Sharada,  S. Sharma,  D. W. Small,  
 T. Stauch,  T. Stein,  Yu-Chuan Su,  A. J. W. Thom,  A. Tkatchenko,  
 T. Tsuchimochi,  N. M. Tubman,  L. Vogt,  M. L. Vidal,  O. Vydrov,  
 M. A. Watson,  J. Wenzel,  M. de Wergifosse,  T. A. Wesolowski,  A. White,  
 J. Witte,  A. Yamada,  Jun Yang,  K. Yao,  S. Yeganeh,  S. R. Yost,  
 Zhi-Qiang You,  A. Zech,  Igor Ying Zhang,  Xing Zhang,  Yan Zhao,  
 Ying Zhu,  B. R. Brooks,  G. K. L. Chan,  C. J. Cramer,  M. S. Gordon,  
 W. J. Hehre,  A. Klamt,  M. W. Schmidt,  C. D. Sherrill,  D. G. Truhlar,  
 A. Aspuru-Guzik,  R. Baer,  A. T. Bell,  N. A. Besley,  Jeng-Da Chai,  
 A. E. DePrince, III,  R. A. DiStasio Jr.,  A. Dreuw,  B. D. Dunietz,  
 T. R. Furlani,  Chao-Ping Hsu,  Yousung Jung,  Jing Kong,  D. S. Lambrecht,  
 WanZhen Liang,  C. Ochsenfeld,  V. A. Rassolov,  L. V. Slipchenko,  
 J. E. Subotnik,  T. Van Voorhis,  J. M. Herbert,  A. I. Krylov,  
 P. M. W. Gill,  M. Head-Gordon

 Contributors to earlier versions of Q-Chem not listed above: 
 R. D. Adamson,  B. Austin,  J. Baker,  G. J. O. Beran,  K. Brandhorst,  
 S. T. Brown,  E. F. C. Byrd,  A. K. Chakraborty,  C.-L. Cheng,  
 Siu Hung Chien,  D. M. Chipman,  D. L. Crittenden,  H. Dachsel,  
 R. J. Doerksen,  A. D. Dutoi,  L. Fusti-Molnar,  W. A. Goddard III,  
 A. Golubeva-Zadorozhnaya,  S. R. Gwaltney,  G. Hawkins,  A. Heyden,  
 S. Hirata,  G. Kedziora,  F. J. Keil,  C. Kelley,  Jihan Kim,  R. A. King,  
 R. Z. Khaliullin,  P. P. Korambath,  W. Kurlancheek,  A. M. Lee,  M. S. Lee,  
 S. V. Levchenko,  Ching Yeh Lin,  D. Liotard,  R. C. Lochan,  I. Lotan,  
 P. E. Maslen,  N. Nair,  D. P. O'Neill,  D. Neuhauser,  E. Neuscamman,  
 C. M. Oana,  R. Olson,  B. Peters,  R. Peverati,  P. A. Pieniazek,  
 Y. M. Rhee,  J. Ritchie,  M. A. Rohrdanz,  E. Rosta,  N. J. Russ,  
 H. F. Schaefer III,  N. E. Schultz,  N. Shenvi,  A. C. Simmonett,  A. Sodt,  
 D. Stuck,  K. S. Thanthiriwatte,  V. Vanovschi,  Tao Wang,  A. Warshel,  
 C. F. Williams,  Q. Wu,  X. Xu,  W. Zhang

 Please cite Q-Chem as follows:
 Y. Shao et al., Mol. Phys. 113, 184-215 (2015)
 DOI: 10.1080/00268976.2014.952696

 Q-Chem 5.2.0 for Intel X86 EM64T Linux

 Parts of Q-Chem use Armadillo 8.300.2 (Tropical Shenanigans).
 http://arma.sourceforge.net/

 Q-Chem begins on Sun Sep 26 12:24:55 2021  

Host: cori01
0

     Scratch files written to /tmp/qchem23512//
 May1019 |scratch|qcdevops|jenkins|workspace|build_RNUM -1
Processing $rem in /global/common/cori/software/qchem/5.2/config/preferences:
	 MEM_TOTAL  96000 
NAlpha2: 102
NElect   102
Mult     1
Symmetry turned off for PCM/SM12/SMD calculation

 Q-Chem warning in module libgen/rem_setup.C, line 2803:

 Neither GIA nor STOLL is specified by user. Use STOLL as the default


Checking the input file for inconsistencies... 	...done.

--------------------------------------------------------------
User input:
--------------------------------------------------------------
$comment
SSI-094HIE-104PHE-1.pdb
$end

$molecule
0 1
--
0 1
C    0.534628644685    2.579516645943    0.326352559610
C    0.943628644685    3.360516645943   -0.917647440390
C    1.490628644685    1.488516645943    0.710352559610
C    1.513628644685    0.176516645943    0.352352559610
C    3.201628644685    0.539516645943    1.720352559610
N    2.548628644685    1.689516645943    1.572352559610
N    2.593628644685   -0.393483354057    0.992352559610
H    0.413628644685    3.257516645943    1.163352559610
H   -0.429371355315    2.124516645943    0.135352559610
H    1.170628644685    2.654516645943   -1.717647440390
H    0.806628644685   -0.317483354057   -0.302647440390
H    4.078628644685    0.383516645943    2.338352559610
H    2.877628644685   -1.365483354057    0.940352559610
H    1.820678644685    3.990212645943   -0.707247440390
H    0.096778644685    3.979092645943   -1.249617440390
--
0 1
C   -1.551371355315   -3.574483354057   -1.803647440390
C   -2.179371355315    0.208516645943    0.164352559610
C   -2.061371355315   -0.957483354057    0.915352559610
C   -2.085371355315    0.150516645943   -1.221647440390
C   -1.847371355315   -2.178483354057    0.276352559610
C   -1.881371355315   -1.070483354057   -1.853647440390
C   -1.754371355315   -2.244483354057   -1.112647440390
H   -2.372371355315    1.149516645943    0.661352559610
H   -2.139371355315   -0.915483354057    1.993352559610
H   -2.184371355315    1.053516645943   -1.809647440390
H   -1.754371355315   -3.079483354057    0.867352559610
H   -1.820371355315   -1.104483354057   -2.933647440390
H   -0.754371355315   -4.118483354057   -1.294647440390
H   -1.213371355315   -3.379483354057   -2.811647440390
H   -2.456361355315   -4.199747354057   -1.810087440390
$end

$rem
JOBTYPE			EDA
EDA2			1
method			wB97X-V
BASIS			def2-TZVPD
XC_GRID			000099000590
NL_GRID			1
UNRESTRICTED		FALSE
MAX_SCF_CYCLES		200
SYMMETRY		FALSE
SYM_IGNORE		TRUE
MEM_STATIC		2000
BASIS_LIN_DEP_THRESH 	6
THRESH 			14
SCF_CONVERGENCE 	8
SCF_PRINT_FRGM 		TRUE
SOLVENT_METHOD          PCM
$end

$PCM
THEORY                  CPCM
METHOD                  SWIG
SOLVER                  INVERSION
RADII                   UFF
HPOINTS                 302
HEAVYPOINTS             302
PRINTLEVEL              0
$END

$SOLVENT
DIELECTRIC              78.390000 ! water
$END
--------------------------------------------------------------
 ----------------------------------------------------------------
             Standard Nuclear Orientation (Angstroms)
    I     Atom           X                Y                Z
 ----------------------------------------------------------------
    1      C       0.5346286447     2.5795166459     0.3263525596
    2      C       0.9436286447     3.3605166459    -0.9176474404
    3      C       1.4906286447     1.4885166459     0.7103525596
    4      C       1.5136286447     0.1765166459     0.3523525596
    5      C       3.2016286447     0.5395166459     1.7203525596
    6      N       2.5486286447     1.6895166459     1.5723525596
    7      N       2.5936286447    -0.3934833541     0.9923525596
    8      H       0.4136286447     3.2575166459     1.1633525596
    9      H      -0.4293713553     2.1245166459     0.1353525596
   10      H       1.1706286447     2.6545166459    -1.7176474404
   11      H       0.8066286447    -0.3174833541    -0.3026474404
   12      H       4.0786286447     0.3835166459     2.3383525596
   13      H       2.8776286447    -1.3654833541     0.9403525596
   14      H       1.8206786447     3.9902126459    -0.7072474404
   15      H       0.0967786447     3.9790926459    -1.2496174404
   16      C      -1.5513713553    -3.5744833541    -1.8036474404
   17      C      -2.1793713553     0.2085166459     0.1643525596
   18      C      -2.0613713553    -0.9574833541     0.9153525596
   19      C      -2.0853713553     0.1505166459    -1.2216474404
   20      C      -1.8473713553    -2.1784833541     0.2763525596
   21      C      -1.8813713553    -1.0704833541    -1.8536474404
   22      C      -1.7543713553    -2.2444833541    -1.1126474404
   23      H      -2.3723713553     1.1495166459     0.6613525596
   24      H      -2.1393713553    -0.9154833541     1.9933525596
   25      H      -2.1843713553     1.0535166459    -1.8096474404
   26      H      -1.7543713553    -3.0794833541     0.8673525596
   27      H      -1.8203713553    -1.1044833541    -2.9336474404
   28      H      -0.7543713553    -4.1184833541    -1.2946474404
   29      H      -1.2133713553    -3.3794833541    -2.8116474404
   30      H      -2.4563613553    -4.1997473541    -1.8100874404
 ----------------------------------------------------------------
 Nuclear Repulsion Energy =         825.96253628 hartrees
 There are       51 alpha and       51 beta electrons
 Requested basis set is def2-TZVPD
 There are 262 shells and 662 basis functions

 Total QAlloc Memory Limit  96000 MB
 Mega-Array Size      1956 MB
 MEM_STATIC part      2000 MB
 Discretize the solute cavity surface with Lebedev spheres
	Using 302 Lebedev grid points for each H atom
	Using 302 Lebedev grid points for other atoms
	Atomic van der Waals radii will be scaled by 1.20
 Remove points where switching function is < 1.0e-08
 Keep 3296 surface tesserae and discard 5764 interior tesserae
 Molecular Surface Area = 319.670 Angst**2
 A cutoff of  1.0D-14 yielded  29798 shell pairs
 There are    191346 function pairs (    241422 Cartesian)
 Smallest overlap matrix eigenvalue = 4.86E-07
 Linear dependence detected in AO basis
 Tighter screening thresholds may be required for diffuse basis sets
 Use S2THRESH > 14 and THRESH = 14 in case of SCF convergence issues
 Number of orthogonalized atomic orbitals = 659
 Maximum deviation from orthogonality = 2.042E-10

 Scale SEOQF with 1.000000e-01/1.000000e-01/1.000000e-01

 Standard Electronic Orientation quadrupole field applied
 Nucleus-field energy     =     0.0000000268 hartrees

 -----------------------------------------------------------------------
  General SCF calculation program by
  Eric Jon Sundstrom, Paul Horn, Yuezhi Mao, Dmitri Zuev, Alec White,
  David Stuck, Shaama M.S., Shane Yost, Joonho Lee, David Small,
  Daniel Levine, Susi Lehtola, Hugh Burton, Evgeny Epifanovsky
 -----------------------------------------------------------------------
================================================================
                 ALMO-EDA with the EDA2 driver                  
================================================================
 The second-generation ALMO-EDA (for DFT):                      
 P. R. Horn, Y. Mao and M. Head-Gordon, PCCP, 18, 23067 (2016)  
 Decomposition of the frozen energy:                            
 P. R. Horn, Y. Mao and M. Head-Gordon, JCP, 144, 114107 (2016) 
 FERF model for polarization:                                   
 P. R. Horn and M. Head-Gordon, JCP, 143, 114111 (2015)         
Using eda2 option set 1
Option set summary: Frozen orbital wavefunction, initial wavefunction decomposition, and nDQ polarization.
--------------------------------
Printing EDA Options
--------------------------------
eda_child_super_basis      0
fragmo_guess_mode          0
child_mp                   1
child_mp_orders            232
cls_elec                   1
cls_disp                   0
scfmi_mode                 1
scfmi_occs                 0
scfmi_virts                0
frz_relax                  0
frz_relax_method           0
dc_pen_start               0
dc_pen_conv                0
dc_pen_increment           0
dc_pen_steps               0
dc_pen_thresh_factor       0
dc_pen_pre_newton_thresh   0
frz_ortho_decomp           1
frz_ortho_decomp_conv      6
frgm_method                2
scfmi_freeze_ss            0
separate_rehyb             0
plot_diff_den              0
eda_nocv                   0
eda_vct_relax              1
disp_free_x                0
disp_free_c                0
eda_bsse                   0
eda_pct_a                  0
eda_covp                   0
--------------------------------
Attempting to make child job directory: /tmp/qchem23512//Frg1/
Attempting to make child job directory: /tmp/qchem23512//Frg2/
Creating input file /tmp/qchem23512/Frg1.input
using default PutDataFrgm: nothing
calling putenv with: QCSCRATCH=/tmp/qchem23512/ 
calling putenv with: QCLOCALSCR=/tmp/qchem23512/ 
Spawning Job For Fragment 0
                  Welcome to Q-Chem
     A Quantum Leap Into The Future Of Chemistry


 Q-Chem 5.2, Q-Chem, Inc., Pleasanton, CA (2019)

 License issued to: National Energy Research Scientific Computing Center

 Yihan Shao,  Zhengting Gan,  E. Epifanovsky,  A. T. B. Gilbert,  M. Wormit,  
 J. Kussmann,  A. W. Lange,  A. Behn,  Jia Deng,  Xintian Feng,  D. Ghosh,  
 M. Goldey,  P. R. Horn,  L. D. Jacobson,  I. Kaliman,  T. Kus,  A. Landau,  
 Jie Liu,  E. I. Proynov,  R. M. Richard,  R. P. Steele,  E. J. Sundstrom,  
 H. L. Woodcock III,  P. M. Zimmerman,  D. Zuev,  B. Albrecht,  E. Alguire,  
 S. A. Baeppler,  D. Barton,  Z. Benda,  Y. A. Bernard,  E. J. Berquist,  
 K. B. Bravaya,  H. Burton,  D. Casanova,  Chun-Min Chang,  Yunqing Chen,  
 A. Chien,  K. D. Closser,  M. P. Coons,  S. Coriani,  S. Dasgupta,  
 A. L. Dempwolff,  M. Diedenhofen,  Hainam Do,  R. G. Edgar,  Po-Tung Fang,  
 S. Faraji,  S. Fatehi,  Qingguo Feng,  K. D. Fenk,  J. Fosso-Tande,  
 J. Gayvert,  Qinghui Ge,  A. Ghysels,  G. Gidofalvi,  J. Gomes,  
 J. Gonthier,  A. Gunina,  D. Hait,  M. W. D. Hanson-Heine,  
 P. H. P. Harbach,  A. W. Hauser,  M. F. Herbst,  J. E. Herr,  
 E. G. Hohenstein,  Z. C. Holden,  Kerwin Hui,  B. C. Huynh,  T.-C. Jagau,  
 Hyunjun Ji,  B. Kaduk,  K. Khistyaev,  Jaehoon Kim,  P. Klunzinger,  K. Koh,  
 D. Kosenkov,  L. Koulias,  T. Kowalczyk,  C. M. Krauter,  A. Kunitsa,  
 Ka Un Lao,  A. Laurent,  K. V. Lawler,  Joonho Lee,  D. Lefrancois,  
 S. Lehtola,  D. S. Levine,  Yi-Pei Li,  You-Sheng Lin,  Fenglai Liu,  
 E. Livshits,  A. Luenser,  P. Manohar,  E. Mansoor,  S. F. Manzer,  
 Shan-Ping Mao,  Yuezhi Mao,  N. Mardirossian,  A. V. Marenich,  
 T. Markovich,  L. A. Martinez-Martinez,  S. A. Maurer,  N. J. Mayhall,  
 S. C. McKenzie,  J.-M. Mewes,  P. Morgante,  A. F. Morrison,  
 J. W. Mullinax,  K. Nanda,  T. S. Nguyen-Beck,  R. Olivares-Amaya,  
 J. A. Parkhill,  Zheng Pei,  T. M. Perrine,  F. Plasser,  P. Pokhilko,  
 S. Prager,  A. Prociuk,  E. Ramos,  D. R. Rehn,  F. Rob,  M. Scheurer,  
 M. Schneider,  N. Sergueev,  S. M. Sharada,  S. Sharma,  D. W. Small,  
 T. Stauch,  T. Stein,  Yu-Chuan Su,  A. J. W. Thom,  A. Tkatchenko,  
 T. Tsuchimochi,  N. M. Tubman,  L. Vogt,  M. L. Vidal,  O. Vydrov,  
 M. A. Watson,  J. Wenzel,  M. de Wergifosse,  T. A. Wesolowski,  A. White,  
 J. Witte,  A. Yamada,  Jun Yang,  K. Yao,  S. Yeganeh,  S. R. Yost,  
 Zhi-Qiang You,  A. Zech,  Igor Ying Zhang,  Xing Zhang,  Yan Zhao,  
 Ying Zhu,  B. R. Brooks,  G. K. L. Chan,  C. J. Cramer,  M. S. Gordon,  
 W. J. Hehre,  A. Klamt,  M. W. Schmidt,  C. D. Sherrill,  D. G. Truhlar,  
 A. Aspuru-Guzik,  R. Baer,  A. T. Bell,  N. A. Besley,  Jeng-Da Chai,  
 A. E. DePrince, III,  R. A. DiStasio Jr.,  A. Dreuw,  B. D. Dunietz,  
 T. R. Furlani,  Chao-Ping Hsu,  Yousung Jung,  Jing Kong,  D. S. Lambrecht,  
 WanZhen Liang,  C. Ochsenfeld,  V. A. Rassolov,  L. V. Slipchenko,  
 J. E. Subotnik,  T. Van Voorhis,  J. M. Herbert,  A. I. Krylov,  
 P. M. W. Gill,  M. Head-Gordon

 Contributors to earlier versions of Q-Chem not listed above: 
 R. D. Adamson,  B. Austin,  J. Baker,  G. J. O. Beran,  K. Brandhorst,  
 S. T. Brown,  E. F. C. Byrd,  A. K. Chakraborty,  C.-L. Cheng,  
 Siu Hung Chien,  D. M. Chipman,  D. L. Crittenden,  H. Dachsel,  
 R. J. Doerksen,  A. D. Dutoi,  L. Fusti-Molnar,  W. A. Goddard III,  
 A. Golubeva-Zadorozhnaya,  S. R. Gwaltney,  G. Hawkins,  A. Heyden,  
 S. Hirata,  G. Kedziora,  F. J. Keil,  C. Kelley,  Jihan Kim,  R. A. King,  
 R. Z. Khaliullin,  P. P. Korambath,  W. Kurlancheek,  A. M. Lee,  M. S. Lee,  
 S. V. Levchenko,  Ching Yeh Lin,  D. Liotard,  R. C. Lochan,  I. Lotan,  
 P. E. Maslen,  N. Nair,  D. P. O'Neill,  D. Neuhauser,  E. Neuscamman,  
 C. M. Oana,  R. Olson,  B. Peters,  R. Peverati,  P. A. Pieniazek,  
 Y. M. Rhee,  J. Ritchie,  M. A. Rohrdanz,  E. Rosta,  N. J. Russ,  
 H. F. Schaefer III,  N. E. Schultz,  N. Shenvi,  A. C. Simmonett,  A. Sodt,  
 D. Stuck,  K. S. Thanthiriwatte,  V. Vanovschi,  Tao Wang,  A. Warshel,  
 C. F. Williams,  Q. Wu,  X. Xu,  W. Zhang

 Please cite Q-Chem as follows:
 Y. Shao et al., Mol. Phys. 113, 184-215 (2015)
 DOI: 10.1080/00268976.2014.952696

 Q-Chem 5.2.0 for Intel X86 EM64T Linux

 Parts of Q-Chem use Armadillo 8.300.2 (Tropical Shenanigans).
 http://arma.sourceforge.net/

 Q-Chem begins on Sun Sep 26 12:26:29 2021  

Host: cori01
0

     Scratch files written to /tmp/qchem23512//Frg1//
 May1019 |scratch|qcdevops|jenkins|workspace|build_RNUM -1
Processing $rem in /global/common/cori/software/qchem/5.2/config/preferences:
	 MEM_TOTAL  96000 
NAlpha2: 52
NElect   52
Mult     1
Symmetry turned off for PCM/SM12/SMD calculation

Checking the input file for inconsistencies... 	...done.

--------------------------------------------------------------
User input:
--------------------------------------------------------------
$molecule
0 1
 6	0.5346286447	2.5795166459	0.3263525596
 6	0.9436286447	3.3605166459	-0.9176474404
 6	1.4906286447	1.4885166459	0.7103525596
 6	1.5136286447	0.1765166459	0.3523525596
 6	3.2016286447	0.5395166459	1.7203525596
 7	2.5486286447	1.6895166459	1.5723525596
 7	2.5936286447	-0.3934833541	0.9923525596
 1	0.4136286447	3.2575166459	1.1633525596
 1	-0.4293713553	2.1245166459	0.1353525596
 1	1.1706286447	2.6545166459	-1.7176474404
 1	0.8066286447	-0.3174833541	-0.3026474404
 1	4.0786286447	0.3835166459	2.3383525596
 1	2.8776286447	-1.3654833541	0.9403525596
 1	1.8206786447	3.9902126459	-0.7072474404
 1	0.0967786447	3.9790926459	-1.2496174404
$end
$rem
EDA2		1
METHOD		WB97X-V
BASIS		DEF2-TZVPD
XC_GRID		000099000590
NL_GRID		1
UNRESTRICTED		FALSE
MAX_SCF_CYCLES		200
SYMMETRY		FALSE
SYM_IGNORE		TRUE
BASIS_LIN_DEP_THRESH		6
THRESH		14
SCF_CONVERGENCE		8
SCF_PRINT_FRGM		TRUE
SOLVENT_METHOD		PCM
!required keywords
JOBTYPE		SP
SYM_IGNORE		TRUE
SUBSYSTEM		TRUE
GEN_SCFMAN		TRUE
CHILD_INSTRUCTION		2
SYM_IGNORE		TRUE
SCFMI		0
RI_K 0		
PARI_K 0		
MIN_PARI_K 0		
IARI_K 0		
OCC_RI_K 0		
PURECART		1111
MEM_STATIC		2000
MEM_TOTAL		96000
GUI		0
CHILD_MP		1
CHILD_MP_ORDERS		232
FRZ_RELAX		0
FRZ_RELAX_METHOD		0
EDA_CLS_ELEC		1
EDA_CLS_DISP		0
FRZ_ORTHO_DECOMP		1
EDA2		FALSE
FRGM_METHOD		FALSE
CIS_N_ROOTS  0
LOCAL_CIS    0
CIS_RLX_DNS  1
$end
$pcm
THEORY                  CPCM
METHOD                  SWIG
SOLVER                  INVERSION
RADII                   UFF
HPOINTS                 302
HEAVYPOINTS             302
PRINTLEVEL              0
$end
$solvent
DIELECTRIC              78.390000 ! water
$end
--------------------------------------------------------------
 ----------------------------------------------------------------
             Standard Nuclear Orientation (Angstroms)
    I     Atom           X                Y                Z
 ----------------------------------------------------------------
    1      C       0.5346286447     2.5795166459     0.3263525596
    2      C       0.9436286447     3.3605166459    -0.9176474404
    3      C       1.4906286447     1.4885166459     0.7103525596
    4      C       1.5136286447     0.1765166459     0.3523525596
    5      C       3.2016286447     0.5395166459     1.7203525596
    6      N       2.5486286447     1.6895166459     1.5723525596
    7      N       2.5936286447    -0.3934833541     0.9923525596
    8      H       0.4136286447     3.2575166459     1.1633525596
    9      H      -0.4293713553     2.1245166459     0.1353525596
   10      H       1.1706286447     2.6545166459    -1.7176474404
   11      H       0.8066286447    -0.3174833541    -0.3026474404
   12      H       4.0786286447     0.3835166459     2.3383525596
   13      H       2.8776286447    -1.3654833541     0.9403525596
   14      H       1.8206786447     3.9902126459    -0.7072474404
   15      H       0.0967786447     3.9790926459    -1.2496174404
 ----------------------------------------------------------------
 Nuclear Repulsion Energy =         290.68106883 hartrees
 There are       26 alpha and       26 beta electrons
 Requested basis set is def2-TZVPD
 There are 131 shells and 331 basis functions

 Total QAlloc Memory Limit  96000 MB
 Mega-Array Size      1956 MB
 MEM_STATIC part      2000 MB
 Discretize the solute cavity surface with Lebedev spheres
	Using 302 Lebedev grid points for each H atom
	Using 302 Lebedev grid points for other atoms
	Atomic van der Waals radii will be scaled by 1.20
 Remove points where switching function is < 1.0e-08
 Keep 1805 surface tesserae and discard 2725 interior tesserae
 Molecular Surface Area = 182.002 Angst**2

                       Distance Matrix (Angstroms)
             C (  1)   C (  2)   C (  3)   C (  4)   C (  5)   N (  6)
   C (  2)  1.524722
   C (  3)  1.500558  2.540468
   C (  4)  2.594904  3.475004  1.360161
   C (  5)  3.635619  4.473885  2.201868  2.202847
   N (  6)  2.529983  3.401230  1.379423  2.201998  1.330719
   N (  7)  3.677195  4.523618  2.199558  1.378731  1.330465  2.162710
   H (  8)  1.083925  2.149900  2.120023  3.370502  3.933283  2.680323
   H (  9)  1.082960  2.126413  2.102741  2.759899  4.267155  3.335068
   H ( 10)  2.141975  1.090855  2.712405  3.247004  4.518631  3.695160
   H ( 11)  2.976950  3.731578  2.180748  1.083010  3.250077  3.252420
   H ( 12)  4.629308  5.412235  3.251023  3.250580  1.084154  2.152508
   H ( 13)  4.629219  5.433930  3.181507  2.141029  2.083843  3.136987
   H ( 14)  2.170787  1.100001  2.894306  3.970052  4.439321  3.319592
   H ( 15)  2.152721  1.099998  3.462264  4.362723  5.503771  4.383747
             N (  7)   H (  8)   H (  9)   H ( 10)   H ( 11)   H ( 12)
   H (  8)  4.255754
   H (  9)  4.026574  1.746746
   H ( 10)  4.319645  3.039214  2.504897
   H ( 11)  2.208205  3.883842  2.771805  3.311722
   H ( 12)  2.149574  4.803408  5.310965  5.483160  4.262894
   H ( 13)  1.013974  5.243391  4.874872  5.112652  2.632944  2.540828
   H ( 14)  4.764754  2.452708  3.041960  1.796540  4.443900  5.232807
   H ( 15)  5.511816  2.538403  2.373695  1.768250  4.456591  6.454210
             H ( 13)   H ( 14)
   H ( 14)  5.702211
   H ( 15)  6.410428  1.807241
 
 A cutoff of  1.0D-14 yielded   8275 shell pairs
 There are     53839 function pairs (     68559 Cartesian)
 Smallest overlap matrix eigenvalue = 1.47E-06

 Scale SEOQF with 1.000000e-01/1.000000e-01/1.000000e-01

 Standard Electronic Orientation quadrupole field applied
 Nucleus-field energy     =     0.0000000152 hartrees
 Guess from superposition of atomic densities
 Warning:  Energy on first SCF cycle will be non-variational
 SAD guess density has 51.546797 electrons

 -----------------------------------------------------------------------
  General SCF calculation program by
  Eric Jon Sundstrom, Paul Horn, Yuezhi Mao, Dmitri Zuev, Alec White,
  David Stuck, Shaama M.S., Shane Yost, Joonho Lee, David Small,
  Daniel Levine, Susi Lehtola, Hugh Burton, Evgeny Epifanovsky
 -----------------------------------------------------------------------
 Exchange:     0.1670 Hartree-Fock + 1.0000 wB97X-V + LR-HF
 Correlation:  1.0000 wB97X-V
 Using Euler-Maclaurin-Lebedev (99,590) quadrature formula
 Nonlocal Correlation:  VV10 with C = 0.0100 and b = 6.00 and scale = 1.00000
 Grid used for NLC:  SG-1 standard quadrature
Energy prior to optimization (guess energy) = -304.449820953641
Begin Timing: Total SCF Calculation
begin iterations for algorithm: DIIS         
the SCF tolerance is set to 1.00e-08
    1    -304.4498209536      6.07e-03     00000 
    2    -304.4016889730      6.24e-03     00000 
    3    -304.8746802565      6.44e-04     00000 
    4    -304.8787788771      3.63e-04     00000 
    5    -304.8803590053      7.35e-05     00000 
    6    -304.8804501013      2.75e-05     00000 
    7    -304.8804652153      8.32e-06     00000 
    8    -304.8804668841      2.77e-06     00000 
    9    -304.8804670996      1.20e-06     00000 
   10    -304.8804671485      3.42e-07     00000 
   11    -304.8804671544      8.48e-08     00000 
   12    -304.8804671547      4.37e-08     00000 
   13    -304.8804671547      9.67e-09     00000 Convergence criterion met
Timing for Total SCF: 1511.00s (wall), 2996.01s (cpu)

************** Final PCM Free Energy Summary **************
 G_electrostatic  =      -0.01067708 hartree =      -6.69996757 kcal/mol
 G_cavitation     =       0.00000000 hartree =       0.00000000 kcal/mol
 G_dispersion     =       0.00000000 hartree =       0.00000000 kcal/mol
 G_repulsion      =       0.00000000 hartree =       0.00000000 kcal/mol
 --------------------------------------------------
 Non-electrostatic Free Energy =       0.00000000 hartree =       0.00000000 kcal/mol
 Total                         =      -0.01067708 hartree =      -6.69996757 kcal/mol
 --------------------------------------------------
 SCF Energy (H0 + V/2)                       =    -304.88046715 
 Solute Internal Energy (H0)                 =    -304.86979008 
 Total Free Energy (H0 + V/2 + non-elec)     =    -304.88046715 hartree
                                             = -191315.38066249 kcal/mol
***********************************************************

E_pcm = -0.0106770780
Multipole orders to be included
        2
        3
computing dipole RHS
computing quadrupole RHS
total number of RHS in solve_reponses: 8
RHS batch sizes
        8
Beginning Block Conjugate Gradient Iterations. Batch Number: 0
computing hessian-vector products by finite difference
              1      5.96e-01     00000 Conjugate Gradient Iteration
computing hessian-vector products by finite difference
              2      1.94e-01     00000 Conjugate Gradient Iteration
computing hessian-vector products by finite difference
              3      4.65e-02     00000 Conjugate Gradient Iteration
computing hessian-vector products by finite difference
              4      1.24e-02     00000 Conjugate Gradient Iteration
computing hessian-vector products by finite difference
              5      2.52e-03     00000 Conjugate Gradient Iteration
computing hessian-vector products by finite difference
              6      5.18e-04     00000 Conjugate Gradient Iteration
computing hessian-vector products by finite difference
              7      1.08e-04     00000 Conjugate Gradient Iteration
computing hessian-vector products by finite difference
              8      1.88e-05     00000 Conjugate Gradient Iteration
computing hessian-vector products by finite difference
              9      3.41e-06     00000 Conjugate Gradient Iteration
computing hessian-vector products by finite difference
             10      5.56e-07     00000 Conjugate Gradient Iteration
computing hessian-vector products by finite difference
             11      8.91e-08     00000 Conjugate Gradient Iteration
computing hessian-vector products by finite difference
             12      1.35e-08     00000 Conjugate Gradient Iteration
computing hessian-vector products by finite difference
             13      2.94e-09     00000 CG Converged
batch 0 complete
Done Calculating Responses
TESTING ORTHOGONALIZATION OF MULTIPOLE BASIS
Multipole virts passed orthogonality test
Virts Per Order
           78
          130
 
 --------------------------------------------------------------
 
                    Orbital Energies (a.u.)
 --------------------------------------------------------------
 
 Alpha MOs
 -- Occupied --
-14.4679 -14.3881 -10.3232 -10.2906 -10.2843 -10.2661 -10.2570  -1.1562
 -0.9985  -0.9179  -0.8628  -0.7630  -0.7291  -0.6861  -0.6652  -0.5745
 -0.5646  -0.5470  -0.5387  -0.5222  -0.4826  -0.4546  -0.4464  -0.3791
 -0.3747  -0.3249
 -- Virtual --
  0.0637   0.0802   0.0895   0.0912   0.1030   0.1127   0.1227   0.1319
  0.1421   0.1578   0.1615   0.1683   0.1775   0.1860   0.1962   0.2110
  0.2136   0.2192   0.2319   0.2395   0.2450   0.2599   0.2639   0.2743
  0.2818   0.2883   0.2895   0.2967   0.3018   0.3077   0.3109   0.3155
  0.3289   0.3373   0.3409   0.3465   0.3478   0.3532   0.3598   0.3633
  0.3698   0.3723   0.3842   0.3952   0.4007   0.4042   0.4094   0.4128
  0.4182   0.4271   0.4383   0.4522   0.4569   0.4606   0.4704   0.4719
  0.4845   0.4870   0.4911   0.4968   0.5046   0.5071   0.5230   0.5251
  0.5311   0.5407   0.5557   0.5598   0.5744   0.5780   0.5923   0.5968
  0.5977   0.6079   0.6175   0.6231   0.6266   0.6353   0.6477   0.6610
  0.6753   0.6789   0.6919   0.7047   0.7111   0.7201   0.7311   0.7447
  0.7549   0.7700   0.7756   0.7784   0.7863   0.7929   0.7966   0.8014
  0.8075   0.8182   0.8196   0.8295   0.8355   0.8400   0.8444   0.8691
  0.8846   0.8938   0.9172   0.9201   0.9393   0.9639   0.9780   0.9967
  1.0082   1.0220   1.0307   1.0470   1.0580   1.0943   1.1045   1.1167
  1.1223   1.1497   1.1571   1.1787   1.2013   1.2275   1.2447   1.2485
  1.2653   1.2814   1.3342   1.3501   1.3709   1.3806   1.4220   1.4345
  1.4483   1.4664   1.4946   1.5230   1.5513   1.5860   1.6177   1.6685
  1.6793   1.7049   1.7339   1.7629   1.8165   1.8514   1.8714   1.8772
  1.8790   1.8891   1.9084   1.9202   1.9435   1.9483   1.9670   1.9804
  1.9894   1.9961   2.0060   2.0243   2.0303   2.0354   2.0471   2.1044
  2.1157   2.1637   2.1896   2.2188   2.2536   2.2783   2.2939   2.3101
  2.3490   2.3859   2.3972   2.4337   2.4644   2.4927   2.5114   2.5229
  2.5493   2.5808   2.5989   2.6090   2.6233   2.6316   2.6752   2.6888
  2.7158   2.7413   2.7558   2.7787   2.7962   2.8131   2.8331   2.8458
  2.9022   2.9098   2.9344   2.9692   2.9921   3.0052   3.0302   3.0501
  3.0640   3.0693   3.0842   3.1211   3.1342   3.1823   3.2026   3.2207
  3.2409   3.2625   3.2795   3.2969   3.3106   3.3294   3.3419   3.3439
  3.3831   3.3931   3.3974   3.4280   3.4548   3.4654   3.4776   3.5008
  3.5239   3.5650   3.5751   3.5764   3.6095   3.6325   3.6462   3.6693
  3.6813   3.6919   3.7098   3.7395   3.7771   3.8211   3.8454   3.8681
  3.9196   3.9571   3.9877   4.0072   4.0515   4.0897   4.1204   4.1449
  4.1829   4.2341   4.3115   4.3397   4.4347   4.4629   4.4644   4.5367
  4.5830   4.6334   4.6645   4.6921   4.7852   4.8230   4.8438   4.8512
  4.8863   4.9476   4.9745   5.0159   5.0421   5.0670   5.0792   5.1255
  5.1586   5.2170   5.2416   5.3087   5.3826   5.4484   5.4959   5.5355
  5.5879   5.6106   5.6798   5.7054   5.7691   5.8061   5.8893   6.0682
  6.2312   6.2905  22.6357  22.7745  22.9036  23.1189  23.4102  32.6571
 32.8015
 --------------------------------------------------------------
 
          Ground-State Mulliken Net Atomic Charges

     Atom                 Charge (a.u.)
  ----------------------------------------
      1 C                    -0.261756
      2 C                    -0.797016
      3 C                     0.430712
      4 C                    -0.471508
      5 C                    -0.266644
      6 N                    -0.497185
      7 N                     0.103386
      8 H                     0.188394
      9 H                     0.199518
     10 H                     0.237918
     11 H                     0.261691
     12 H                     0.284413
     13 H                     0.164638
     14 H                     0.217611
     15 H                     0.205827
  ----------------------------------------
  Sum of atomic charges =     0.000000

 -----------------------------------------------------------------
                    Cartesian Multipole Moments
 -----------------------------------------------------------------
    Charge (ESU x 10^10)
                 0.0000
    Dipole Moment (Debye)
         X      -0.1306      Y      -4.3083      Z      -1.2667
       Tot       4.4925
    Quadrupole Moments (Debye-Ang)
        XX     -39.6634     XY     -14.2440     YY     -46.2063
        XZ       0.4433     YZ      -6.9384     ZZ     -46.4068
    Octopole Moments (Debye-Ang^2)
       XXX    -204.6524    XXY    -101.8861    XYY     -91.9413
       YYY    -202.4588    XXZ     -14.2512    XYZ     -19.6014
       YYZ     -36.6302    XZZ     -77.5021    YZZ     -76.6489
       ZZZ     -84.1018
    Hexadecapole Moments (Debye-Ang^3)
      XXXX    -985.1557   XXXY    -333.9310   XXYY    -403.3557
      XYYY    -289.3055   YYYY   -1070.6767   XXXZ    -153.6938
      XXYZ     -61.7633   XYYZ    -107.8138   YYYZ     -47.0948
      XXZZ    -221.6351   XYZZ    -111.8293   YYZZ    -269.4185
      XZZZ    -228.0200   YZZZ     -42.0885   ZZZZ    -382.4539
 -----------------------------------------------------------------
Archival summary:
1\1\nid00556\SP\ProcedureUnspecified\BasisUnspecified\258\meili\SunSep2620:29:462021SunSep2620:29:462021\0\\#,ProcedureUnspecified,BasisUnspecified,\\0,1\N\C,1,1.33072\H,2,1.08415,1,125.782\N,2,1.33046,1,108.719,3,179.479,0\H,4,1.01397,2,124.91,1,-178.784,0\C,4,1.37873,2,108.787,1,0.0989162,0\H,6,1.08301,4,127.123,2,-179.056,0\C,6,1.36016,4,106.849,2,0.327958,0\C,8,1.50056,6,130.146,4,-179.42,0\H,9,1.08296,8,107.865,6,29.3072,0\H,9,1.08393,8,109.165,6,145.75,0\C,9,1.52472,8,114.224,6,-90.8437,0\H,12,1.09086,9,108.824,8,50.6031,0\H,12,1.1,9,109.133,8,167.791,0\H,12,1.1,9,110.551,8,-70.521,0\\\@

 Total job time:  28999.92s(wall), 57572.39s(cpu) 
 Sun Sep 26 20:29:49 2021

        *************************************************************
        *                                                           *
        *  Thank you very much for using Q-Chem.  Have a nice day.  *
        *                                                           *
        *************************************************************


Done Job For Fragment 0
calling putenv with: QCSCRATCH=/global/cscratch1/sd/meili 
calling putenv with: QCLOCALSCR=/tmp 
calling putenv with: QCTHREADS=32 
Creating input file /tmp/qchem23512/Frg2.input
using default PutDataFrgm: nothing
calling putenv with: QCSCRATCH=/tmp/qchem23512/ 
calling putenv with: QCLOCALSCR=/tmp/qchem23512/ 
Spawning Job For Fragment 1
                  Welcome to Q-Chem
     A Quantum Leap Into The Future Of Chemistry


 Q-Chem 5.2, Q-Chem, Inc., Pleasanton, CA (2019)

 License issued to: National Energy Research Scientific Computing Center

 Yihan Shao,  Zhengting Gan,  E. Epifanovsky,  A. T. B. Gilbert,  M. Wormit,  
 J. Kussmann,  A. W. Lange,  A. Behn,  Jia Deng,  Xintian Feng,  D. Ghosh,  
 M. Goldey,  P. R. Horn,  L. D. Jacobson,  I. Kaliman,  T. Kus,  A. Landau,  
 Jie Liu,  E. I. Proynov,  R. M. Richard,  R. P. Steele,  E. J. Sundstrom,  
 H. L. Woodcock III,  P. M. Zimmerman,  D. Zuev,  B. Albrecht,  E. Alguire,  
 S. A. Baeppler,  D. Barton,  Z. Benda,  Y. A. Bernard,  E. J. Berquist,  
 K. B. Bravaya,  H. Burton,  D. Casanova,  Chun-Min Chang,  Yunqing Chen,  
 A. Chien,  K. D. Closser,  M. P. Coons,  S. Coriani,  S. Dasgupta,  
 A. L. Dempwolff,  M. Diedenhofen,  Hainam Do,  R. G. Edgar,  Po-Tung Fang,  
 S. Faraji,  S. Fatehi,  Qingguo Feng,  K. D. Fenk,  J. Fosso-Tande,  
 J. Gayvert,  Qinghui Ge,  A. Ghysels,  G. Gidofalvi,  J. Gomes,  
 J. Gonthier,  A. Gunina,  D. Hait,  M. W. D. Hanson-Heine,  
 P. H. P. Harbach,  A. W. Hauser,  M. F. Herbst,  J. E. Herr,  
 E. G. Hohenstein,  Z. C. Holden,  Kerwin Hui,  B. C. Huynh,  T.-C. Jagau,  
 Hyunjun Ji,  B. Kaduk,  K. Khistyaev,  Jaehoon Kim,  P. Klunzinger,  K. Koh,  
 D. Kosenkov,  L. Koulias,  T. Kowalczyk,  C. M. Krauter,  A. Kunitsa,  
 Ka Un Lao,  A. Laurent,  K. V. Lawler,  Joonho Lee,  D. Lefrancois,  
 S. Lehtola,  D. S. Levine,  Yi-Pei Li,  You-Sheng Lin,  Fenglai Liu,  
 E. Livshits,  A. Luenser,  P. Manohar,  E. Mansoor,  S. F. Manzer,  
 Shan-Ping Mao,  Yuezhi Mao,  N. Mardirossian,  A. V. Marenich,  
 T. Markovich,  L. A. Martinez-Martinez,  S. A. Maurer,  N. J. Mayhall,  
 S. C. McKenzie,  J.-M. Mewes,  P. Morgante,  A. F. Morrison,  
 J. W. Mullinax,  K. Nanda,  T. S. Nguyen-Beck,  R. Olivares-Amaya,  
 J. A. Parkhill,  Zheng Pei,  T. M. Perrine,  F. Plasser,  P. Pokhilko,  
 S. Prager,  A. Prociuk,  E. Ramos,  D. R. Rehn,  F. Rob,  M. Scheurer,  
 M. Schneider,  N. Sergueev,  S. M. Sharada,  S. Sharma,  D. W. Small,  
 T. Stauch,  T. Stein,  Yu-Chuan Su,  A. J. W. Thom,  A. Tkatchenko,  
 T. Tsuchimochi,  N. M. Tubman,  L. Vogt,  M. L. Vidal,  O. Vydrov,  
 M. A. Watson,  J. Wenzel,  M. de Wergifosse,  T. A. Wesolowski,  A. White,  
 J. Witte,  A. Yamada,  Jun Yang,  K. Yao,  S. Yeganeh,  S. R. Yost,  
 Zhi-Qiang You,  A. Zech,  Igor Ying Zhang,  Xing Zhang,  Yan Zhao,  
 Ying Zhu,  B. R. Brooks,  G. K. L. Chan,  C. J. Cramer,  M. S. Gordon,  
 W. J. Hehre,  A. Klamt,  M. W. Schmidt,  C. D. Sherrill,  D. G. Truhlar,  
 A. Aspuru-Guzik,  R. Baer,  A. T. Bell,  N. A. Besley,  Jeng-Da Chai,  
 A. E. DePrince, III,  R. A. DiStasio Jr.,  A. Dreuw,  B. D. Dunietz,  
 T. R. Furlani,  Chao-Ping Hsu,  Yousung Jung,  Jing Kong,  D. S. Lambrecht,  
 WanZhen Liang,  C. Ochsenfeld,  V. A. Rassolov,  L. V. Slipchenko,  
 J. E. Subotnik,  T. Van Voorhis,  J. M. Herbert,  A. I. Krylov,  
 P. M. W. Gill,  M. Head-Gordon

 Contributors to earlier versions of Q-Chem not listed above: 
 R. D. Adamson,  B. Austin,  J. Baker,  G. J. O. Beran,  K. Brandhorst,  
 S. T. Brown,  E. F. C. Byrd,  A. K. Chakraborty,  C.-L. Cheng,  
 Siu Hung Chien,  D. M. Chipman,  D. L. Crittenden,  H. Dachsel,  
 R. J. Doerksen,  A. D. Dutoi,  L. Fusti-Molnar,  W. A. Goddard III,  
 A. Golubeva-Zadorozhnaya,  S. R. Gwaltney,  G. Hawkins,  A. Heyden,  
 S. Hirata,  G. Kedziora,  F. J. Keil,  C. Kelley,  Jihan Kim,  R. A. King,  
 R. Z. Khaliullin,  P. P. Korambath,  W. Kurlancheek,  A. M. Lee,  M. S. Lee,  
 S. V. Levchenko,  Ching Yeh Lin,  D. Liotard,  R. C. Lochan,  I. Lotan,  
 P. E. Maslen,  N. Nair,  D. P. O'Neill,  D. Neuhauser,  E. Neuscamman,  
 C. M. Oana,  R. Olson,  B. Peters,  R. Peverati,  P. A. Pieniazek,  
 Y. M. Rhee,  J. Ritchie,  M. A. Rohrdanz,  E. Rosta,  N. J. Russ,  
 H. F. Schaefer III,  N. E. Schultz,  N. Shenvi,  A. C. Simmonett,  A. Sodt,  
 D. Stuck,  K. S. Thanthiriwatte,  V. Vanovschi,  Tao Wang,  A. Warshel,  
 C. F. Williams,  Q. Wu,  X. Xu,  W. Zhang

 Please cite Q-Chem as follows:
 Y. Shao et al., Mol. Phys. 113, 184-215 (2015)
 DOI: 10.1080/00268976.2014.952696

 Q-Chem 5.2.0 for Intel X86 EM64T Linux

 Parts of Q-Chem use Armadillo 8.300.2 (Tropical Shenanigans).
 http://arma.sourceforge.net/

 Q-Chem begins on Sun Sep 26 20:29:53 2021  

Host: cori01
0

     Scratch files written to /tmp/qchem23512//Frg2//
 May1019 |scratch|qcdevops|jenkins|workspace|build_RNUM -1
Processing $rem in /global/common/cori/software/qchem/5.2/config/preferences:
	 MEM_TOTAL  96000 
NAlpha2: 50
NElect   50
Mult     1
Symmetry turned off for PCM/SM12/SMD calculation

Checking the input file for inconsistencies... 	...done.

--------------------------------------------------------------
User input:
--------------------------------------------------------------
$molecule
0 1
 6	-1.5513713553	-3.5744833541	-1.8036474404
 6	-2.1793713553	0.2085166459	0.1643525596
 6	-2.0613713553	-0.9574833541	0.9153525596
 6	-2.0853713553	0.1505166459	-1.2216474404
 6	-1.8473713553	-2.1784833541	0.2763525596
 6	-1.8813713553	-1.0704833541	-1.8536474404
 6	-1.7543713553	-2.2444833541	-1.1126474404
 1	-2.3723713553	1.1495166459	0.6613525596
 1	-2.1393713553	-0.9154833541	1.9933525596
 1	-2.1843713553	1.0535166459	-1.8096474404
 1	-1.7543713553	-3.0794833541	0.8673525596
 1	-1.8203713553	-1.1044833541	-2.9336474404
 1	-0.7543713553	-4.1184833541	-1.2946474404
 1	-1.2133713553	-3.3794833541	-2.8116474404
 1	-2.4563613553	-4.1997473541	-1.8100874404
$end
$rem
EDA2		1
METHOD		WB97X-V
BASIS		DEF2-TZVPD
XC_GRID		000099000590
NL_GRID		1
UNRESTRICTED		FALSE
MAX_SCF_CYCLES		200
SYMMETRY		FALSE
SYM_IGNORE		TRUE
BASIS_LIN_DEP_THRESH		6
THRESH		14
SCF_CONVERGENCE		8
SCF_PRINT_FRGM		TRUE
SOLVENT_METHOD		PCM
!required keywords
JOBTYPE		SP
SYM_IGNORE		TRUE
SUBSYSTEM		TRUE
GEN_SCFMAN		TRUE
CHILD_INSTRUCTION		2
SYM_IGNORE		TRUE
SCFMI		0
RI_K 0		
PARI_K 0		
MIN_PARI_K 0		
IARI_K 0		
OCC_RI_K 0		
PURECART		1111
MEM_STATIC		2000
MEM_TOTAL		96000
GUI		0
CHILD_MP		1
CHILD_MP_ORDERS		232
FRZ_RELAX		0
FRZ_RELAX_METHOD		0
EDA_CLS_ELEC		1
EDA_CLS_DISP		0
FRZ_ORTHO_DECOMP		1
EDA2		FALSE
FRGM_METHOD		FALSE
CIS_N_ROOTS  0
LOCAL_CIS    0
CIS_RLX_DNS  1
$end
$pcm
THEORY                  CPCM
METHOD                  SWIG
SOLVER                  INVERSION
RADII                   UFF
HPOINTS                 302
HEAVYPOINTS             302
PRINTLEVEL              0
$end
$solvent
DIELECTRIC              78.390000 ! water
$end
--------------------------------------------------------------
 ----------------------------------------------------------------
             Standard Nuclear Orientation (Angstroms)
    I     Atom           X                Y                Z
 ----------------------------------------------------------------
    1      C      -1.5513713553    -3.5744833541    -1.8036474404
    2      C      -2.1793713553     0.2085166459     0.1643525596
    3      C      -2.0613713553    -0.9574833541     0.9153525596
    4      C      -2.0853713553     0.1505166459    -1.2216474404
    5      C      -1.8473713553    -2.1784833541     0.2763525596
    6      C      -1.8813713553    -1.0704833541    -1.8536474404
    7      C      -1.7543713553    -2.2444833541    -1.1126474404
    8      H      -2.3723713553     1.1495166459     0.6613525596
    9      H      -2.1393713553    -0.9154833541     1.9933525596
   10      H      -2.1843713553     1.0535166459    -1.8096474404
   11      H      -1.7543713553    -3.0794833541     0.8673525596
   12      H      -1.8203713553    -1.1044833541    -2.9336474404
   13      H      -0.7543713553    -4.1184833541    -1.2946474404
   14      H      -1.2133713553    -3.3794833541    -2.8116474404
   15      H      -2.4563613553    -4.1997473541    -1.8100874404
 ----------------------------------------------------------------
 Nuclear Repulsion Energy =         269.72690062 hartrees
 There are       25 alpha and       25 beta electrons
 Requested basis set is def2-TZVPD
 There are 131 shells and 331 basis functions

 Total QAlloc Memory Limit  96000 MB
 Mega-Array Size      1956 MB
 MEM_STATIC part      2000 MB
 Discretize the solute cavity surface with Lebedev spheres
	Using 302 Lebedev grid points for each H atom
	Using 302 Lebedev grid points for other atoms
	Atomic van der Waals radii will be scaled by 1.20
 Remove points where switching function is < 1.0e-08
 Keep 1803 surface tesserae and discard 2727 interior tesserae
 Molecular Surface Area = 178.220 Angst**2

                       Distance Matrix (Angstroms)
             C (  1)   C (  2)   C (  3)   C (  4)   C (  5)   C (  6)
   C (  2)  4.310278
   C (  3)  3.808116  1.391934
   C (  4)  3.807822  1.390394  2.407282
   C (  5)  2.522465  2.412579  1.394618  2.779368
   C (  6)  2.526146  2.407690  2.777144  1.389921  2.401191
   C (  7)  1.512478  2.797957  2.421446  2.420220  1.393674  1.394090
   H (  8)  5.391330  1.081545  2.144921  2.150828  3.391082  3.390384
   H (  9)  4.672605  2.147142  1.081634  3.387550  2.151400  3.858756
   H ( 10)  4.671093  2.147260  3.388934  1.082106  3.861449  2.145955
   H ( 11)  2.724055  3.389067  2.144630  3.860878  1.081541  3.384679
   H ( 12)  2.729498  3.383852  3.859338  2.139204  3.385012  1.082256
   H ( 13)  1.090975  4.783538  4.072379  4.472276  2.725122  3.297410
   H ( 14)  1.080895  4.760617  4.525010  3.968549  3.373441  2.587560
   H ( 15)  1.100002  4.838174  4.253977  4.405530  2.968099  3.181950
             C (  7)   H (  8)   H (  9)   H ( 10)   H ( 11)   H ( 12)
   H (  8)  3.879206
   H (  9)  3.400250  2.468347
   H ( 10)  3.398163  2.480000  4.282732
   H ( 11)  2.148866  4.278878  2.469615  4.942967
   H ( 12)  2.149418  4.278930  4.940932  2.460251  4.283991
   H ( 13)  2.131901  5.847708  4.794620  5.390706  2.598801  3.592614
   H ( 14)  2.113648  5.823818  5.478759  4.647401  3.730646  2.357744
   H ( 15)  2.191408  5.893191  5.035179  5.260301  2.986045  3.353734
             H ( 13)   H ( 14)
   H ( 14)  1.748740
   H ( 15)  1.780183  1.794709
 
 A cutoff of  1.0D-14 yielded   8359 shell pairs
 There are     54489 function pairs (     69440 Cartesian)
 Smallest overlap matrix eigenvalue = 5.56E-07
 Linear dependence detected in AO basis
 Tighter screening thresholds may be required for diffuse basis sets
 Use S2THRESH > 14 and THRESH = 14 in case of SCF convergence issues
 Number of orthogonalized atomic orbitals = 330
 Maximum deviation from orthogonality = 1.383E-10

 Scale SEOQF with 1.000000e-01/1.000000e-01/1.000000e-01

 Standard Electronic Orientation quadrupole field applied
 Nucleus-field energy     =     0.0000000116 hartrees
 Guess from superposition of atomic densities
 Warning:  Energy on first SCF cycle will be non-variational
 SAD guess density has 49.913408 electrons

 -----------------------------------------------------------------------
  General SCF calculation program by
  Eric Jon Sundstrom, Paul Horn, Yuezhi Mao, Dmitri Zuev, Alec White,
  David Stuck, Shaama M.S., Shane Yost, Joonho Lee, David Small,
  Daniel Levine, Susi Lehtola, Hugh Burton, Evgeny Epifanovsky
 -----------------------------------------------------------------------
 Exchange:     0.1670 Hartree-Fock + 1.0000 wB97X-V + LR-HF
 Correlation:  1.0000 wB97X-V
 Using Euler-Maclaurin-Lebedev (99,590) quadrature formula
 Nonlocal Correlation:  VV10 with C = 0.0100 and b = 6.00 and scale = 1.00000
 Grid used for NLC:  SG-1 standard quadrature
Energy prior to optimization (guess energy) = -271.520241376916
Begin Timing: Total SCF Calculation
begin iterations for algorithm: DIIS         
the SCF tolerance is set to 1.00e-08
    1    -271.5202413769      1.96e-03     00000 
    2    -271.5593409386      1.26e-03     00000 
    3    -271.5813065864      1.38e-04     00000 
    4    -271.5817225433      4.79e-05     00000 
    5    -271.5817567194      1.60e-05     00000 
    6    -271.5817612293      3.82e-06     00000 
    7    -271.5817615321      1.76e-06     00000 
    8    -271.5817615844      3.63e-07     00000 
    9    -271.5817615878      6.70e-08     00000 
   10    -271.5817615880      3.44e-08     00000 
   11    -271.5817615881      1.22e-08     00000 
   12    -271.5817615881      4.85e-09     00000 Convergence criterion met
Timing for Total SCF: 1456.00s (wall), 2891.56s (cpu)

************** Final PCM Free Energy Summary **************
 G_electrostatic  =      -0.00249284 hartree =      -1.56427932 kcal/mol
 G_cavitation     =       0.00000000 hartree =       0.00000000 kcal/mol
 G_dispersion     =       0.00000000 hartree =       0.00000000 kcal/mol
 G_repulsion      =       0.00000000 hartree =       0.00000000 kcal/mol
 --------------------------------------------------
 Non-electrostatic Free Energy =       0.00000000 hartree =       0.00000000 kcal/mol
 Total                         =      -0.00249284 hartree =      -1.56427932 kcal/mol
 --------------------------------------------------
 SCF Energy (H0 + V/2)                       =    -271.58176159 
 Solute Internal Energy (H0)                 =    -271.57926875 
 Total Free Energy (H0 + V/2 + non-elec)     =    -271.58176159 hartree
                                             = -170420.12754738 kcal/mol
***********************************************************

E_pcm = -0.0024928378
Multipole orders to be included
        2
        3
computing dipole RHS
computing quadrupole RHS
total number of RHS in solve_reponses: 8
RHS batch sizes
        8
Beginning Block Conjugate Gradient Iterations. Batch Number: 0
computing hessian-vector products by finite difference
              1      5.85e-01     00000 Conjugate Gradient Iteration
computing hessian-vector products by finite difference
              2      1.94e-01     00000 Conjugate Gradient Iteration
computing hessian-vector products by finite difference
              3      4.48e-02     00000 Conjugate Gradient Iteration
computing hessian-vector products by finite difference
              4      1.04e-02     00000 Conjugate Gradient Iteration
computing hessian-vector products by finite difference
              5      2.35e-03     00000 Conjugate Gradient Iteration
computing hessian-vector products by finite difference
              6      5.87e-04     00000 Conjugate Gradient Iteration
computing hessian-vector products by finite difference
              7      1.75e-04     00000 Conjugate Gradient Iteration
computing hessian-vector products by finite difference
              8      2.72e-05     00000 Conjugate Gradient Iteration
computing hessian-vector products by finite difference
              9      3.33e-06     00000 Conjugate Gradient Iteration
computing hessian-vector products by finite difference
             10      6.03e-07     00000 Conjugate Gradient Iteration
computing hessian-vector products by finite difference
             11      1.05e-07     00000 Conjugate Gradient Iteration
computing hessian-vector products by finite difference
             12      1.46e-08     00000 Conjugate Gradient Iteration
computing hessian-vector products by finite difference
             13      3.59e-09     00000 CG Converged
batch 0 complete
Done Calculating Responses
TESTING ORTHOGONALIZATION OF MULTIPOLE BASIS
Multipole virts passed orthogonality test
Virts Per Order
           75
          125
 
 --------------------------------------------------------------
 
                    Orbital Energies (a.u.)
 --------------------------------------------------------------
 
 Alpha MOs
 -- Occupied --
-10.2826 -10.2738 -10.2732 -10.2706 -10.2701 -10.2700 -10.2624  -0.9975
 -0.9070  -0.8793  -0.8141  -0.7306  -0.7064  -0.6303  -0.5745  -0.5670
 -0.5359  -0.5303  -0.5138  -0.4899  -0.4741  -0.4419  -0.4407  -0.3496
 -0.3387
 -- Virtual --
  0.0627   0.0631   0.0681   0.0790   0.0845   0.1043   0.1102   0.1135
  0.1354   0.1530   0.1651   0.1696   0.1841   0.1901   0.1942   0.1995
  0.2214   0.2266   0.2332   0.2404   0.2468   0.2567   0.2595   0.2700
  0.2794   0.2817   0.2846   0.2913   0.2932   0.3004   0.3034   0.3107
  0.3225   0.3236   0.3300   0.3376   0.3512   0.3515   0.3659   0.3715
  0.3751   0.3809   0.3848   0.3878   0.3911   0.3987   0.4029   0.4051
  0.4125   0.4274   0.4301   0.4361   0.4399   0.4471   0.4511   0.4555
  0.4650   0.4693   0.4749   0.4823   0.4903   0.4953   0.5111   0.5139
  0.5174   0.5222   0.5343   0.5383   0.5418   0.5493   0.5522   0.5673
  0.5746   0.5839   0.5908   0.5942   0.5982   0.6239   0.6347   0.6424
  0.6663   0.6741   0.6815   0.6859   0.6899   0.7007   0.7197   0.7221
  0.7283   0.7313   0.7446   0.7600   0.7628   0.7652   0.7750   0.7832
  0.7912   0.7915   0.7973   0.8009   0.8079   0.8217   0.8258   0.8294
  0.8326   0.8354   0.8469   0.8565   0.8611   0.8679   0.8836   0.8943
  0.9117   0.9214   0.9335   0.9477   0.9502   1.0056   1.0280   1.0392
  1.0460   1.0606   1.0698   1.0728   1.0870   1.0948   1.1031   1.1422
  1.1629   1.1742   1.2561   1.2715   1.2936   1.3235   1.3499   1.3509
  1.3767   1.4373   1.4478   1.4578   1.4647   1.4774   1.5263   1.5344
  1.5995   1.6082   1.6195   1.6240   1.6538   1.6776   1.7342   1.7775
  1.7851   1.7966   1.8013   1.8116   1.8325   1.8593   1.8823   1.9095
  1.9163   1.9238   1.9371   1.9670   1.9853   1.9928   2.0118   2.0265
  2.0306   2.0451   2.0685   2.0888   2.1085   2.1214   2.1716   2.1814
  2.1974   2.2319   2.2426   2.2674   2.2876   2.3107   2.3867   2.3984
  2.4064   2.4135   2.4739   2.5075   2.5420   2.5563   2.5592   2.5974
  2.6108   2.6350   2.6664   2.6797   2.6981   2.7099   2.7594   2.7687
  2.7848   2.8085   2.8138   2.8452   2.8631   2.8956   2.9072   2.9178
  2.9349   2.9384   2.9682   2.9781   2.9919   3.0144   3.0181   3.0492
  3.0577   3.0831   3.0961   3.1258   3.1690   3.1891   3.1978   3.2137
  3.2273   3.2490   3.2851   3.2892   3.3416   3.3547   3.3613   3.3767
  3.4044   3.4348   3.4467   3.4473   3.4659   3.4744   3.4840   3.4951
  3.5086   3.5321   3.5401   3.5421   3.5555   3.5757   3.5760   3.6033
  3.6205   3.6304   3.6591   3.6915   3.7146   3.7495   3.7706   3.8072
  3.8456   3.8962   3.9107   3.9534   3.9563   3.9881   4.0315   4.0502
  4.1238   4.1989   4.2662   4.2725   4.2883   4.3102   4.3215   4.3391
  4.3522   4.3723   4.3864   4.3970   4.4256   4.4450   4.4829   4.5325
  4.5982   4.6086   4.7614   4.7733   4.8220   4.8710   4.9095   4.9442
  5.0225   5.0432   5.1646   5.2614   5.3657   5.3839   5.4962   5.5300
  5.6694   5.8457  22.5808  22.6701  22.8876  22.8993  23.0106  23.0730
 23.4173
 --------------------------------------------------------------
 
          Ground-State Mulliken Net Atomic Charges

     Atom                 Charge (a.u.)
  ----------------------------------------
      1 C                    -1.018162
      2 C                    -0.477424
      3 C                    -0.472507
      4 C                    -0.522702
      5 C                    -0.318136
      6 C                    -0.388348
      7 C                     0.861351
      8 H                     0.332208
      9 H                     0.311858
     10 H                     0.309685
     11 H                     0.338588
     12 H                     0.296050
     13 H                     0.254087
     14 H                     0.276757
     15 H                     0.216694
  ----------------------------------------
  Sum of atomic charges =     0.000000

 -----------------------------------------------------------------
                    Cartesian Multipole Moments
 -----------------------------------------------------------------
    Charge (ESU x 10^10)
                 0.0000
    Dipole Moment (Debye)
         X       0.0189      Y      -0.4434      Z      -0.1923
       Tot       0.4837
    Quadrupole Moments (Debye-Ang)
        XX     -46.1689     XY      -0.3583     YY     -36.9424
        XZ      -0.1797     YZ       0.5319     ZZ     -38.0738
    Octopole Moments (Debye-Ang^2)
       XXX     263.9221    XXY      66.1826    XYY      71.4559
       YYY     166.5002    XXZ      32.1550    XYZ      -0.3598
       YYZ      26.3018    XZZ      72.7539    YZZ      56.6574
       ZZZ      81.6578
    Hexadecapole Moments (Debye-Ang^3)
      XXXX   -1081.7761   XXXY    -331.7992   XXYY    -331.2944
      XYYY    -282.0492   YYYY   -1019.8653   XXXZ    -161.1793
      XXYZ     -63.0195   XYYZ     -42.6421   YYYZ    -184.5845
      XXZZ    -240.9668   XYZZ     -97.7878   YYZZ    -251.6425
      XZZZ    -142.3957   YZZZ    -183.9212   ZZZZ    -462.8865
 -----------------------------------------------------------------
Archival summary:
1\1\nid00556\SP\ProcedureUnspecified\BasisUnspecified\78\meili\MonSep2704:18:462021MonSep2704:18:462021\0\\#,ProcedureUnspecified,BasisUnspecified,\\0,1\C\C,1,1.39367\H,2,1.08154,1,119.962\C,1,1.39409,2,118.933,3,179.811,0\H,4,1.08226,1,119.923,2,-179.47,0\C,4,1.38992,1,120.761,2,0.581167,0\H,6,1.08211,4,119.961,1,-179.865,0\C,6,1.39039,4,119.989,1,-0.695836,0\H,8,1.08154,6,120.427,4,-177.863,0\C,8,1.39193,6,119.812,4,0.347669,0\H,10,1.08163,8,119.939,6,-179.678,0\C,1,1.51248,2,120.393,3,1.23082,0\H,12,1.08089,1,108.022,2,-163.196,0\H,12,1.09097,1,108.867,2,-47.0414,0\H,12,1.1,1,113.085,2,73.8646,0\\\@

 Total job time:  28135.39s(wall), 55809.69s(cpu) 
 Mon Sep 27 04:18:48 2021

        *************************************************************
        *                                                           *
        *  Thank you very much for using Q-Chem.  Have a nice day.  *
        *                                                           *
        *************************************************************


Done Job For Fragment 1
calling putenv with: QCSCRATCH=/global/cscratch1/sd/meili 
calling putenv with: QCLOCALSCR=/tmp 
calling putenv with: QCTHREADS=32 
Doing General SCFMI
 Exchange:     0.1670 Hartree-Fock + 1.0000 wB97X-V + LR-HF
 Correlation:  1.0000 wB97X-V
 Using Euler-Maclaurin-Lebedev (99,590) quadrature formula
 Nonlocal Correlation:  VV10 with C = 0.0100 and b = 6.00 and scale = 1.00000
 Grid used for NLC:  SG-1 standard quadrature
performing fock build before subrot guess so that all methods have access
Printing subrot_rss_gen Method Specification:
Occupied Subspace Method is 0
Virtual Subspace Method is 0
Energy of the unrelaxed supersystem initial determinant -576.452187142447
performing fock build before subrot guess so that all methods have access
Printing subrot_rss_gen Method Specification:
Occupied Subspace Method is 0
Virtual Subspace Method is 0
Energy of the unrelaxed supersystem initial determinant w/ solvent -576.464485066395
write pseudocanon occs and virts to disk
write pseudocanon orbital energies to disk
Tolerance of ortho_decomp_scf: 1.00e-06
GDM subspace size: 20
Beginning the Orthogonal Decomposition of the Initial Supersystem Wavefunction
    1    -576.4283458381      2.09e-02     ortho_decomp Preconditoned Steepest Descent
    2    -576.4303735234      5.43e-04     ortho_decomp BFGS Step
    3    -576.4303804158      4.29e-05     ortho_decomp BFGS Step
    4    -576.4303804300      1.83e-06     ortho_decomp BFGS Step
    5    -576.4303804300      5.69e-08     ortho_decomp 00000 Convergence criterion met
 Hartree-Fock
 Hartree-Fock
 Hartree-Fock
Doing General SCFMI
 Exchange:     0.1670 Hartree-Fock + 1.0000 wB97X-V + LR-HF
 Correlation:  1.0000 wB97X-V
 Using Euler-Maclaurin-Lebedev (99,590) quadrature formula
 Nonlocal Correlation:  VV10 with C = 0.0100 and b = 6.00 and scale = 1.00000
 Grid used for NLC:  SG-1 standard quadrature
performing fock build at end of subrot_r(subrot) constructor so that all methods have access
<S^2> of initial wavefunction before polarization iterations 0.0000000000
Beginning iterations for the determination of the polarized wavefunction
Energy prior to optimization (guess energy) = -576.464485066395
Begin Timing: Total SCF Calculation
begin iterations for algorithm: DIIS         
the SCF tolerance is set to 1.00e-08
    1    -576.4644850664      5.38e-05     00000 
    2    -576.4647914594      2.24e-05     00000 
    3    -576.4648215902      1.23e-05     00000 
    4    -576.4648319858      3.65e-06     00000 
    5    -576.4648330136      1.80e-06     00000 
    6    -576.4648332713      9.28e-07     00000 
    7    -576.4648333173      5.31e-07     00000 
    8    -576.4648333271      3.33e-07     00000 
    9    -576.4648333314      1.47e-07     00000 
   10    -576.4648333323      8.01e-08     00000 
   11    -576.4648333327      2.84e-08     00000 
   12    -576.4648333328      1.23e-08     00000 
   13    -576.4648333328      5.47e-09     00000 Convergence criterion met
write pseudocanon occs and virts to disk
write pseudocanon orbital energies to disk
Timing for Total SCF: 11270.00s (wall), 22453.56s (cpu)
<S^2> of polarized wavefunction after polarization iterations 0.0000000000
relaxing scfmi constraint to allow all rotations in the entire AO span
Doing General SCFMI
 Exchange:     0.1670 Hartree-Fock + 1.0000 wB97X-V + LR-HF
 Correlation:  1.0000 wB97X-V
 Using Euler-Maclaurin-Lebedev (99,590) quadrature formula
 Nonlocal Correlation:  VV10 with C = 0.0100 and b = 6.00 and scale = 1.00000
 Grid used for NLC:  SG-1 standard quadrature
performing fock build at end of subrot_r(subrot) constructor so that all methods have access
<S^2> of polarized wavefunction before ct-allowed iterations 0.0000000000
Beginning iterations for the determination of the CT-Allowed wavefunction
Energy prior to optimization (guess energy) = -576.464833332801
Begin Timing: Total SCF Calculation
begin iterations for algorithm: DIIS         
the SCF tolerance is set to 1.00e-08
    1    -576.4648333328      7.01e-05     00000 
    2    -576.4659688230      7.78e-06     00000 
    3    -576.4660057731      1.35e-06     00000 
    4    -576.4660069966      6.57e-07     00000 
    5    -576.4660071031      1.48e-07     00000 
    6    -576.4660071123      6.30e-08     00000 
    7    -576.4660071134      1.46e-08     00000 
    8    -576.4660071135      5.37e-09     00000 Convergence criterion met
write pseudocanon occs and virts to disk
write pseudocanon orbital energies to disk
Timing for Total SCF: 6523.00s (wall), 12994.09s (cpu)
<S^2> of ct_allowed wavefunction after ct-allowed iterations 0.0000000000

================================
        Results of EDA2         
================================
Basic EDA Quantities
--------------------
Fragment Energies (Ha):
1 -304.8804671547
2 -271.5817615881
--------------------
  E_prp (kJ/mol) = -0.0000
  E_sol (kJ/mol) = 2.2894
  E_frz (kJ/mol) = -8.2135
  E_pol (kJ/mol) = -0.9144
  E_vct (kJ/mol) = -3.0818
  E_int (kJ/mol) = -9.9202
--------------------


Initial Wavefunction Decomposition
--------------------
  --------------------
  Orthogonal Fragment Subspace Decomposition:
  --------------------
     E_elec   (ELEC)   (kJ/mol) = -25.6422
     E_pauli  (PAULI)  (kJ/mol) = 37.9089
     E_disp   (DISP)   (kJ/mol) = -20.4802
     --------------------
     Terms summing to E_pauli:
     --------------------
        E_kep_pauli       (kJ/mol) = 49.0407
        E_disp_free_pauli (kJ/mol) = -11.1318
  --------------------
  Classical Frozen Decomposition:
  --------------------
     E_cls_elec  (CLS ELEC)  (kJ/mol) = -10.9332
     E_cls_pauli (CLS PAULI) (kJ/mol) = 2.7197
    [E_mod_pauli (MOD PAULI) (kJ/mol) = 23.1999 (CLS PAULI - DISP from orthogonal decomposition) ]
  --------------------
--------------------

Simplified EDA Summary (kJ/mol)
--------------------
 PREPARATION     -0.0000
 SOLVATION       2.2894
 FROZEN          12.2667      (does not include dispersion)
[PAULI           37.9089]     (if this is negligible, then frozen describes electrostatics)
 DISPERSION      -20.4802
 POLARIZATION    -0.9144
 CHARGE TRANSFER -3.0818
 TOTAL           -9.9202     (PRP + SOL + FRZ + DISP + POL + CT)
--------------------
 
 --------------------------------------------------------------
 
                    Orbital Energies (a.u.)
 --------------------------------------------------------------
 
 Alpha MOs
 -- Occupied --
-14.4663 -14.3868 -10.3216 -10.2879 -10.2840 -10.2819 -10.2749 -10.2748
-10.2719 -10.2716 -10.2713 -10.2631 -10.2631 -10.2561  -1.1545  -0.9991
 -0.9969  -0.9163  -0.9081  -0.8807  -0.8609  -0.8153  -0.7615  -0.7320
 -0.7275  -0.7078  -0.6841  -0.6636  -0.6322  -0.5764  -0.5724  -0.5683
 -0.5631  -0.5465  -0.5382  -0.5347  -0.5315  -0.5214  -0.5150  -0.4907
 -0.4812  -0.4747  -0.4531  -0.4460  -0.4431  -0.4391  -0.3777  -0.3733
 -0.3518  -0.3396  -0.3218
 -- Virtual --
  0.0565   0.0596   0.0654   0.0716   0.0740   0.0782   0.0926   0.0956
  0.0994   0.1006   0.1070   0.1128   0.1164   0.1257   0.1330   0.1356
  0.1391   0.1447   0.1539   0.1588   0.1611   0.1710   0.1768   0.1801
  0.1876   0.1904   0.1924   0.1998   0.2086   0.2111   0.2174   0.2226
  0.2255   0.2297   0.2321   0.2342   0.2371   0.2465   0.2534   0.2562
  0.2602   0.2638   0.2716   0.2730   0.2748   0.2772   0.2814   0.2848
  0.2870   0.2916   0.2953   0.3006   0.3030   0.3059   0.3096   0.3119
  0.3156   0.3210   0.3234   0.3270   0.3300   0.3309   0.3320   0.3369
  0.3421   0.3467   0.3469   0.3491   0.3529   0.3593   0.3628   0.3647
  0.3666   0.3696   0.3742   0.3795   0.3805   0.3843   0.3873   0.3910
  0.3930   0.3987   0.4027   0.4040   0.4060   0.4073   0.4125   0.4191
  0.4219   0.4268   0.4279   0.4350   0.4356   0.4399   0.4465   0.4485
  0.4498   0.4557   0.4575   0.4613   0.4662   0.4700   0.4723   0.4751
  0.4781   0.4806   0.4840   0.4895   0.4926   0.4948   0.4959   0.4977
  0.5053   0.5097   0.5131   0.5222   0.5248   0.5260   0.5283   0.5333
  0.5355   0.5409   0.5430   0.5506   0.5553   0.5561   0.5598   0.5665
  0.5710   0.5757   0.5822   0.5869   0.5915   0.5927   0.5952   0.5995
  0.6059   0.6093   0.6122   0.6176   0.6204   0.6262   0.6307   0.6317
  0.6370   0.6462   0.6508   0.6542   0.6562   0.6649   0.6704   0.6762
  0.6829   0.6850   0.6892   0.6919   0.6970   0.7014   0.7028   0.7129
  0.7153   0.7229   0.7268   0.7294   0.7381   0.7403   0.7464   0.7521
  0.7529   0.7605   0.7623   0.7658   0.7692   0.7734   0.7774   0.7821
  0.7837   0.7845   0.7903   0.7923   0.7964   0.8034   0.8057   0.8090
  0.8162   0.8188   0.8229   0.8262   0.8289   0.8309   0.8337   0.8378
  0.8412   0.8440   0.8471   0.8543   0.8564   0.8610   0.8676   0.8716
  0.8731   0.8782   0.8842   0.8888   0.8913   0.9027   0.9030   0.9152
  0.9190   0.9226   0.9249   0.9398   0.9461   0.9580   0.9586   0.9625
  0.9717   0.9785   0.9858   0.9899   0.9942   1.0117   1.0157   1.0175
  1.0235   1.0323   1.0386   1.0520   1.0576   1.0682   1.0719   1.0769
  1.0864   1.0943   1.1011   1.1070   1.1204   1.1226   1.1294   1.1365
  1.1442   1.1539   1.1686   1.1815   1.1824   1.1980   1.2034   1.2138
  1.2220   1.2298   1.2459   1.2596   1.2753   1.2831   1.2964   1.2982
  1.3198   1.3215   1.3272   1.3452   1.3575   1.3698   1.3752   1.3872
  1.3976   1.4081   1.4145   1.4356   1.4450   1.4512   1.4628   1.4720
  1.4860   1.4887   1.4996   1.5023   1.5151   1.5286   1.5368   1.5542
  1.5620   1.5772   1.5949   1.6138   1.6227   1.6288   1.6429   1.6496
  1.6555   1.6763   1.6949   1.6996   1.7181   1.7517   1.7670   1.7729
  1.7901   1.8009   1.8062   1.8167   1.8401   1.8518   1.8666   1.8885
  1.8963   1.9029   1.9047   1.9115   1.9215   1.9328   1.9399   1.9418
  1.9490   1.9566   1.9684   1.9756   1.9791   1.9905   1.9950   1.9972
  2.0016   2.0181   2.0241   2.0276   2.0365   2.0474   2.0522   2.0545
  2.0613   2.0675   2.0787   2.0935   2.0969   2.1197   2.1282   2.1474
  2.1549   2.1669   2.1682   2.1790   2.2060   2.2162   2.2202   2.2431
  2.2442   2.2548   2.2691   2.2757   2.2847   2.3080   2.3133   2.3210
  2.3253   2.3369   2.3531   2.3633   2.3875   2.4040   2.4096   2.4230
  2.4308   2.4416   2.4654   2.4820   2.4895   2.5078   2.5213   2.5367
  2.5427   2.5549   2.5717   2.5801   2.5862   2.5959   2.6099   2.6212
  2.6299   2.6338   2.6424   2.6541   2.6668   2.6726   2.6938   2.6979
  2.7143   2.7334   2.7376   2.7415   2.7471   2.7720   2.7808   2.7891
  2.7969   2.8049   2.8158   2.8182   2.8293   2.8390   2.8439   2.8596
  2.8672   2.8779   2.8967   2.9265   2.9302   2.9367   2.9506   2.9612
  2.9752   2.9839   2.9877   2.9916   2.9946   3.0053   3.0174   3.0276
  3.0333   3.0412   3.0478   3.0680   3.0760   3.0764   3.0820   3.0894
  3.0992   3.1050   3.1178   3.1249   3.1451   3.1577   3.1733   3.1988
  3.2094   3.2245   3.2340   3.2382   3.2458   3.2665   3.2676   3.2729
  3.2869   3.2922   3.3050   3.3261   3.3296   3.3381   3.3510   3.3580
  3.3677   3.3723   3.3810   3.3862   3.4023   3.4081   3.4144   3.4184
  3.4310   3.4438   3.4587   3.4642   3.4676   3.4741   3.4786   3.4910
  3.4991   3.5047   3.5134   3.5191   3.5234   3.5338   3.5464   3.5526
  3.5571   3.5619   3.5752   3.5835   3.5925   3.5950   3.5961   3.6032
  3.6145   3.6273   3.6316   3.6425   3.6448   3.6599   3.6670   3.6864
  3.6997   3.7042   3.7060   3.7200   3.7221   3.7269   3.7609   3.7807
  3.7875   3.8027   3.8243   3.8443   3.8535   3.8713   3.8850   3.9090
  3.9205   3.9310   3.9636   3.9687   3.9695   4.0017   4.0224   4.0341
  4.0569   4.0641   4.0812   4.1117   4.1343   4.1528   4.1762   4.1997
  4.2303   4.2504   4.2809   4.2823   4.2997   4.3206   4.3345   4.3454
  4.3499   4.3593   4.3712   4.3797   4.3994   4.4149   4.4415   4.4607
  4.4631   4.4821   4.4857   4.4983   4.5580   4.5694   4.6060   4.6155
  4.6230   4.6505   4.6789   4.7218   4.7690   4.7824   4.7957   4.8282
  4.8454   4.8537   4.8784   4.8794   4.8973   4.9300   4.9611   4.9770
  4.9914   5.0396   5.0511   5.0556   5.0651   5.0877   5.0910   5.1472
  5.1770   5.1838   5.2389   5.2531   5.2727   5.3218   5.3717   5.3819
  5.3837   5.4672   5.4988   5.5069   5.5365   5.5471   5.6042   5.6332
  5.6793   5.6844   5.7305   5.7914   5.8142   5.8321   5.9080   6.0811
  6.2418   6.3083  22.6778  22.6836  22.7174  22.8348  22.9244  22.9481
 22.9785  23.0390  23.0973  23.1501  23.4322  23.4502  32.7138  32.8401
 --------------------------------------------------------------
 
          Ground-State Mulliken Net Atomic Charges

     Atom                 Charge (a.u.)
  ----------------------------------------
      1 C                     0.441768
      2 C                    -0.958195
      3 C                    -0.013263
      4 C                    -0.295689
      5 C                    -0.295617
      6 N                    -0.492437
      7 N                     0.097812
      8 H                     0.223970
      9 H                    -0.310282
     10 H                     0.233357
     11 H                     0.330053
     12 H                     0.292323
     13 H                     0.178670
     14 H                     0.245795
     15 H                     0.232874
     16 C                    -1.253635
     17 C                    -0.314810
     18 C                    -0.346960
     19 C                    -0.256712
     20 C                    -0.365965
     21 C                    -0.380488
     22 C                     0.681355
     23 H                     0.264706
     24 H                     0.298854
     25 H                     0.303758
     26 H                     0.362007
     27 H                     0.295887
     28 H                     0.264886
     29 H                     0.285138
     30 H                     0.250841
  ----------------------------------------
  Sum of atomic charges =     0.000000

 -----------------------------------------------------------------
                    Cartesian Multipole Moments
 -----------------------------------------------------------------
    Charge (ESU x 10^10)
                -0.0000
    Dipole Moment (Debye)
         X      -0.3412      Y      -4.9208      Z      -1.4715
       Tot       5.1474
    Quadrupole Moments (Debye-Ang)
        XX     -86.1238     XY     -14.6235     YY     -83.4290
        XZ       0.1136     YZ      -6.3905     ZZ     -84.5620
    Octopole Moments (Debye-Ang^2)
       XXX      57.0544    XXY     -36.4710    XYY     -21.6174
       YYY     -38.5341    XXZ      17.1221    XYZ     -20.2159
       YYZ     -10.5892    XZZ      -5.6934    YZZ     -20.6134
       ZZZ      -2.9652
    Hexadecapole Moments (Debye-Ang^3)
      XXXX   -2072.7633   XXXY    -666.2961   XXYY    -735.2138
      XYYY    -571.6205   YYYY   -2094.6583   XXXZ    -316.8544
      XXYZ    -124.8479   XYYZ    -150.3908   YYYZ    -230.6242
      XXZZ    -463.5489   XYZZ    -209.7217   YYZZ    -521.5628
      XZZZ    -371.0541   YZZZ    -225.7146   ZZZZ    -845.8411
 -----------------------------------------------------------------
Archival summary:
1\1\nid00556\SP\ProcedureUnspecified\BasisUnspecified\21216\meili\MonSep2713:09:182021MonSep2713:09:182021\0\\#,ProcedureUnspecified,BasisUnspecified,\\0,1\N\H,1,1.01397\C,1,1.33046,2,124.91\H,3,1.08415,1,125.498,2,0.696472,0\N,3,1.33072,1,108.719,2,-178.784,0\C,1,1.37873,2,126.292,3,-178.688,0\H,6,1.08301,1,127.123,2,-0.192133,0\C,6,1.36016,1,106.849,2,179.191,0\C,8,1.50056,6,130.146,1,-179.42,0\H,9,1.08296,8,107.865,6,29.3072,0\H,9,1.08393,8,109.165,6,145.75,0\C,9,1.52472,8,114.224,6,-90.8437,0\H,12,1.09086,9,108.824,8,50.6031,0\H,12,1.1,9,109.133,8,167.791,0\H,12,1.1,9,110.551,8,-70.521,0\H,10,2.23664,9,156.2,8,74.2341,0\C,16,1.08154,10,96.672,9,-116.917,0\C,17,1.39039,16,120.427,10,-67.0596,0\H,18,1.08211,17,120.044,16,1.30541,0\C,18,1.38992,17,119.989,16,-177.863,0\H,20,1.08226,18,119.316,17,179.355,0\C,17,1.39193,16,119.737,10,114.729,0\H,22,1.08163,17,119.939,16,-1.45543,0\C,20,1.39409,18,120.761,17,-0.695836,0\C,24,1.39367,20,118.933,18,0.581167,0\H,25,1.08154,24,119.962,20,179.811,0\C,24,1.51248,20,120.658,18,179.158,0\H,27,1.08089,24,108.022,20,18.248,0\H,27,1.09097,24,108.867,20,134.403,0\H,27,1.1,24,113.085,20,-104.691,0\\\@

 Total job time:  89063.91s(wall), 63631.69s(cpu) 
 Mon Sep 27 13:09:19 2021

        *************************************************************
        *                                                           *
        *  Thank you very much for using Q-Chem.  Have a nice day.  *
        *                                                           *
        *************************************************************


