                  Welcome to Q-Chem
     A Quantum Leap Into The Future Of Chemistry


 Q-Chem 5.2 (devel), Q-Chem, Inc., Pleasanton, CA (2019)

 Yihan Shao,  Zhengting Gan,  E. Epifanovsky,  A. T. B. Gilbert,  M. Wormit,  
 J. Kussmann,  A. W. Lange,  A. Behn,  Jia Deng,  Xintian Feng,  D. Ghosh,  
 M. Goldey,  P. R. Horn,  L. D. Jacobson,  I. Kaliman,  T. Kus,  A. Landau,  
 Jie Liu,  E. I. Proynov,  R. M. Richard,  R. P. Steele,  E. J. Sundstrom,  
 H. L. Woodcock III,  P. M. Zimmerman,  D. Zuev,  B. Albrecht,  E. Alguire,  
 S. A. Baeppler,  D. Barton,  Z. Benda,  Y. A. Bernard,  E. J. Berquist,  
 K. B. Bravaya,  H. Burton,  D. Casanova,  Chun-Min Chang,  Yunqing Chen,  
 A. Chien,  K. D. Closser,  M. P. Coons,  S. Coriani,  S. Dasgupta,  
 A. L. Dempwolff,  M. Diedenhofen,  Hainam Do,  R. G. Edgar,  Po-Tung Fang,  
 S. Faraji,  S. Fatehi,  Qingguo Feng,  K. D. Fenk,  J. Fosso-Tande,  
 J. Gayvert,  Qinghui Ge,  A. Ghysels,  G. Gidofalvi,  J. Gomes,  
 J. Gonthier,  A. Gunina,  D. Hait,  M. W. D. Hanson-Heine,  
 P. H. P. Harbach,  A. W. Hauser,  M. F. Herbst,  J. E. Herr,  
 E. G. Hohenstein,  Z. C. Holden,  Kerwin Hui,  B. C. Huynh,  T.-C. Jagau,  
 Hyunjun Ji,  B. Kaduk,  K. Khistyaev,  Jaehoon Kim,  P. Klunzinger,  K. Koh,  
 D. Kosenkov,  L. Koulias,  T. Kowalczyk,  C. M. Krauter,  A. Kunitsa,  
 Ka Un Lao,  A. Laurent,  K. V. Lawler,  Joonho Lee,  D. Lefrancois,  
 S. Lehtola,  D. S. Levine,  Yi-Pei Li,  You-Sheng Lin,  Fenglai Liu,  
 E. Livshits,  A. Luenser,  P. Manohar,  E. Mansoor,  S. F. Manzer,  
 Shan-Ping Mao,  Yuezhi Mao,  N. Mardirossian,  A. V. Marenich,  
 T. Markovich,  L. A. Martinez-Martinez,  S. A. Maurer,  N. J. Mayhall,  
 S. C. McKenzie,  J.-M. Mewes,  P. Morgante,  A. F. Morrison,  
 J. W. Mullinax,  K. Nanda,  T. S. Nguyen-Beck,  R. Olivares-Amaya,  
 J. A. Parkhill,  Zheng Pei,  T. M. Perrine,  F. Plasser,  P. Pokhilko,  
 S. Prager,  A. Prociuk,  E. Ramos,  D. R. Rehn,  F. Rob,  M. Scheurer,  
 M. Schneider,  N. Sergueev,  S. M. Sharada,  S. Sharma,  D. W. Small,  
 T. Stauch,  T. Stein,  Yu-Chuan Su,  A. J. W. Thom,  A. Tkatchenko,  
 T. Tsuchimochi,  N. M. Tubman,  L. Vogt,  M. L. Vidal,  O. Vydrov,  
 M. A. Watson,  J. Wenzel,  M. de Wergifosse,  T. A. Wesolowski,  A. White,  
 J. Witte,  A. Yamada,  Jun Yang,  K. Yao,  S. Yeganeh,  S. R. Yost,  
 Zhi-Qiang You,  A. Zech,  Igor Ying Zhang,  Xing Zhang,  Yan Zhao,  
 Ying Zhu,  B. R. Brooks,  G. K. L. Chan,  C. J. Cramer,  M. S. Gordon,  
 W. J. Hehre,  A. Klamt,  M. W. Schmidt,  C. D. Sherrill,  D. G. Truhlar,  
 A. Aspuru-Guzik,  R. Baer,  A. T. Bell,  N. A. Besley,  Jeng-Da Chai,  
 A. E. DePrince, III,  R. A. DiStasio Jr.,  A. Dreuw,  B. D. Dunietz,  
 T. R. Furlani,  Chao-Ping Hsu,  Yousung Jung,  Jing Kong,  D. S. Lambrecht,  
 WanZhen Liang,  C. Ochsenfeld,  V. A. Rassolov,  L. V. Slipchenko,  
 J. E. Subotnik,  T. Van Voorhis,  J. M. Herbert,  A. I. Krylov,  
 P. M. W. Gill,  M. Head-Gordon

 Contributors to earlier versions of Q-Chem not listed above: 
 R. D. Adamson,  B. Austin,  J. Baker,  G. J. O. Beran,  K. Brandhorst,  
 S. T. Brown,  E. F. C. Byrd,  A. K. Chakraborty,  C.-L. Cheng,  
 Siu Hung Chien,  D. M. Chipman,  D. L. Crittenden,  H. Dachsel,  
 R. J. Doerksen,  A. D. Dutoi,  L. Fusti-Molnar,  W. A. Goddard III,  
 A. Golubeva-Zadorozhnaya,  S. R. Gwaltney,  G. Hawkins,  A. Heyden,  
 S. Hirata,  G. Kedziora,  F. J. Keil,  C. Kelley,  Jihan Kim,  R. A. King,  
 R. Z. Khaliullin,  P. P. Korambath,  W. Kurlancheek,  A. M. Lee,  M. S. Lee,  
 S. V. Levchenko,  Ching Yeh Lin,  D. Liotard,  R. C. Lochan,  I. Lotan,  
 P. E. Maslen,  N. Nair,  D. P. O'Neill,  D. Neuhauser,  E. Neuscamman,  
 C. M. Oana,  R. Olson,  B. Peters,  R. Peverati,  P. A. Pieniazek,  
 Y. M. Rhee,  J. Ritchie,  M. A. Rohrdanz,  E. Rosta,  N. J. Russ,  
 H. F. Schaefer III,  N. E. Schultz,  N. Shenvi,  A. C. Simmonett,  A. Sodt,  
 D. Stuck,  K. S. Thanthiriwatte,  V. Vanovschi,  Tao Wang,  A. Warshel,  
 C. F. Williams,  Q. Wu,  X. Xu,  W. Zhang

 Please cite Q-Chem as follows:
 Y. Shao et al., Mol. Phys. 113, 184-215 (2015)
 DOI: 10.1080/00268976.2014.952696

 Q-Chem 5.2.1 for Intel X86 EM64T Linux

 Parts of Q-Chem use Armadillo 8.300.2 (Tropical Shenanigans).
 http://arma.sourceforge.net/

 Q-Chem begins on Wed Sep 29 02:18:15 2021  

compute-0-10.local
Host: 0

     Scratch files written to /home/meili/scratch/qchem36906//
NAlpha2: 108
NElect   108
Mult     1
Symmetry turned off for PCM/SM12/SMD calculation

 Q-Chem warning in module libgen/rem_setup.C, line 2813:

 Neither GIA nor STOLL is specified by user. Use STOLL as the default


Checking the input file for inconsistencies... 	...done.

--------------------------------------------------------------
User input:
--------------------------------------------------------------
$comment
SSI-040PHE-052TYR-1.pdb
$end

$molecule
0 1
--
0 1
C   -3.476130193814    1.602826089526    1.295269266796
C   -2.153130193814   -0.525173910474    0.970269266796
C   -3.138130193814    0.354826089526    0.515269266796
C   -1.863130193814   -1.693173910474    0.257269266796
C   -2.572130193814   -1.992173910474   -0.908730733204
C   -3.844130193814    0.043826089526   -0.649730733204
C   -3.561130193814   -1.121173910474   -1.361730733204
H   -1.609130193814   -0.307173910474    1.877269266796
H   -1.096130193814   -2.368173910474    0.609269266796
H   -3.440130193814    1.362826089526    2.359269266796
H   -4.502130193814    1.897826089526    1.067269266796
H   -2.354130193814   -2.899173910474   -1.456730733204
H   -4.619130193814    0.707826089526   -1.005730733204
H   -4.120130193814   -1.365173910474   -2.251730733204
H   -2.802239193814    2.450766089526    1.103243266796
--
0 1
C    4.164869806186    0.162826089526   -2.464730733204
C    1.143869806186    0.495826089526   -0.168730733204
C    1.732869806186    0.471826089526    1.091269266796
C    1.939869806186    0.413826089526   -1.307730733204
C    3.328869806186    0.295826089526   -1.209730733204
C    3.118869806186    0.357826089526    1.213269266796
C    3.910869806186    0.256826089526    0.066269266796
O    0.946869806186    0.556826089526    2.202269266796
H    0.071869806186    0.580826089526   -0.258730733204
H    1.466869806186    0.418826089526   -2.279730733204
H    3.576869806186    0.330826089526    2.188269266796
H    1.455869806186    0.312826089526    2.991269266796
H    3.594869806186    0.543826089526   -3.312730733204
H    4.331869806186   -0.899173910474   -2.632730733204
H    4.976869806186    0.140826089526    0.185269266796
H    5.136298806186    0.678086089526   -2.435904733204
$end

$rem
JOBTYPE			EDA
EDA2			1
method			wB97X-V
BASIS			def2-TZVPD
XC_GRID			000099000590
NL_GRID			1
UNRESTRICTED		FALSE
MAX_SCF_CYCLES		200
SYMMETRY		FALSE
SYM_IGNORE		TRUE
MEM_STATIC		2000
BASIS_LIN_DEP_THRESH 	6
THRESH 			14
SCF_CONVERGENCE 	8
SCF_PRINT_FRGM 		TRUE
SOLVENT_METHOD          PCM
$end

$PCM
THEORY                  CPCM
METHOD                  SWIG
SOLVER                  INVERSION
RADII                   UFF
HPOINTS                 302
HEAVYPOINTS             302
PRINTLEVEL              0
$END

$SOLVENT
DIELECTRIC              78.390000 ! water
$END
--------------------------------------------------------------
 ----------------------------------------------------------------
             Standard Nuclear Orientation (Angstroms)
    I     Atom           X                Y                Z
 ----------------------------------------------------------------
    1      C      -3.4761301938     1.6028260895     1.2952692668
    2      C      -2.1531301938    -0.5251739105     0.9702692668
    3      C      -3.1381301938     0.3548260895     0.5152692668
    4      C      -1.8631301938    -1.6931739105     0.2572692668
    5      C      -2.5721301938    -1.9921739105    -0.9087307332
    6      C      -3.8441301938     0.0438260895    -0.6497307332
    7      C      -3.5611301938    -1.1211739105    -1.3617307332
    8      H      -1.6091301938    -0.3071739105     1.8772692668
    9      H      -1.0961301938    -2.3681739105     0.6092692668
   10      H      -3.4401301938     1.3628260895     2.3592692668
   11      H      -4.5021301938     1.8978260895     1.0672692668
   12      H      -2.3541301938    -2.8991739105    -1.4567307332
   13      H      -4.6191301938     0.7078260895    -1.0057307332
   14      H      -4.1201301938    -1.3651739105    -2.2517307332
   15      H      -2.8022391938     2.4507660895     1.1032432668
   16      C       4.1648698062     0.1628260895    -2.4647307332
   17      C       1.1438698062     0.4958260895    -0.1687307332
   18      C       1.7328698062     0.4718260895     1.0912692668
   19      C       1.9398698062     0.4138260895    -1.3077307332
   20      C       3.3288698062     0.2958260895    -1.2097307332
   21      C       3.1188698062     0.3578260895     1.2132692668
   22      C       3.9108698062     0.2568260895     0.0662692668
   23      O       0.9468698062     0.5568260895     2.2022692668
   24      H       0.0718698062     0.5808260895    -0.2587307332
   25      H       1.4668698062     0.4188260895    -2.2797307332
   26      H       3.5768698062     0.3308260895     2.1882692668
   27      H       1.4558698062     0.3128260895     2.9912692668
   28      H       3.5948698062     0.5438260895    -3.3127307332
   29      H       4.3318698062    -0.8991739105    -2.6327307332
   30      H       4.9768698062     0.1408260895     0.1852692668
   31      H       5.1362988062     0.6780860895    -2.4359047332
 ----------------------------------------------------------------
 Nuclear Repulsion Energy =         879.99242124 hartrees
 There are       54 alpha and       54 beta electrons
 Requested basis set is def2-TZVPD
 There are 276 shells and 702 basis functions

 Total QAlloc Memory Limit   2000 MB
 Mega-Array Size      1956 MB
 MEM_STATIC part      2000 MB
 Discretize the solute cavity surface with Lebedev spheres
	Using 302 Lebedev grid points for each H atom
	Using 302 Lebedev grid points for other atoms
	Atomic van der Waals radii will be scaled by 1.20
 Remove points where switching function is < 1.0e-08
 Keep 3462 surface tesserae and discard 5900 interior tesserae
 Molecular Surface Area = 338.078 Angst**2
 A cutoff of  1.0D-14 yielded  31844 shell pairs
 There are    206354 function pairs (    260346 Cartesian)
 Smallest overlap matrix eigenvalue = 4.72E-07
 Linear dependence detected in AO basis
 Tighter screening thresholds may be required for diffuse basis sets
 Use S2THRESH > 14 and THRESH = 14 in case of SCF convergence issues
 Number of orthogonalized atomic orbitals = 698
 Maximum deviation from orthogonality = 1.971E-10

 Scale SEOQF with 1.000000e-02/1.000000e-01/1.000000e-01

 Standard Electronic Orientation quadrupole field applied
 Nucleus-field energy     =    -0.0000000116 hartrees

 -----------------------------------------------------------------------
  General SCF calculation program by
  Eric Jon Sundstrom, Paul Horn, Yuezhi Mao, Dmitri Zuev, Alec White,
  David Stuck, Shaama M.S., Shane Yost, Joonho Lee, David Small,
  Daniel Levine, Susi Lehtola, Hugh Burton, Evgeny Epifanovsky,
  Bang C. Huynh
 -----------------------------------------------------------------------
================================================================
                 ALMO-EDA with the EDA2 driver                  
================================================================
 The second-generation ALMO-EDA (for DFT):                      
 P. R. Horn, Y. Mao and M. Head-Gordon, PCCP, 18, 23067 (2016)  
 Decomposition of the frozen energy:                            
 P. R. Horn, Y. Mao and M. Head-Gordon, JCP, 144, 114107 (2016) 
 FERF model for polarization:                                   
 P. R. Horn and M. Head-Gordon, JCP, 143, 114111 (2015)         
Using eda2 option set 1
Option set summary: Frozen orbital wavefunction, initial wavefunction decomposition, and nDQ polarization.
--------------------------------
Printing EDA Options
--------------------------------
eda_child_super_basis      0
fragmo_guess_mode          0
child_mp                   1
child_mp_orders            232
cls_elec                   1
cls_disp                   0
scfmi_mode                 1
scfmi_occs                 0
scfmi_virts                0
frz_relax                  0
frz_relax_method           0
dc_pen_start               0
dc_pen_conv                0
dc_pen_increment           0
dc_pen_steps               0
dc_pen_thresh_factor       0
dc_pen_pre_newton_thresh   0
frz_ortho_decomp           1
frz_ortho_decomp_conv      6
frgm_method                2
scfmi_freeze_ss            0
separate_rehyb             0
plot_diff_den              0
eda_nocv                   0
eda_vct_relax              1
disp_free_x                0
disp_free_c                0
eda_bsse                   0
eda_pct_a                  0
eda_covp                   0
--------------------------------
Attempting to make child job directory: /home/meili/scratch/qchem36906//Frg1/
Attempting to make child job directory: /home/meili/scratch/qchem36906//Frg2/
Creating input file /home/meili/scratch/qchem36906/Frg1.input
using default PutDataFrgm: nothing
calling putenv with: QCSCRATCH=/home/meili/scratch/qchem36906/ 
Spawning Job For Fragment 0
                  Welcome to Q-Chem
     A Quantum Leap Into The Future Of Chemistry


 Q-Chem 5.2 (devel), Q-Chem, Inc., Pleasanton, CA (2019)

 Yihan Shao,  Zhengting Gan,  E. Epifanovsky,  A. T. B. Gilbert,  M. Wormit,  
 J. Kussmann,  A. W. Lange,  A. Behn,  Jia Deng,  Xintian Feng,  D. Ghosh,  
 M. Goldey,  P. R. Horn,  L. D. Jacobson,  I. Kaliman,  T. Kus,  A. Landau,  
 Jie Liu,  E. I. Proynov,  R. M. Richard,  R. P. Steele,  E. J. Sundstrom,  
 H. L. Woodcock III,  P. M. Zimmerman,  D. Zuev,  B. Albrecht,  E. Alguire,  
 S. A. Baeppler,  D. Barton,  Z. Benda,  Y. A. Bernard,  E. J. Berquist,  
 K. B. Bravaya,  H. Burton,  D. Casanova,  Chun-Min Chang,  Yunqing Chen,  
 A. Chien,  K. D. Closser,  M. P. Coons,  S. Coriani,  S. Dasgupta,  
 A. L. Dempwolff,  M. Diedenhofen,  Hainam Do,  R. G. Edgar,  Po-Tung Fang,  
 S. Faraji,  S. Fatehi,  Qingguo Feng,  K. D. Fenk,  J. Fosso-Tande,  
 J. Gayvert,  Qinghui Ge,  A. Ghysels,  G. Gidofalvi,  J. Gomes,  
 J. Gonthier,  A. Gunina,  D. Hait,  M. W. D. Hanson-Heine,  
 P. H. P. Harbach,  A. W. Hauser,  M. F. Herbst,  J. E. Herr,  
 E. G. Hohenstein,  Z. C. Holden,  Kerwin Hui,  B. C. Huynh,  T.-C. Jagau,  
 Hyunjun Ji,  B. Kaduk,  K. Khistyaev,  Jaehoon Kim,  P. Klunzinger,  K. Koh,  
 D. Kosenkov,  L. Koulias,  T. Kowalczyk,  C. M. Krauter,  A. Kunitsa,  
 Ka Un Lao,  A. Laurent,  K. V. Lawler,  Joonho Lee,  D. Lefrancois,  
 S. Lehtola,  D. S. Levine,  Yi-Pei Li,  You-Sheng Lin,  Fenglai Liu,  
 E. Livshits,  A. Luenser,  P. Manohar,  E. Mansoor,  S. F. Manzer,  
 Shan-Ping Mao,  Yuezhi Mao,  N. Mardirossian,  A. V. Marenich,  
 T. Markovich,  L. A. Martinez-Martinez,  S. A. Maurer,  N. J. Mayhall,  
 S. C. McKenzie,  J.-M. Mewes,  P. Morgante,  A. F. Morrison,  
 J. W. Mullinax,  K. Nanda,  T. S. Nguyen-Beck,  R. Olivares-Amaya,  
 J. A. Parkhill,  Zheng Pei,  T. M. Perrine,  F. Plasser,  P. Pokhilko,  
 S. Prager,  A. Prociuk,  E. Ramos,  D. R. Rehn,  F. Rob,  M. Scheurer,  
 M. Schneider,  N. Sergueev,  S. M. Sharada,  S. Sharma,  D. W. Small,  
 T. Stauch,  T. Stein,  Yu-Chuan Su,  A. J. W. Thom,  A. Tkatchenko,  
 T. Tsuchimochi,  N. M. Tubman,  L. Vogt,  M. L. Vidal,  O. Vydrov,  
 M. A. Watson,  J. Wenzel,  M. de Wergifosse,  T. A. Wesolowski,  A. White,  
 J. Witte,  A. Yamada,  Jun Yang,  K. Yao,  S. Yeganeh,  S. R. Yost,  
 Zhi-Qiang You,  A. Zech,  Igor Ying Zhang,  Xing Zhang,  Yan Zhao,  
 Ying Zhu,  B. R. Brooks,  G. K. L. Chan,  C. J. Cramer,  M. S. Gordon,  
 W. J. Hehre,  A. Klamt,  M. W. Schmidt,  C. D. Sherrill,  D. G. Truhlar,  
 A. Aspuru-Guzik,  R. Baer,  A. T. Bell,  N. A. Besley,  Jeng-Da Chai,  
 A. E. DePrince, III,  R. A. DiStasio Jr.,  A. Dreuw,  B. D. Dunietz,  
 T. R. Furlani,  Chao-Ping Hsu,  Yousung Jung,  Jing Kong,  D. S. Lambrecht,  
 WanZhen Liang,  C. Ochsenfeld,  V. A. Rassolov,  L. V. Slipchenko,  
 J. E. Subotnik,  T. Van Voorhis,  J. M. Herbert,  A. I. Krylov,  
 P. M. W. Gill,  M. Head-Gordon

 Contributors to earlier versions of Q-Chem not listed above: 
 R. D. Adamson,  B. Austin,  J. Baker,  G. J. O. Beran,  K. Brandhorst,  
 S. T. Brown,  E. F. C. Byrd,  A. K. Chakraborty,  C.-L. Cheng,  
 Siu Hung Chien,  D. M. Chipman,  D. L. Crittenden,  H. Dachsel,  
 R. J. Doerksen,  A. D. Dutoi,  L. Fusti-Molnar,  W. A. Goddard III,  
 A. Golubeva-Zadorozhnaya,  S. R. Gwaltney,  G. Hawkins,  A. Heyden,  
 S. Hirata,  G. Kedziora,  F. J. Keil,  C. Kelley,  Jihan Kim,  R. A. King,  
 R. Z. Khaliullin,  P. P. Korambath,  W. Kurlancheek,  A. M. Lee,  M. S. Lee,  
 S. V. Levchenko,  Ching Yeh Lin,  D. Liotard,  R. C. Lochan,  I. Lotan,  
 P. E. Maslen,  N. Nair,  D. P. O'Neill,  D. Neuhauser,  E. Neuscamman,  
 C. M. Oana,  R. Olson,  B. Peters,  R. Peverati,  P. A. Pieniazek,  
 Y. M. Rhee,  J. Ritchie,  M. A. Rohrdanz,  E. Rosta,  N. J. Russ,  
 H. F. Schaefer III,  N. E. Schultz,  N. Shenvi,  A. C. Simmonett,  A. Sodt,  
 D. Stuck,  K. S. Thanthiriwatte,  V. Vanovschi,  Tao Wang,  A. Warshel,  
 C. F. Williams,  Q. Wu,  X. Xu,  W. Zhang

 Please cite Q-Chem as follows:
 Y. Shao et al., Mol. Phys. 113, 184-215 (2015)
 DOI: 10.1080/00268976.2014.952696

 Q-Chem 5.2.1 for Intel X86 EM64T Linux

 Parts of Q-Chem use Armadillo 8.300.2 (Tropical Shenanigans).
 http://arma.sourceforge.net/

 Q-Chem begins on Wed Sep 29 02:18:22 2021  

compute-0-10.local
Host: 0

     Scratch files written to /home/meili/scratch/qchem36906//Frg1//
NAlpha2: 50
NElect   50
Mult     1
Symmetry turned off for PCM/SM12/SMD calculation

Checking the input file for inconsistencies... 	...done.

--------------------------------------------------------------
User input:
--------------------------------------------------------------
$molecule
0 1
 6	-3.4761301938	1.6028260895	1.2952692668
 6	-2.1531301938	-0.5251739105	0.9702692668
 6	-3.1381301938	0.3548260895	0.5152692668
 6	-1.8631301938	-1.6931739105	0.2572692668
 6	-2.5721301938	-1.9921739105	-0.9087307332
 6	-3.8441301938	0.0438260895	-0.6497307332
 6	-3.5611301938	-1.1211739105	-1.3617307332
 1	-1.6091301938	-0.3071739105	1.8772692668
 1	-1.0961301938	-2.3681739105	0.6092692668
 1	-3.4401301938	1.3628260895	2.3592692668
 1	-4.5021301938	1.8978260895	1.0672692668
 1	-2.3541301938	-2.8991739105	-1.4567307332
 1	-4.6191301938	0.7078260895	-1.0057307332
 1	-4.1201301938	-1.3651739105	-2.2517307332
 1	-2.8022391938	2.4507660895	1.1032432668
$end
$rem
EDA2		1
METHOD		WB97X-V
BASIS		DEF2-TZVPD
XC_GRID		000099000590
NL_GRID		1
UNRESTRICTED		FALSE
MAX_SCF_CYCLES		200
SYMMETRY		FALSE
SYM_IGNORE		TRUE
BASIS_LIN_DEP_THRESH		6
THRESH		14
SCF_CONVERGENCE		8
SCF_PRINT_FRGM		TRUE
SOLVENT_METHOD		PCM
!required keywords
JOBTYPE		SP
SYM_IGNORE		TRUE
SUBSYSTEM		TRUE
GEN_SCFMAN		TRUE
CHILD_INSTRUCTION		2
SYM_IGNORE		TRUE
SCFMI		0
RI_K 0		
PARI_K 0		
MIN_PARI_K 0		
IARI_K 0		
OCC_RI_K 0		
PURECART		1111
MEM_STATIC		2000
MEM_TOTAL		2000
GUI		0
CHILD_MP		1
CHILD_MP_ORDERS		232
FRZ_RELAX		0
FRZ_RELAX_METHOD		0
EDA_CLS_ELEC		1
EDA_CLS_DISP		0
FRZ_ORTHO_DECOMP		1
EDA2		FALSE
FRGM_METHOD		FALSE
CIS_N_ROOTS  0
LOCAL_CIS    0
CIS_RLX_DNS  1
$end
$pcm
THEORY                  CPCM
METHOD                  SWIG
SOLVER                  INVERSION
RADII                   UFF
HPOINTS                 302
HEAVYPOINTS             302
PRINTLEVEL              0
$end
$solvent
DIELECTRIC              78.390000 ! water
$end
--------------------------------------------------------------
 ----------------------------------------------------------------
             Standard Nuclear Orientation (Angstroms)
    I     Atom           X                Y                Z
 ----------------------------------------------------------------
    1      C      -3.4761301938     1.6028260895     1.2952692668
    2      C      -2.1531301938    -0.5251739105     0.9702692668
    3      C      -3.1381301938     0.3548260895     0.5152692668
    4      C      -1.8631301938    -1.6931739105     0.2572692668
    5      C      -2.5721301938    -1.9921739105    -0.9087307332
    6      C      -3.8441301938     0.0438260895    -0.6497307332
    7      C      -3.5611301938    -1.1211739105    -1.3617307332
    8      H      -1.6091301938    -0.3071739105     1.8772692668
    9      H      -1.0961301938    -2.3681739105     0.6092692668
   10      H      -3.4401301938     1.3628260895     2.3592692668
   11      H      -4.5021301938     1.8978260895     1.0672692668
   12      H      -2.3541301938    -2.8991739105    -1.4567307332
   13      H      -4.6191301938     0.7078260895    -1.0057307332
   14      H      -4.1201301938    -1.3651739105    -2.2517307332
   15      H      -2.8022391938     2.4507660895     1.1032432668
 ----------------------------------------------------------------
 Nuclear Repulsion Energy =         269.22389730 hartrees
 There are       25 alpha and       25 beta electrons
 Requested basis set is def2-TZVPD
 There are 131 shells and 331 basis functions

 Total QAlloc Memory Limit   2000 MB
 Mega-Array Size      1956 MB
 MEM_STATIC part      2000 MB
 Discretize the solute cavity surface with Lebedev spheres
	Using 302 Lebedev grid points for each H atom
	Using 302 Lebedev grid points for other atoms
	Atomic van der Waals radii will be scaled by 1.20
 Remove points where switching function is < 1.0e-08
 Keep 1793 surface tesserae and discard 2737 interior tesserae
 Molecular Surface Area = 178.598 Angst**2

                       Distance Matrix (Angstroms)
             C (  1)   C (  2)   C (  3)   C (  4)   C (  5)   C (  6)
   C (  2)  2.526725
   C (  3)  1.510016  1.397015
   C (  4)  3.813506  1.398818  2.426210
   C (  5)  4.312639  2.420391  2.802952  1.397010
   C (  6)  2.519708  2.409905  1.397277  2.786428  2.414614
   C (  7)  3.806186  2.788531  2.425002  2.414860  1.393546  1.394367
   H (  8)  2.733590  1.079865  2.152006  2.147071  3.395348  3.391778
   H (  9)  4.680154  2.155045  3.404898  1.080656  2.150413  3.867083
   H ( 10)  1.091326  2.673992  2.123112  4.030443  4.763326  3.310145
   H ( 11)  1.091643  3.376113  2.132147  4.529426  4.770909  2.611201
   H ( 12)  5.394478  3.400971  3.884837  2.152513  1.081886  3.395968
   H ( 13)  2.720675  3.392053  2.152071  3.867235  3.389634  1.080859
   H ( 14)  4.669579  3.867295  3.402795  3.390680  2.143148  2.151246
   H ( 15)  1.100002  3.048810  2.202612  4.332417  4.882694  3.154650
             C (  7)   H (  8)   H (  9)   H ( 10)   H ( 11)   H ( 12)
   H (  8)  3.868336
   H (  9)  3.393534  2.473603
   H ( 10)  4.475571  2.524636  4.741012
   H ( 11)  3.987466  3.726604  5.478080  1.755942
   H ( 12)  2.151083  4.288245  2.476465  5.822877  5.830582
   H ( 13)  2.142741  4.289757  4.947881  3.625230  2.393140  4.282998
   H ( 14)  1.078943  4.947032  4.282045  5.400528  4.669995  2.470615
   H ( 15)  4.405765  3.103040  5.135854  1.779921  1.787922  5.947783
             H ( 13)   H ( 14)
   H ( 14)  2.469584
   H ( 15)  3.284312  5.249199

 A cutoff of  1.0D-14 yielded   8358 shell pairs
 There are     54494 function pairs (     69445 Cartesian)
 Smallest overlap matrix eigenvalue = 5.81E-07
 Linear dependence detected in AO basis
 Tighter screening thresholds may be required for diffuse basis sets
 Use S2THRESH > 14 and THRESH = 14 in case of SCF convergence issues
 Number of orthogonalized atomic orbitals = 330
 Maximum deviation from orthogonality = 1.155E-10

 Scale SEOQF with 1.000000e-01/1.000000e-01/1.000000e-01

 Standard Electronic Orientation quadrupole field applied
 Nucleus-field energy     =     0.0000000176 hartrees
 Guess from superposition of atomic densities
 Warning:  Energy on first SCF cycle will be non-variational
 SAD guess density has 50.000000 electrons

 -----------------------------------------------------------------------
  General SCF calculation program by
  Eric Jon Sundstrom, Paul Horn, Yuezhi Mao, Dmitri Zuev, Alec White,
  David Stuck, Shaama M.S., Shane Yost, Joonho Lee, David Small,
  Daniel Levine, Susi Lehtola, Hugh Burton, Evgeny Epifanovsky,
  Bang C. Huynh
 -----------------------------------------------------------------------
 Exchange:     0.1670 Hartree-Fock + 1.0000 wB97X-V + LR-HF
 Correlation:  1.0000 wB97X-V
 Using Euler-Maclaurin-Lebedev (99,590) quadrature formula
 Nonlocal Correlation:  VV10 with C = 0.0100 and b = 6.00 and scale = 1.00000
 Grid used for NLC:  SG-1 standard quadrature
Energy prior to optimization (guess energy) = -271.528581291332
Begin Timing: Total SCF Calculation
begin iterations for algorithm: DIIS         
the SCF tolerance is set to 1.00e-08
    1    -271.5285812913      1.81e-03     00000 
    2    -271.5639613654      1.11e-03     00000 
    3    -271.5812031173      1.40e-04     00000 
    4    -271.5816261657      4.10e-05     00000 
    5    -271.5816526157      1.49e-05     00000 
    6    -271.5816565773      3.33e-06     00000 
    7    -271.5816568413      1.25e-06     00000 
    8    -271.5816568682      3.54e-07     00000 
    9    -271.5816568710      6.90e-08     00000 
   10    -271.5816568711      2.77e-08     00000 
   11    -271.5816568711      8.66e-09     00000 Convergence criterion met
Timing for Total SCF: 593.00s (wall), 3628.64s (cpu)

************** Final PCM Free Energy Summary **************
 G_electrostatic  =      -0.00252526 hartree =      -1.58462689 kcal/mol
 G_cavitation     =       0.00000000 hartree =       0.00000000 kcal/mol
 G_dispersion     =       0.00000000 hartree =       0.00000000 kcal/mol
 G_repulsion      =       0.00000000 hartree =       0.00000000 kcal/mol
 --------------------------------------------------
 Non-electrostatic Free Energy =       0.00000000 hartree =       0.00000000 kcal/mol
 Total                         =      -0.00252526 hartree =      -1.58462689 kcal/mol
 --------------------------------------------------
 SCF Energy (H0 + V/2)                       =    -271.58165687 
 Solute Internal Energy (H0)                 =    -271.57913161 
 Total Free Energy (H0 + V/2 + non-elec)     =    -271.58165687 hartree
                                             = -170420.06183649 kcal/mol
***********************************************************

E_pcm = -0.0025252637
Multipole orders to be included
        2
        3
computing dipole RHS
computing quadrupole RHS
total number of RHS in solve_reponses: 8
RHS batch sizes
        8
Beginning Block Conjugate Gradient Iterations. Batch Number: 0
computing hessian-vector products by finite difference
              1      5.61e-01     00000 Conjugate Gradient Iteration
computing hessian-vector products by finite difference
              2      1.75e-01     00000 Conjugate Gradient Iteration
computing hessian-vector products by finite difference
              3      4.06e-02     00000 Conjugate Gradient Iteration
computing hessian-vector products by finite difference
              4      1.02e-02     00000 Conjugate Gradient Iteration
computing hessian-vector products by finite difference
              5      2.16e-03     00000 Conjugate Gradient Iteration
computing hessian-vector products by finite difference
              6      6.04e-04     00000 Conjugate Gradient Iteration
computing hessian-vector products by finite difference
              7      1.69e-04     00000 Conjugate Gradient Iteration
computing hessian-vector products by finite difference
              8      2.57e-05     00000 Conjugate Gradient Iteration
computing hessian-vector products by finite difference
              9      3.29e-06     00000 Conjugate Gradient Iteration
computing hessian-vector products by finite difference
             10      6.74e-07     00000 Conjugate Gradient Iteration
computing hessian-vector products by finite difference
             11      1.42e-07     00000 Conjugate Gradient Iteration
computing hessian-vector products by finite difference
             12      2.71e-08     00000 Conjugate Gradient Iteration
computing hessian-vector products by finite difference
             13      4.89e-09     00000 CG Converged
batch 0 complete
Done Calculating Responses
TESTING ORTHOGONALIZATION OF MULTIPOLE BASIS
Multipole virts passed orthogonality test
Virts Per Order
           75
          125

 --------------------------------------------------------------

                    Orbital Energies (a.u.)
 --------------------------------------------------------------

 Alpha MOs
 -- Occupied --
-10.2838 -10.2751 -10.2739 -10.2718 -10.2715 -10.2709 -10.2634  -0.9959
 -0.9063  -0.8787  -0.8132  -0.7308  -0.7059  -0.6299  -0.5733  -0.5687
 -0.5352  -0.5305  -0.5140  -0.4879  -0.4728  -0.4426  -0.4413  -0.3490
 -0.3383
 -- Virtual --
  0.0620   0.0634   0.0668   0.0789   0.0845   0.1043   0.1103   0.1136
  0.1353   0.1537   0.1658   0.1683   0.1855   0.1885   0.1945   0.2001
  0.2212   0.2237   0.2329   0.2381   0.2498   0.2582   0.2599   0.2678
  0.2790   0.2812   0.2872   0.2898   0.2929   0.2998   0.3030   0.3094
  0.3185   0.3244   0.3323   0.3369   0.3486   0.3513   0.3647   0.3725
  0.3766   0.3814   0.3831   0.3872   0.3892   0.4004   0.4022   0.4064
  0.4106   0.4276   0.4291   0.4353   0.4397   0.4468   0.4503   0.4518
  0.4631   0.4675   0.4720   0.4806   0.4916   0.4955   0.5098   0.5146
  0.5168   0.5233   0.5321   0.5376   0.5417   0.5468   0.5510   0.5644
  0.5832   0.5864   0.5932   0.5983   0.5988   0.6203   0.6394   0.6434
  0.6585   0.6760   0.6782   0.6859   0.6889   0.6919   0.7203   0.7225
  0.7290   0.7326   0.7434   0.7570   0.7633   0.7647   0.7774   0.7855
  0.7884   0.7924   0.7944   0.8023   0.8063   0.8211   0.8250   0.8290
  0.8321   0.8351   0.8413   0.8536   0.8581   0.8713   0.8858   0.8923
  0.9066   0.9134   0.9335   0.9428   0.9514   1.0086   1.0209   1.0358
  1.0437   1.0600   1.0715   1.0776   1.0899   1.0918   1.1001   1.1382
  1.1609   1.1772   1.2483   1.2768   1.2920   1.3214   1.3473   1.3494
  1.3770   1.4334   1.4477   1.4562   1.4628   1.4791   1.5213   1.5324
  1.5989   1.6032   1.6132   1.6223   1.6620   1.6743   1.7339   1.7772
  1.7879   1.7953   1.7969   1.8136   1.8259   1.8653   1.8857   1.9089
  1.9164   1.9203   1.9419   1.9598   1.9817   1.9919   2.0132   2.0238
  2.0291   2.0450   2.0658   2.0919   2.1110   2.1208   2.1703   2.1741
  2.1955   2.2285   2.2359   2.2675   2.2882   2.3096   2.3880   2.3955
  2.3998   2.4062   2.4785   2.5023   2.5331   2.5525   2.5587   2.6089
  2.6106   2.6202   2.6680   2.6733   2.6924   2.7038   2.7522   2.7666
  2.7822   2.8049   2.8152   2.8423   2.8544   2.8959   2.9033   2.9146
  2.9315   2.9373   2.9562   2.9725   2.9859   3.0168   3.0194   3.0467
  3.0591   3.0856   3.0946   3.1164   3.1760   3.1931   3.2008   3.2134
  3.2318   3.2371   3.2848   3.2944   3.3281   3.3519   3.3593   3.3737
  3.4011   3.4366   3.4455   3.4518   3.4570   3.4714   3.4863   3.4930
  3.5037   3.5300   3.5378   3.5386   3.5511   3.5603   3.5831   3.6006
  3.6158   3.6313   3.6479   3.6870   3.6991   3.7481   3.7741   3.8063
  3.8340   3.8842   3.9086   3.9400   3.9452   3.9882   4.0283   4.0469
  4.1135   4.1943   4.2636   4.2692   4.2837   4.3087   4.3250   4.3262
  4.3424   4.3614   4.3825   4.3894   4.4198   4.4375   4.4682   4.5214
  4.5863   4.6210   4.7339   4.7565   4.8174   4.8728   4.9030   4.9405
  5.0141   5.0412   5.1593   5.2574   5.3533   5.3704   5.4931   5.5234
  5.6625   5.8454  22.5746  22.6570  22.8781  22.8858  22.9941  23.0566
 23.3970
 --------------------------------------------------------------

          Ground-State Mulliken Net Atomic Charges

     Atom                 Charge (a.u.)
  ----------------------------------------
      1 C                    -1.037231
      2 C                    -0.350296
      3 C                     0.887509
      4 C                    -0.481042
      5 C                    -0.476528
      6 C                    -0.377823
      7 C                    -0.518912
      8 H                     0.333860
      9 H                     0.315309
     10 H                     0.260827
     11 H                     0.275292
     12 H                     0.328585
     13 H                     0.308247
     14 H                     0.315235
     15 H                     0.216969
  ----------------------------------------
  Sum of atomic charges =     0.000000

 -----------------------------------------------------------------
                    Cartesian Multipole Moments
 -----------------------------------------------------------------
    Charge (ESU x 10^10)
                -0.0000
    Dipole Moment (Debye)
         X      -0.1240      Y       0.3655      Z       0.2831
       Tot       0.4786
    Quadrupole Moments (Debye-Ang)
        XX     -41.2536     XY      -3.7582     YY     -40.3631
        XZ       2.1513     YZ       2.2118     ZZ     -40.5647
    Octopole Moments (Debye-Ang^2)
       XXX     368.6828    XXY      36.7923    XYY     125.3450
       YYY      49.6589    XXZ     -16.7288    XYZ      -8.4109
       YYZ      -6.7643    XZZ     118.5939    YZZ      15.2217
       ZZZ      -6.1390
    Hexadecapole Moments (Debye-Ang^3)
      XXXX   -2395.2631   XXXY    -174.1743   XXYY    -501.8512
      XYYY     -90.0054   YYYY    -500.7994   XXXZ      61.9800
      XXYZ      -6.9313   XYYZ      12.3844   YYYZ     -86.4145
      XXZZ    -430.5521   XYZZ     -18.9603   YYZZ    -134.9371
      XZZZ      -0.2387   YZZZ     -91.2533   ZZZZ    -314.6255
 -----------------------------------------------------------------
Archival summary:
1\1\compute-0-10.local\SP\ProcedureUnspecified\BasisUnspecified\78\meili\WedSep2905:53:542021WedSep2905:53:542021\0\\#,ProcedureUnspecified,BasisUnspecified,\\0,1\C\C,1,1.39701\H,2,1.07987,1,120.105\C,1,1.39728,2,119.183,3,-179.045,0\H,4,1.08086,1,120.011,2,179.091,0\C,4,1.39437,1,120.608,2,-0.784579,0\H,6,1.07894,4,120.331,1,178.985,0\C,6,1.39355,4,120.017,1,0.400697,0\H,8,1.08189,6,120.155,4,179.694,0\C,8,1.39701,6,119.85,4,-0.188299,0\H,10,1.08066,8,119.893,6,179.992,0\C,1,1.51002,2,120.677,3,-1.28952,0\H,12,1.09133,1,108.329,2,-38.406,0\H,12,1.09164,1,109.016,2,-154.627,0\H,12,1.1,1,114.192,2,82.7802,0\\\@

 Total job time:  12932.13s(wall), 79910.65s(cpu) 
 Wed Sep 29 05:53:54 2021

        *************************************************************
        *                                                           *
        *  Thank you very much for using Q-Chem.  Have a nice day.  *
        *                                                           *
        *************************************************************


Done Job For Fragment 0
calling putenv with: QCSCRATCH=/home/meili/scratch 
calling putenv with: QCTHREADS=8 
Creating input file /home/meili/scratch/qchem36906/Frg2.input
using default PutDataFrgm: nothing
calling putenv with: QCSCRATCH=/home/meili/scratch/qchem36906/ 
Spawning Job For Fragment 1
                  Welcome to Q-Chem
     A Quantum Leap Into The Future Of Chemistry


 Q-Chem 5.2 (devel), Q-Chem, Inc., Pleasanton, CA (2019)

 Yihan Shao,  Zhengting Gan,  E. Epifanovsky,  A. T. B. Gilbert,  M. Wormit,  
 J. Kussmann,  A. W. Lange,  A. Behn,  Jia Deng,  Xintian Feng,  D. Ghosh,  
 M. Goldey,  P. R. Horn,  L. D. Jacobson,  I. Kaliman,  T. Kus,  A. Landau,  
 Jie Liu,  E. I. Proynov,  R. M. Richard,  R. P. Steele,  E. J. Sundstrom,  
 H. L. Woodcock III,  P. M. Zimmerman,  D. Zuev,  B. Albrecht,  E. Alguire,  
 S. A. Baeppler,  D. Barton,  Z. Benda,  Y. A. Bernard,  E. J. Berquist,  
 K. B. Bravaya,  H. Burton,  D. Casanova,  Chun-Min Chang,  Yunqing Chen,  
 A. Chien,  K. D. Closser,  M. P. Coons,  S. Coriani,  S. Dasgupta,  
 A. L. Dempwolff,  M. Diedenhofen,  Hainam Do,  R. G. Edgar,  Po-Tung Fang,  
 S. Faraji,  S. Fatehi,  Qingguo Feng,  K. D. Fenk,  J. Fosso-Tande,  
 J. Gayvert,  Qinghui Ge,  A. Ghysels,  G. Gidofalvi,  J. Gomes,  
 J. Gonthier,  A. Gunina,  D. Hait,  M. W. D. Hanson-Heine,  
 P. H. P. Harbach,  A. W. Hauser,  M. F. Herbst,  J. E. Herr,  
 E. G. Hohenstein,  Z. C. Holden,  Kerwin Hui,  B. C. Huynh,  T.-C. Jagau,  
 Hyunjun Ji,  B. Kaduk,  K. Khistyaev,  Jaehoon Kim,  P. Klunzinger,  K. Koh,  
 D. Kosenkov,  L. Koulias,  T. Kowalczyk,  C. M. Krauter,  A. Kunitsa,  
 Ka Un Lao,  A. Laurent,  K. V. Lawler,  Joonho Lee,  D. Lefrancois,  
 S. Lehtola,  D. S. Levine,  Yi-Pei Li,  You-Sheng Lin,  Fenglai Liu,  
 E. Livshits,  A. Luenser,  P. Manohar,  E. Mansoor,  S. F. Manzer,  
 Shan-Ping Mao,  Yuezhi Mao,  N. Mardirossian,  A. V. Marenich,  
 T. Markovich,  L. A. Martinez-Martinez,  S. A. Maurer,  N. J. Mayhall,  
 S. C. McKenzie,  J.-M. Mewes,  P. Morgante,  A. F. Morrison,  
 J. W. Mullinax,  K. Nanda,  T. S. Nguyen-Beck,  R. Olivares-Amaya,  
 J. A. Parkhill,  Zheng Pei,  T. M. Perrine,  F. Plasser,  P. Pokhilko,  
 S. Prager,  A. Prociuk,  E. Ramos,  D. R. Rehn,  F. Rob,  M. Scheurer,  
 M. Schneider,  N. Sergueev,  S. M. Sharada,  S. Sharma,  D. W. Small,  
 T. Stauch,  T. Stein,  Yu-Chuan Su,  A. J. W. Thom,  A. Tkatchenko,  
 T. Tsuchimochi,  N. M. Tubman,  L. Vogt,  M. L. Vidal,  O. Vydrov,  
 M. A. Watson,  J. Wenzel,  M. de Wergifosse,  T. A. Wesolowski,  A. White,  
 J. Witte,  A. Yamada,  Jun Yang,  K. Yao,  S. Yeganeh,  S. R. Yost,  
 Zhi-Qiang You,  A. Zech,  Igor Ying Zhang,  Xing Zhang,  Yan Zhao,  
 Ying Zhu,  B. R. Brooks,  G. K. L. Chan,  C. J. Cramer,  M. S. Gordon,  
 W. J. Hehre,  A. Klamt,  M. W. Schmidt,  C. D. Sherrill,  D. G. Truhlar,  
 A. Aspuru-Guzik,  R. Baer,  A. T. Bell,  N. A. Besley,  Jeng-Da Chai,  
 A. E. DePrince, III,  R. A. DiStasio Jr.,  A. Dreuw,  B. D. Dunietz,  
 T. R. Furlani,  Chao-Ping Hsu,  Yousung Jung,  Jing Kong,  D. S. Lambrecht,  
 WanZhen Liang,  C. Ochsenfeld,  V. A. Rassolov,  L. V. Slipchenko,  
 J. E. Subotnik,  T. Van Voorhis,  J. M. Herbert,  A. I. Krylov,  
 P. M. W. Gill,  M. Head-Gordon

 Contributors to earlier versions of Q-Chem not listed above: 
 R. D. Adamson,  B. Austin,  J. Baker,  G. J. O. Beran,  K. Brandhorst,  
 S. T. Brown,  E. F. C. Byrd,  A. K. Chakraborty,  C.-L. Cheng,  
 Siu Hung Chien,  D. M. Chipman,  D. L. Crittenden,  H. Dachsel,  
 R. J. Doerksen,  A. D. Dutoi,  L. Fusti-Molnar,  W. A. Goddard III,  
 A. Golubeva-Zadorozhnaya,  S. R. Gwaltney,  G. Hawkins,  A. Heyden,  
 S. Hirata,  G. Kedziora,  F. J. Keil,  C. Kelley,  Jihan Kim,  R. A. King,  
 R. Z. Khaliullin,  P. P. Korambath,  W. Kurlancheek,  A. M. Lee,  M. S. Lee,  
 S. V. Levchenko,  Ching Yeh Lin,  D. Liotard,  R. C. Lochan,  I. Lotan,  
 P. E. Maslen,  N. Nair,  D. P. O'Neill,  D. Neuhauser,  E. Neuscamman,  
 C. M. Oana,  R. Olson,  B. Peters,  R. Peverati,  P. A. Pieniazek,  
 Y. M. Rhee,  J. Ritchie,  M. A. Rohrdanz,  E. Rosta,  N. J. Russ,  
 H. F. Schaefer III,  N. E. Schultz,  N. Shenvi,  A. C. Simmonett,  A. Sodt,  
 D. Stuck,  K. S. Thanthiriwatte,  V. Vanovschi,  Tao Wang,  A. Warshel,  
 C. F. Williams,  Q. Wu,  X. Xu,  W. Zhang

 Please cite Q-Chem as follows:
 Y. Shao et al., Mol. Phys. 113, 184-215 (2015)
 DOI: 10.1080/00268976.2014.952696

 Q-Chem 5.2.1 for Intel X86 EM64T Linux

 Parts of Q-Chem use Armadillo 8.300.2 (Tropical Shenanigans).
 http://arma.sourceforge.net/

 Q-Chem begins on Wed Sep 29 05:53:54 2021  

compute-0-10.local
Host: 0

     Scratch files written to /home/meili/scratch/qchem36906//Frg2//
NAlpha2: 58
NElect   58
Mult     1
Symmetry turned off for PCM/SM12/SMD calculation

Checking the input file for inconsistencies... 	...done.

--------------------------------------------------------------
User input:
--------------------------------------------------------------
$molecule
0 1
 6	4.1648698062	0.1628260895	-2.4647307332
 6	1.1438698062	0.4958260895	-0.1687307332
 6	1.7328698062	0.4718260895	1.0912692668
 6	1.9398698062	0.4138260895	-1.3077307332
 6	3.3288698062	0.2958260895	-1.2097307332
 6	3.1188698062	0.3578260895	1.2132692668
 6	3.9108698062	0.2568260895	0.0662692668
 8	0.9468698062	0.5568260895	2.2022692668
 1	0.0718698062	0.5808260895	-0.2587307332
 1	1.4668698062	0.4188260895	-2.2797307332
 1	3.5768698062	0.3308260895	2.1882692668
 1	1.4558698062	0.3128260895	2.9912692668
 1	3.5948698062	0.5438260895	-3.3127307332
 1	4.3318698062	-0.8991739105	-2.6327307332
 1	4.9768698062	0.1408260895	0.1852692668
 1	5.1362988062	0.6780860895	-2.4359047332
$end
$rem
EDA2		1
METHOD		WB97X-V
BASIS		DEF2-TZVPD
XC_GRID		000099000590
NL_GRID		1
UNRESTRICTED		FALSE
MAX_SCF_CYCLES		200
SYMMETRY		FALSE
SYM_IGNORE		TRUE
BASIS_LIN_DEP_THRESH		6
THRESH		14
SCF_CONVERGENCE		8
SCF_PRINT_FRGM		TRUE
SOLVENT_METHOD		PCM
!required keywords
JOBTYPE		SP
SYM_IGNORE		TRUE
SUBSYSTEM		TRUE
GEN_SCFMAN		TRUE
CHILD_INSTRUCTION		2
SYM_IGNORE		TRUE
SCFMI		0
RI_K 0		
PARI_K 0		
MIN_PARI_K 0		
IARI_K 0		
OCC_RI_K 0		
PURECART		1111
MEM_STATIC		2000
MEM_TOTAL		2000
GUI		0
CHILD_MP		1
CHILD_MP_ORDERS		232
FRZ_RELAX		0
FRZ_RELAX_METHOD		0
EDA_CLS_ELEC		1
EDA_CLS_DISP		0
FRZ_ORTHO_DECOMP		1
EDA2		FALSE
FRGM_METHOD		FALSE
CIS_N_ROOTS  0
LOCAL_CIS    0
CIS_RLX_DNS  1
$end
$pcm
THEORY                  CPCM
METHOD                  SWIG
SOLVER                  INVERSION
RADII                   UFF
HPOINTS                 302
HEAVYPOINTS             302
PRINTLEVEL              0
$end
$solvent
DIELECTRIC              78.390000 ! water
$end
--------------------------------------------------------------
 ----------------------------------------------------------------
             Standard Nuclear Orientation (Angstroms)
    I     Atom           X                Y                Z
 ----------------------------------------------------------------
    1      C       4.1648698062     0.1628260895    -2.4647307332
    2      C       1.1438698062     0.4958260895    -0.1687307332
    3      C       1.7328698062     0.4718260895     1.0912692668
    4      C       1.9398698062     0.4138260895    -1.3077307332
    5      C       3.3288698062     0.2958260895    -1.2097307332
    6      C       3.1188698062     0.3578260895     1.2132692668
    7      C       3.9108698062     0.2568260895     0.0662692668
    8      O       0.9468698062     0.5568260895     2.2022692668
    9      H       0.0718698062     0.5808260895    -0.2587307332
   10      H       1.4668698062     0.4188260895    -2.2797307332
   11      H       3.5768698062     0.3308260895     2.1882692668
   12      H       1.4558698062     0.3128260895     2.9912692668
   13      H       3.5948698062     0.5438260895    -3.3127307332
   14      H       4.3318698062    -0.8991739105    -2.6327307332
   15      H       4.9768698062     0.1408260895     0.1852692668
   16      H       5.1362988062     0.6780860895    -2.4359047332
 ----------------------------------------------------------------
 Nuclear Repulsion Energy =         342.45628095 hartrees
 There are       29 alpha and       29 beta electrons
 Requested basis set is def2-TZVPD
 There are 145 shells and 371 basis functions

 Total QAlloc Memory Limit   2000 MB
 Mega-Array Size      1956 MB
 MEM_STATIC part      2000 MB
 Discretize the solute cavity surface with Lebedev spheres
	Using 302 Lebedev grid points for each H atom
	Using 302 Lebedev grid points for other atoms
	Atomic van der Waals radii will be scaled by 1.20
 Remove points where switching function is < 1.0e-08
 Keep 1865 surface tesserae and discard 2967 interior tesserae
 Molecular Surface Area = 190.281 Angst**2
 A cutoff of  1.0D-14 yielded  10044 shell pairs
 There are     67088 function pairs (     85790 Cartesian)
 Smallest overlap matrix eigenvalue = 5.67E-07
 Linear dependence detected in AO basis
 Tighter screening thresholds may be required for diffuse basis sets
 Use S2THRESH > 14 and THRESH = 14 in case of SCF convergence issues
 Number of orthogonalized atomic orbitals = 370
 Maximum deviation from orthogonality = 1.289E-10

 Scale SEOQF with 1.000000e-02/1.000000e-01/1.000000e-01

 Standard Electronic Orientation quadrupole field applied
 Nucleus-field energy     =    -0.0000000140 hartrees
 Guess from superposition of atomic densities
 Warning:  Energy on first SCF cycle will be non-variational
 SAD guess density has 58.000000 electrons

 -----------------------------------------------------------------------
  General SCF calculation program by
  Eric Jon Sundstrom, Paul Horn, Yuezhi Mao, Dmitri Zuev, Alec White,
  David Stuck, Shaama M.S., Shane Yost, Joonho Lee, David Small,
  Daniel Levine, Susi Lehtola, Hugh Burton, Evgeny Epifanovsky,
  Bang C. Huynh
 -----------------------------------------------------------------------
 Exchange:     0.1670 Hartree-Fock + 1.0000 wB97X-V + LR-HF
 Correlation:  1.0000 wB97X-V
 Using Euler-Maclaurin-Lebedev (99,590) quadrature formula
 Nonlocal Correlation:  VV10 with C = 0.0100 and b = 6.00 and scale = 1.00000
 Grid used for NLC:  SG-1 standard quadrature
Energy prior to optimization (guess energy) = -346.732807087355
Begin Timing: Total SCF Calculation
begin iterations for algorithm: DIIS         
the SCF tolerance is set to 1.00e-08
    1    -346.7328070874      2.18e-03     00000 
    2    -346.7788427937      1.70e-03     00000 
    3    -346.8152109012      2.83e-04     00000 
    4    -346.8163358096      1.28e-04     00000 
    5    -346.8166113923      2.41e-05     00000 
    6    -346.8166235434      8.50e-06     00000 
    7    -346.8166251818      3.73e-06     00000 
    8    -346.8166255035      8.85e-07     00000 
    9    -346.8166255354      4.29e-07     00000 
   10    -346.8166255419      1.50e-07     00000 
   11    -346.8166255433      5.21e-08     00000 
   12    -346.8166255434      2.02e-08     00000 
   13    -346.8166255434      5.97e-09     00000 Convergence criterion met
Timing for Total SCF: 818.00s (wall), 5508.99s (cpu)

************** Final PCM Free Energy Summary **************
 G_electrostatic  =      -0.00563100 hartree =      -3.53350880 kcal/mol
 G_cavitation     =       0.00000000 hartree =       0.00000000 kcal/mol
 G_dispersion     =       0.00000000 hartree =       0.00000000 kcal/mol
 G_repulsion      =       0.00000000 hartree =       0.00000000 kcal/mol
 --------------------------------------------------
 Non-electrostatic Free Energy =       0.00000000 hartree =       0.00000000 kcal/mol
 Total                         =      -0.00563100 hartree =      -3.53350880 kcal/mol
 --------------------------------------------------
 SCF Energy (H0 + V/2)                       =    -346.81662554 
 Solute Internal Energy (H0)                 =    -346.81099454 
 Total Free Energy (H0 + V/2 + non-elec)     =    -346.81662554 hartree
                                             = -217630.71722876 kcal/mol
***********************************************************

E_pcm = -0.0056310047
Multipole orders to be included
        2
        3
computing dipole RHS
computing quadrupole RHS
total number of RHS in solve_reponses: 8
RHS batch sizes
        8
Beginning Block Conjugate Gradient Iterations. Batch Number: 0
computing hessian-vector products by finite difference
              1      6.10e-01     00000 Conjugate Gradient Iteration
computing hessian-vector products by finite difference
              2      1.99e-01     00000 Conjugate Gradient Iteration
computing hessian-vector products by finite difference
              3      5.08e-02     00000 Conjugate Gradient Iteration
computing hessian-vector products by finite difference
              4      1.55e-02     00000 Conjugate Gradient Iteration
computing hessian-vector products by finite difference
              5      4.09e-03     00000 Conjugate Gradient Iteration
computing hessian-vector products by finite difference
              6      1.42e-03     00000 Conjugate Gradient Iteration
computing hessian-vector products by finite difference
              7      3.63e-04     00000 Conjugate Gradient Iteration
computing hessian-vector products by finite difference
              8      7.08e-05     00000 Conjugate Gradient Iteration
computing hessian-vector products by finite difference
              9      1.35e-05     00000 Conjugate Gradient Iteration
computing hessian-vector products by finite difference
             10      1.86e-06     00000 Conjugate Gradient Iteration
computing hessian-vector products by finite difference
             11      2.66e-07     00000 Conjugate Gradient Iteration
computing hessian-vector products by finite difference
             12      4.66e-08     00000 Conjugate Gradient Iteration
computing hessian-vector products by finite difference
             13      1.08e-08     00000 Conjugate Gradient Iteration
computing hessian-vector products by finite difference
             14      3.50e-09     00000 CG Converged
batch 0 complete
Done Calculating Responses
TESTING ORTHOGONALIZATION OF MULTIPOLE BASIS
Multipole virts passed orthogonality test
Virts Per Order
           87
          145

 --------------------------------------------------------------

                    Orbital Energies (a.u.)
 --------------------------------------------------------------

 Alpha MOs
 -- Occupied --
-19.2459 -10.3353 -10.2791 -10.2762 -10.2749 -10.2734 -10.2711 -10.2623
 -1.1948  -0.9940  -0.9005  -0.8843  -0.8101  -0.7482  -0.7141  -0.6651
 -0.6018  -0.5813  -0.5530  -0.5403  -0.5346  -0.5231  -0.5092  -0.4787
 -0.4557  -0.4462  -0.4380  -0.3529  -0.3131
 -- Virtual --
  0.0575   0.0586   0.0682   0.0773   0.0830   0.0942   0.1083   0.1099
  0.1137   0.1312   0.1444   0.1511   0.1540   0.1687   0.1772   0.1914
  0.1999   0.2013   0.2177   0.2261   0.2304   0.2390   0.2483   0.2517
  0.2624   0.2645   0.2683   0.2729   0.2811   0.2919   0.2950   0.3017
  0.3043   0.3086   0.3142   0.3226   0.3330   0.3409   0.3430   0.3472
  0.3538   0.3578   0.3602   0.3700   0.3748   0.3785   0.3816   0.3882
  0.3928   0.3948   0.3974   0.4072   0.4112   0.4216   0.4242   0.4322
  0.4365   0.4516   0.4552   0.4576   0.4673   0.4716   0.4734   0.4803
  0.4850   0.4913   0.4981   0.5032   0.5074   0.5120   0.5235   0.5312
  0.5380   0.5474   0.5529   0.5589   0.5610   0.5693   0.5818   0.5902
  0.6016   0.6062   0.6182   0.6278   0.6365   0.6534   0.6661   0.6692
  0.6733   0.6814   0.6887   0.6921   0.6994   0.7008   0.7110   0.7277
  0.7331   0.7405   0.7422   0.7505   0.7563   0.7780   0.7805   0.7833
  0.7880   0.7917   0.7944   0.8028   0.8031   0.8091   0.8291   0.8344
  0.8408   0.8478   0.8543   0.8562   0.8687   0.8731   0.8816   0.8872
  0.8957   0.9137   0.9279   0.9473   0.9585   0.9654   0.9897   0.9992
  1.0156   1.0353   1.0439   1.0464   1.0509   1.0658   1.0700   1.0844
  1.0973   1.1179   1.1376   1.1644   1.1960   1.2345   1.2487   1.2895
  1.2991   1.3035   1.3284   1.3518   1.3543   1.3899   1.3907   1.4267
  1.4462   1.4637   1.4753   1.4791   1.5258   1.5566   1.5952   1.6140
  1.6239   1.6359   1.6756   1.6855   1.7021   1.7156   1.7832   1.7993
  1.8167   1.8203   1.8359   1.8536   1.8737   1.8864   1.9165   1.9268
  1.9382   1.9584   1.9738   1.9843   1.9990   2.0282   2.0347   2.0492
  2.0601   2.0667   2.0903   2.1065   2.1167   2.1483   2.1937   2.2041
  2.2144   2.2384   2.2603   2.2847   2.2887   2.3031   2.3480   2.3596
  2.3981   2.4019   2.4366   2.4562   2.4832   2.4951   2.5129   2.5535
  2.5816   2.6034   2.6168   2.6326   2.6589   2.6651   2.6965   2.7308
  2.7480   2.7594   2.7709   2.7902   2.8229   2.8293   2.8534   2.8716
  2.8951   2.9047   2.9350   2.9503   2.9534   2.9697   2.9731   3.0050
  3.0090   3.0253   3.0566   3.0840   3.0958   3.1338   3.1518   3.1572
  3.1896   3.1992   3.2148   3.2250   3.2403   3.2600   3.2719   3.2908
  3.3309   3.3461   3.3698   3.3801   3.3973   3.4163   3.4405   3.4547
  3.4610   3.4670   3.4890   3.5009   3.5097   3.5194   3.5260   3.5423
  3.5543   3.5695   3.5724   3.5882   3.6002   3.6229   3.6427   3.6691
  3.6864   3.6932   3.7386   3.7495   3.7919   3.8245   3.8293   3.8891
  3.9296   3.9435   3.9594   3.9875   4.0361   4.0888   4.1233   4.1437
  4.2432   4.2666   4.2779   4.2966   4.3058   4.3206   4.3364   4.3594
  4.3760   4.3841   4.4230   4.4508   4.4862   4.5450   4.5968   4.6213
  4.7191   4.7429   4.7740   4.8031   4.8562   4.9170   5.0171   5.0602
  5.0802   5.1153   5.1408   5.2984   5.3124   5.4223   5.4361   5.5256
  5.5921   5.6683   5.7140   5.7610   5.9522   6.1878   6.4678   6.5437
  6.6738   6.8761   6.9991   7.2929   7.4399  22.6569  22.6734  22.9286
 22.9862  23.0229  23.1639  23.4890  44.4128
 --------------------------------------------------------------

          Ground-State Mulliken Net Atomic Charges

     Atom                 Charge (a.u.)
  ----------------------------------------
      1 C                    -1.050499
      2 C                    -0.715984
      3 C                     0.787735
      4 C                    -0.413226
      5 C                     0.571666
      6 C                    -0.402405
      7 C                    -0.611928
      8 O                    -0.490673
      9 H                     0.328990
     10 H                     0.305335
     11 H                     0.279721
     12 H                     0.304622
     13 H                     0.273467
     14 H                     0.215325
     15 H                     0.340269
     16 H                     0.277585
  ----------------------------------------
  Sum of atomic charges =     0.000000

 -----------------------------------------------------------------
                    Cartesian Multipole Moments
 -----------------------------------------------------------------
    Charge (ESU x 10^10)
                -0.0000
    Dipole Moment (Debye)
         X       1.6368      Y      -0.6461      Z       0.4092
       Tot       1.8066
    Quadrupole Moments (Debye-Ang)
        XX     -39.1803     XY      -0.9978     YY     -52.1203
        XZ       4.0572     YZ      -1.1025     ZZ     -38.3597
    Octopole Moments (Debye-Ang^2)
       XXX    -327.3791    XXY     -19.0398    XYY    -133.7798
       YYY     -58.0978    XXZ      14.5915    XYZ       0.4832
       YYZ       5.1152    XZZ     -97.0270    YZZ     -17.7910
       ZZZ      43.2744
    Hexadecapole Moments (Debye-Ang^3)
      XXXX   -2202.1217   XXXY    -111.3003   XXYY    -453.3073
      XYYY    -126.1347   YYYY    -113.2274   XXXZ     208.5334
      XXYZ      -3.3368   XYYZ      63.0118   YYYZ     -11.9851
      XXZZ    -469.0646   XYZZ     -32.0865   YYZZ    -152.6104
      XZZZ     257.8624   YZZZ     -17.2384   ZZZZ    -640.2472
 -----------------------------------------------------------------
Archival summary:
1\1\compute-0-10.local\SP\ProcedureUnspecified\BasisUnspecified\178\meili\WedSep2910:04:462021WedSep2910:04:462021\0\\#,ProcedureUnspecified,BasisUnspecified,\\0,1\C\O,1,1.36358\H,2,0.970123,1,110.153\C,1,1.39108,2,119.528,3,166.227,0\H,4,1.07912,1,119.836,2,-0.0290785,0\C,4,1.392,1,119.868,2,179.795,0\H,6,1.08099,4,119.03,1,179.095,0\C,1,1.39602,2,120.409,3,-13.6023,0\H,8,1.07755,1,120.206,2,0.333874,0\C,6,1.39744,4,121.063,1,0.538511,0\C,8,1.39752,1,119.79,2,179.3,0\H,11,1.07888,8,118.502,1,-178.251,0\C,10,1.51381,6,119.881,4,177.992,0\H,13,1.0881,10,107.368,6,-95.2293,0\H,13,1.09049,10,108.985,6,20.9583,0\H,13,1.1,10,115.139,6,143.188,0\\\@

 Total job time:  15051.64s(wall), 103732.39s(cpu) 
 Wed Sep 29 10:04:46 2021

        *************************************************************
        *                                                           *
        *  Thank you very much for using Q-Chem.  Have a nice day.  *
        *                                                           *
        *************************************************************


Done Job For Fragment 1
calling putenv with: QCSCRATCH=/home/meili/scratch 
calling putenv with: QCTHREADS=8 
Doing General SCFMI
 Exchange:     0.1670 Hartree-Fock + 1.0000 wB97X-V + LR-HF
 Correlation:  1.0000 wB97X-V
 Using Euler-Maclaurin-Lebedev (99,590) quadrature formula
 Nonlocal Correlation:  VV10 with C = 0.0100 and b = 6.00 and scale = 1.00000
 Grid used for NLC:  SG-1 standard quadrature
performing fock build before subrot guess so that all methods have access
Printing subrot_rss_gen Method Specification:
Occupied Subspace Method is 0
Virtual Subspace Method is 0
Energy of the unrelaxed supersystem initial determinant -618.393064985514
performing fock build before subrot guess so that all methods have access
Printing subrot_rss_gen Method Specification:
Occupied Subspace Method is 0
Virtual Subspace Method is 0
Energy of the unrelaxed supersystem initial determinant w/ solvent -618.400181367357
write pseudocanon occs and virts to disk
write pseudocanon orbital energies to disk
Tolerance of ortho_decomp_scf: 1.00e-06
GDM subspace size: 20
Beginning the Orthogonal Decomposition of the Initial Supersystem Wavefunction
    1    -618.3739220270      2.30e-02     ortho_decomp Preconditoned Steepest Descent
    2    -618.3762190308      5.90e-04     ortho_decomp BFGS Step
    3    -618.3762270288      4.37e-05     ortho_decomp BFGS Step
    4    -618.3762270403      1.63e-06     ortho_decomp BFGS Step
    5    -618.3762270403      5.24e-08     ortho_decomp 00000 Convergence criterion met
 Hartree-Fock
 Hartree-Fock
 Hartree-Fock
Doing General SCFMI
 Exchange:     0.1670 Hartree-Fock + 1.0000 wB97X-V + LR-HF
 Correlation:  1.0000 wB97X-V
 Using Euler-Maclaurin-Lebedev (99,590) quadrature formula
 Nonlocal Correlation:  VV10 with C = 0.0100 and b = 6.00 and scale = 1.00000
 Grid used for NLC:  SG-1 standard quadrature
performing fock build at end of subrot_r(subrot) constructor so that all methods have access
<S^2> of initial wavefunction before polarization iterations 0.0000000000
Beginning iterations for the determination of the polarized wavefunction
Energy prior to optimization (guess energy) = -618.400181367357
Begin Timing: Total SCF Calculation
begin iterations for algorithm: DIIS         
the SCF tolerance is set to 1.00e-08
    1    -618.4001813674      3.89e-05     00000 
    2    -618.4003431010      1.98e-05     00000 
    3    -618.4003654942      1.06e-05     00000 
    4    -618.4003734691      2.33e-06     00000 
    5    -618.4003740626      1.26e-06     00000 
    6    -618.4003741949      4.90e-07     00000 
    7    -618.4003742164      2.23e-07     00000 
    8    -618.4003742200      1.02e-07     00000 
    9    -618.4003742207      3.89e-08     00000 
   10    -618.4003742208      1.93e-08     00000 
   11    -618.4003742208      7.44e-09     00000 Convergence criterion met
write pseudocanon occs and virts to disk
write pseudocanon orbital energies to disk
Timing for Total SCF: 4173.00s (wall), 29005.54s (cpu)
<S^2> of polarized wavefunction after polarization iterations 0.0000000000
relaxing scfmi constraint to allow all rotations in the entire AO span
Doing General SCFMI
 Exchange:     0.1670 Hartree-Fock + 1.0000 wB97X-V + LR-HF
 Correlation:  1.0000 wB97X-V
 Using Euler-Maclaurin-Lebedev (99,590) quadrature formula
 Nonlocal Correlation:  VV10 with C = 0.0100 and b = 6.00 and scale = 1.00000
 Grid used for NLC:  SG-1 standard quadrature
performing fock build at end of subrot_r(subrot) constructor so that all methods have access
<S^2> of polarized wavefunction before ct-allowed iterations 0.0000000000
Beginning iterations for the determination of the CT-Allowed wavefunction
Energy prior to optimization (guess energy) = -618.400374220798
Begin Timing: Total SCF Calculation
begin iterations for algorithm: DIIS         
the SCF tolerance is set to 1.00e-08
    1    -618.4003742208      5.33e-05     00000 
    2    -618.4010764522      5.65e-06     00000 
    3    -618.4010987220      1.04e-06     00000 
    4    -618.4010994129      7.53e-07     00000 
    5    -618.4010995172      1.12e-07     00000 
    6    -618.4010995229      4.44e-08     00000 
    7    -618.4010995236      1.21e-08     00000 
    8    -618.4010995236      4.15e-09     00000 Convergence criterion met
write pseudocanon occs and virts to disk
write pseudocanon orbital energies to disk
Timing for Total SCF: 3106.00s (wall), 21330.14s (cpu)
<S^2> of ct_allowed wavefunction after ct-allowed iterations 0.0000000000

================================
        Results of EDA2         
================================
Basic EDA Quantities
--------------------
Fragment Energies (Ha):
1 -271.5816568711
2 -346.8166255434
--------------------
  E_prp (kJ/mol) = 0.0000
  E_sol (kJ/mol) = 2.7303
  E_frz (kJ/mol) = -7.7160
  E_pol (kJ/mol) = -0.5063
  E_vct (kJ/mol) = -1.9043
  E_int (kJ/mol) = -7.3964
--------------------


Initial Wavefunction Decomposition
--------------------
  --------------------
  Orthogonal Fragment Subspace Decomposition:
  --------------------
     E_elec   (ELEC)   (kJ/mol) = -21.6380
     E_pauli  (PAULI)  (kJ/mol) = 28.4287
     E_disp   (DISP)   (kJ/mol) = -14.5067
     --------------------
     Terms summing to E_pauli:
     --------------------
        E_kep_pauli       (kJ/mol) = 36.4925
        E_disp_free_pauli (kJ/mol) = -8.0638
  --------------------
  Classical Frozen Decomposition:
  --------------------
     E_cls_elec  (CLS ELEC)  (kJ/mol) = -8.7557
     E_cls_pauli (CLS PAULI) (kJ/mol) = 1.0397
    [E_mod_pauli (MOD PAULI) (kJ/mol) = 15.5464 (CLS PAULI - DISP from orthogonal decomposition) ]
  --------------------
--------------------

Simplified EDA Summary (kJ/mol)
--------------------
 PREPARATION     0.0000
 SOLVATION       2.7303
 FROZEN          6.7907      (does not include dispersion)
[PAULI           28.4287]     (if this is negligible, then frozen describes electrostatics)
 DISPERSION      -14.5067
 POLARIZATION    -0.5063
 CHARGE TRANSFER -1.9043
 TOTAL           -7.3964     (PRP + SOL + FRZ + DISP + POL + CT)
--------------------

 --------------------------------------------------------------

                    Orbital Energies (a.u.)
 --------------------------------------------------------------

 Alpha MOs
 -- Occupied --
-19.2453 -10.3342 -10.2826 -10.2784 -10.2754 -10.2738 -10.2737 -10.2732
-10.2727 -10.2711 -10.2703 -10.2689 -10.2687 -10.2630 -10.2619  -1.1941
 -0.9950  -0.9930  -0.9055  -0.8997  -0.8834  -0.8774  -0.8125  -0.8094
 -0.7473  -0.7296  -0.7131  -0.7048  -0.6644  -0.6289  -0.6011  -0.5807
 -0.5723  -0.5674  -0.5522  -0.5398  -0.5371  -0.5314  -0.5294  -0.5226
 -0.5135  -0.5078  -0.4872  -0.4780  -0.4722  -0.4550  -0.4451  -0.4420
 -0.4408  -0.4350  -0.3534  -0.3458  -0.3375  -0.3122
 -- Virtual --
  0.0531   0.0572   0.0624   0.0647   0.0675   0.0690   0.0733   0.0830
  0.0881   0.0940   0.0960   0.1030   0.1042   0.1119   0.1206   0.1254
  0.1307   0.1362   0.1453   0.1518   0.1519   0.1589   0.1671   0.1690
  0.1768   0.1788   0.1845   0.1905   0.1954   0.1990   0.2050   0.2082
  0.2095   0.2198   0.2259   0.2265   0.2328   0.2365   0.2423   0.2433
  0.2462   0.2521   0.2532   0.2588   0.2606   0.2684   0.2696   0.2730
  0.2751   0.2760   0.2797   0.2845   0.2859   0.2906   0.2934   0.2952
  0.2972   0.3007   0.3064   0.3115   0.3149   0.3167   0.3234   0.3250
  0.3290   0.3319   0.3326   0.3366   0.3386   0.3456   0.3463   0.3509
  0.3515   0.3545   0.3583   0.3620   0.3637   0.3669   0.3721   0.3729
  0.3785   0.3816   0.3830   0.3861   0.3875   0.3899   0.3912   0.3953
  0.3996   0.4018   0.4046   0.4084   0.4102   0.4147   0.4165   0.4194
  0.4221   0.4274   0.4283   0.4348   0.4366   0.4435   0.4464   0.4502
  0.4515   0.4553   0.4571   0.4575   0.4652   0.4661   0.4681   0.4707
  0.4715   0.4757   0.4792   0.4811   0.4875   0.4901   0.4908   0.4962
  0.5009   0.5040   0.5069   0.5118   0.5146   0.5188   0.5212   0.5228
  0.5276   0.5300   0.5344   0.5375   0.5419   0.5424   0.5523   0.5528
  0.5564   0.5579   0.5668   0.5743   0.5780   0.5820   0.5835   0.5909
  0.5919   0.5953   0.6004   0.6065   0.6096   0.6169   0.6219   0.6271
  0.6296   0.6328   0.6373   0.6390   0.6490   0.6507   0.6639   0.6673
  0.6711   0.6775   0.6797   0.6816   0.6850   0.6889   0.6933   0.6946
  0.6997   0.7065   0.7120   0.7157   0.7180   0.7280   0.7287   0.7344
  0.7421   0.7451   0.7475   0.7488   0.7532   0.7587   0.7610   0.7634
  0.7689   0.7713   0.7761   0.7775   0.7804   0.7861   0.7875   0.7915
  0.7929   0.7947   0.8006   0.8027   0.8067   0.8069   0.8125   0.8160
  0.8175   0.8215   0.8257   0.8272   0.8330   0.8375   0.8389   0.8428
  0.8457   0.8497   0.8553   0.8579   0.8621   0.8641   0.8685   0.8725
  0.8769   0.8801   0.8855   0.8860   0.8967   0.8979   0.9049   0.9064
  0.9108   0.9175   0.9240   0.9285   0.9381   0.9419   0.9518   0.9529
  0.9616   0.9679   0.9689   0.9802   0.9888   0.9937   1.0000   1.0142
  1.0221   1.0279   1.0321   1.0390   1.0488   1.0570   1.0633   1.0715
  1.0720   1.0810   1.0919   1.0930   1.1026   1.1057   1.1114   1.1139
  1.1237   1.1372   1.1449   1.1578   1.1633   1.1681   1.1864   1.1972
  1.2148   1.2323   1.2471   1.2568   1.2600   1.2772   1.2841   1.2967
  1.3086   1.3261   1.3328   1.3419   1.3541   1.3594   1.3639   1.3717
  1.3896   1.3976   1.4127   1.4185   1.4210   1.4320   1.4547   1.4605
  1.4718   1.4826   1.4931   1.4979   1.4995   1.5083   1.5197   1.5335
  1.5394   1.5441   1.5573   1.5712   1.6044   1.6092   1.6267   1.6311
  1.6374   1.6456   1.6548   1.6597   1.6881   1.6991   1.7072   1.7236
  1.7350   1.7546   1.7804   1.7882   1.7953   1.8045   1.8144   1.8159
  1.8283   1.8397   1.8483   1.8504   1.8650   1.8846   1.8968   1.9078
  1.9109   1.9282   1.9343   1.9390   1.9507   1.9525   1.9571   1.9648
  1.9679   1.9811   1.9888   1.9996   2.0078   2.0222   2.0308   2.0333
  2.0392   2.0434   2.0480   2.0622   2.0711   2.0736   2.0766   2.0855
  2.0930   2.0988   2.1129   2.1237   2.1309   2.1507   2.1556   2.1636
  2.1724   2.1859   2.1903   2.2015   2.2150   2.2352   2.2418   2.2495
  2.2538   2.2684   2.2776   2.2878   2.3035   2.3120   2.3255   2.3300
  2.3399   2.3638   2.3756   2.3968   2.4069   2.4136   2.4159   2.4228
  2.4391   2.4452   2.4606   2.4698   2.4971   2.5037   2.5193   2.5305
  2.5536   2.5649   2.5693   2.5784   2.5916   2.6021   2.6171   2.6241
  2.6261   2.6411   2.6438   2.6587   2.6685   2.6854   2.6891   2.6969
  2.7152   2.7163   2.7375   2.7483   2.7604   2.7695   2.7739   2.7803
  2.7947   2.7991   2.8095   2.8183   2.8385   2.8410   2.8478   2.8525
  2.8680   2.8793   2.9001   2.9053   2.9173   2.9227   2.9371   2.9425
  2.9504   2.9552   2.9599   2.9645   2.9698   2.9833   2.9883   2.9959
  2.9986   3.0133   3.0251   3.0300   3.0384   3.0538   3.0584   3.0724
  3.0771   3.0881   3.1044   3.1068   3.1105   3.1247   3.1422   3.1637
  3.1685   3.1721   3.1979   3.2049   3.2130   3.2252   3.2269   3.2373
  3.2429   3.2562   3.2632   3.2762   3.2810   3.2885   3.2889   3.3137
  3.3209   3.3401   3.3477   3.3568   3.3588   3.3737   3.3835   3.3942
  3.4000   3.4039   3.4126   3.4210   3.4327   3.4482   3.4544   3.4610
  3.4662   3.4685   3.4732   3.4782   3.4882   3.4960   3.5013   3.5083
  3.5144   3.5211   3.5277   3.5328   3.5416   3.5478   3.5551   3.5573
  3.5653   3.5677   3.5722   3.5846   3.5885   3.5955   3.5996   3.6029
  3.6123   3.6224   3.6352   3.6381   3.6451   3.6476   3.6573   3.6690
  3.6823   3.6950   3.6964   3.7014   3.7099   3.7157   3.7195   3.7618
  3.7870   3.8037   3.8269   3.8342   3.8499   3.8520   3.8923   3.8964
  3.9198   3.9391   3.9507   3.9551   3.9603   3.9760   3.9993   4.0238
  4.0356   4.0504   4.0750   4.0999   4.1252   4.1348   4.1571   4.2066
  4.2579   4.2748   4.2825   4.2855   4.2948   4.2990   4.3059   4.3184
  4.3193   4.3328   4.3353   4.3448   4.3474   4.3505   4.3644   4.3692
  4.3891   4.3948   4.4047   4.4140   4.4337   4.4369   4.4523   4.4666
  4.4862   4.4945   4.5321   4.5596   4.6044   4.6065   4.6316   4.6341
  4.7249   4.7416   4.7539   4.7696   4.7841   4.8173   4.8277   4.8637
  4.8832   4.9274   4.9353   4.9551   5.0227   5.0320   5.0605   5.0726
  5.0905   5.1264   5.1633   5.1823   5.2668   5.3084   5.3184   5.3582
  5.3695   5.4304   5.4462   5.5005   5.5175   5.5316   5.6059   5.6705
  5.6870   5.7354   5.7577   5.8150   5.9692   6.2096   6.4661   6.5731
  6.7113   6.8964   7.0401   7.3195   7.4622  22.6507  22.6596  22.7023
 22.7241  22.9127  22.9247  22.9580  23.0031  23.0279  23.0500  23.0872
 23.1813  23.4133  23.5037  44.4573
 --------------------------------------------------------------

          Ground-State Mulliken Net Atomic Charges

     Atom                 Charge (a.u.)
  ----------------------------------------
      1 C                    -1.112475
      2 C                    -0.390791
      3 C                     0.829610
      4 C                    -0.368494
      5 C                    -0.458036
      6 C                    -0.382671
      7 C                    -0.497444
      8 H                     0.285733
      9 H                     0.310074
     10 H                     0.251525
     11 H                     0.299515
     12 H                     0.352849
     13 H                     0.346661
     14 H                     0.329201
     15 H                     0.213834
     16 C                    -1.131748
     17 C                    -0.406335
     18 C                     0.655171
     19 C                    -0.648925
     20 C                     0.510528
     21 C                    -0.519627
     22 C                    -0.499584
     23 O                    -0.457085
     24 H                     0.424179
     25 H                     0.321902
     26 H                     0.297652
     27 H                     0.295287
     28 H                     0.283705
     29 H                     0.221543
     30 H                     0.362325
     31 H                     0.281921
  ----------------------------------------
  Sum of atomic charges =     0.000000

 -----------------------------------------------------------------
                    Cartesian Multipole Moments
 -----------------------------------------------------------------
    Charge (ESU x 10^10)
                 0.0000
    Dipole Moment (Debye)
         X       1.5009      Y      -0.2787      Z       0.7956
       Tot       1.7215
    Quadrupole Moments (Debye-Ang)
        XX     -81.3227     XY      -4.8572     YY     -92.7065
        XZ       6.1158     YZ       1.0785     ZZ     -79.0625
    Octopole Moments (Debye-Ang^2)
       XXX      41.4457    XXY      17.8163    XYY      -8.1343
       YYY      -8.2866    XXZ      -1.7877    XYZ      -7.8516
       YYZ      -1.6312    XZZ      21.3741    YZZ      -2.5642
       ZZZ      37.5576
    Hexadecapole Moments (Debye-Ang^3)
      XXXX   -4614.0968   XXXY    -286.5510   XXYY    -957.3533
      XYYY    -216.8467   YYYY    -616.0162   XXXZ     270.4779
      XXYZ     -10.5780   XYYZ      75.4667   YYYZ     -98.5552
      XXZZ    -902.4406   XYZZ     -51.3710   YYZZ    -288.1834
      XZZZ     257.4012   YZZZ    -108.7367   ZZZZ    -956.6433
 -----------------------------------------------------------------
Archival summary:
1\1\compute-0-10.local\SP\ProcedureUnspecified\BasisUnspecified\11416\meili\WedSep2913:44:222021WedSep2913:44:222021\0\\#,ProcedureUnspecified,BasisUnspecified,\\0,1\O\H,1,0.970123\C,1,1.36358,2,110.153\C,3,1.39108,1,119.528,2,166.227,0\H,4,1.07912,3,119.836,1,-0.0290785,0\C,4,1.392,3,119.868,1,179.795,0\H,6,1.08099,4,119.03,3,179.095,0\C,3,1.39602,1,120.409,2,-13.6023,0\H,8,1.07755,3,120.206,1,0.333874,0\C,6,1.39744,4,121.063,3,0.538511,0\C,8,1.39752,3,119.79,1,179.3,0\H,11,1.07888,8,118.502,3,-178.251,0\C,10,1.51381,6,119.881,4,177.992,0\H,13,1.0881,10,107.368,6,-95.2293,0\H,13,1.09049,10,108.985,6,20.9583,0\H,13,1.1,10,115.139,6,143.188,0\H,1,2.71758,2,120.716,3,138.117,0\C,17,1.07987,1,129.676,2,-149.57,0\C,18,1.39701,17,120.105,1,-105.827,0\C,19,1.39728,18,119.183,17,-179.045,0\H,20,1.08086,19,120.011,18,179.091,0\C,20,1.39437,19,120.608,18,-0.784579,0\H,22,1.07894,20,120.331,19,178.985,0\C,22,1.39355,20,120.017,19,0.400697,0\H,24,1.08189,22,120.155,20,179.694,0\C,24,1.39701,22,119.85,20,-0.188299,0\H,26,1.08066,24,119.893,22,179.992,0\C,19,1.51002,18,120.677,17,-1.28952,0\H,28,1.09133,19,108.329,18,-38.406,0\H,28,1.09164,19,109.016,18,-154.627,0\H,28,1.1,19,114.192,18,82.7802,0\\\@

 Total job time:  41166.85s(wall), 95371.87s(cpu) 
 Wed Sep 29 13:44:22 2021

        *************************************************************
        *                                                           *
        *  Thank you very much for using Q-Chem.  Have a nice day.  *
        *                                                           *
        *************************************************************


