                  Welcome to Q-Chem
     A Quantum Leap Into The Future Of Chemistry


 Q-Chem 5.2 (devel), Q-Chem, Inc., Pleasanton, CA (2019)

 Yihan Shao,  Zhengting Gan,  E. Epifanovsky,  A. T. B. Gilbert,  M. Wormit,  
 J. Kussmann,  A. W. Lange,  A. Behn,  Jia Deng,  Xintian Feng,  D. Ghosh,  
 M. Goldey,  P. R. Horn,  L. D. Jacobson,  I. Kaliman,  T. Kus,  A. Landau,  
 Jie Liu,  E. I. Proynov,  R. M. Richard,  R. P. Steele,  E. J. Sundstrom,  
 H. L. Woodcock III,  P. M. Zimmerman,  D. Zuev,  B. Albrecht,  E. Alguire,  
 S. A. Baeppler,  D. Barton,  Z. Benda,  Y. A. Bernard,  E. J. Berquist,  
 K. B. Bravaya,  H. Burton,  D. Casanova,  Chun-Min Chang,  Yunqing Chen,  
 A. Chien,  K. D. Closser,  M. P. Coons,  S. Coriani,  S. Dasgupta,  
 A. L. Dempwolff,  M. Diedenhofen,  Hainam Do,  R. G. Edgar,  Po-Tung Fang,  
 S. Faraji,  S. Fatehi,  Qingguo Feng,  K. D. Fenk,  J. Fosso-Tande,  
 J. Gayvert,  Qinghui Ge,  A. Ghysels,  G. Gidofalvi,  J. Gomes,  
 J. Gonthier,  A. Gunina,  D. Hait,  M. W. D. Hanson-Heine,  
 P. H. P. Harbach,  A. W. Hauser,  M. F. Herbst,  J. E. Herr,  
 E. G. Hohenstein,  Z. C. Holden,  Kerwin Hui,  B. C. Huynh,  T.-C. Jagau,  
 Hyunjun Ji,  B. Kaduk,  K. Khistyaev,  Jaehoon Kim,  P. Klunzinger,  K. Koh,  
 D. Kosenkov,  L. Koulias,  T. Kowalczyk,  C. M. Krauter,  A. Kunitsa,  
 Ka Un Lao,  A. Laurent,  K. V. Lawler,  Joonho Lee,  D. Lefrancois,  
 S. Lehtola,  D. S. Levine,  Yi-Pei Li,  You-Sheng Lin,  Fenglai Liu,  
 E. Livshits,  A. Luenser,  P. Manohar,  E. Mansoor,  S. F. Manzer,  
 Shan-Ping Mao,  Yuezhi Mao,  N. Mardirossian,  A. V. Marenich,  
 T. Markovich,  L. A. Martinez-Martinez,  S. A. Maurer,  N. J. Mayhall,  
 S. C. McKenzie,  J.-M. Mewes,  P. Morgante,  A. F. Morrison,  
 J. W. Mullinax,  K. Nanda,  T. S. Nguyen-Beck,  R. Olivares-Amaya,  
 J. A. Parkhill,  Zheng Pei,  T. M. Perrine,  F. Plasser,  P. Pokhilko,  
 S. Prager,  A. Prociuk,  E. Ramos,  D. R. Rehn,  F. Rob,  M. Scheurer,  
 M. Schneider,  N. Sergueev,  S. M. Sharada,  S. Sharma,  D. W. Small,  
 T. Stauch,  T. Stein,  Yu-Chuan Su,  A. J. W. Thom,  A. Tkatchenko,  
 T. Tsuchimochi,  N. M. Tubman,  L. Vogt,  M. L. Vidal,  O. Vydrov,  
 M. A. Watson,  J. Wenzel,  M. de Wergifosse,  T. A. Wesolowski,  A. White,  
 J. Witte,  A. Yamada,  Jun Yang,  K. Yao,  S. Yeganeh,  S. R. Yost,  
 Zhi-Qiang You,  A. Zech,  Igor Ying Zhang,  Xing Zhang,  Yan Zhao,  
 Ying Zhu,  B. R. Brooks,  G. K. L. Chan,  C. J. Cramer,  M. S. Gordon,  
 W. J. Hehre,  A. Klamt,  M. W. Schmidt,  C. D. Sherrill,  D. G. Truhlar,  
 A. Aspuru-Guzik,  R. Baer,  A. T. Bell,  N. A. Besley,  Jeng-Da Chai,  
 A. E. DePrince, III,  R. A. DiStasio Jr.,  A. Dreuw,  B. D. Dunietz,  
 T. R. Furlani,  Chao-Ping Hsu,  Yousung Jung,  Jing Kong,  D. S. Lambrecht,  
 WanZhen Liang,  C. Ochsenfeld,  V. A. Rassolov,  L. V. Slipchenko,  
 J. E. Subotnik,  T. Van Voorhis,  J. M. Herbert,  A. I. Krylov,  
 P. M. W. Gill,  M. Head-Gordon

 Contributors to earlier versions of Q-Chem not listed above: 
 R. D. Adamson,  B. Austin,  J. Baker,  G. J. O. Beran,  K. Brandhorst,  
 S. T. Brown,  E. F. C. Byrd,  A. K. Chakraborty,  C.-L. Cheng,  
 Siu Hung Chien,  D. M. Chipman,  D. L. Crittenden,  H. Dachsel,  
 R. J. Doerksen,  A. D. Dutoi,  L. Fusti-Molnar,  W. A. Goddard III,  
 A. Golubeva-Zadorozhnaya,  S. R. Gwaltney,  G. Hawkins,  A. Heyden,  
 S. Hirata,  G. Kedziora,  F. J. Keil,  C. Kelley,  Jihan Kim,  R. A. King,  
 R. Z. Khaliullin,  P. P. Korambath,  W. Kurlancheek,  A. M. Lee,  M. S. Lee,  
 S. V. Levchenko,  Ching Yeh Lin,  D. Liotard,  R. C. Lochan,  I. Lotan,  
 P. E. Maslen,  N. Nair,  D. P. O'Neill,  D. Neuhauser,  E. Neuscamman,  
 C. M. Oana,  R. Olson,  B. Peters,  R. Peverati,  P. A. Pieniazek,  
 Y. M. Rhee,  J. Ritchie,  M. A. Rohrdanz,  E. Rosta,  N. J. Russ,  
 H. F. Schaefer III,  N. E. Schultz,  N. Shenvi,  A. C. Simmonett,  A. Sodt,  
 D. Stuck,  K. S. Thanthiriwatte,  V. Vanovschi,  Tao Wang,  A. Warshel,  
 C. F. Williams,  Q. Wu,  X. Xu,  W. Zhang

 Please cite Q-Chem as follows:
 Y. Shao et al., Mol. Phys. 113, 184-215 (2015)
 DOI: 10.1080/00268976.2014.952696

 Q-Chem 5.2.1 for Intel X86 EM64T Linux

 Parts of Q-Chem use Armadillo 8.300.2 (Tropical Shenanigans).
 http://arma.sourceforge.net/

 Q-Chem begins on Fri Oct  1 11:13:46 2021  

compute-0-1.local
Host: 0

     Scratch files written to /home/meili/scratch/qchem48785//
NAlpha2: 116
NElect   116
Mult     1
Symmetry turned off for PCM/SM12/SMD calculation

 Q-Chem warning in module libgen/rem_setup.C, line 2813:

 Neither GIA nor STOLL is specified by user. Use STOLL as the default


Checking the input file for inconsistencies... 	...done.

--------------------------------------------------------------
User input:
--------------------------------------------------------------
$comment
SSI-053TYR-092TYR-1.pdb
$end

$molecule
0 1
--
0 1
C    1.496924689442    2.535337294727    2.538261753482
C    1.897924689442    0.427337294727    1.213261753482
C    2.071924689442    1.800337294727    1.346261753482
C    2.509924689442   -0.246662705273    0.206261753482
C    2.848924689442    2.487337294727    0.399261753482
C    3.303924689442    0.450337294727   -0.714738246518
C    3.446924689442    1.813337294727   -0.654738246518
O    3.891924689442   -0.200662705273   -1.712738246518
H    1.128924689442   -0.060662705273    1.768261753482
H    2.348924689442   -1.306662705273    0.075261753482
H    0.672924689442    1.975337294727    2.984261753482
H    1.134924689442    3.514337294727    2.219261753482
H    2.991924689442    3.555337294727    0.497261753482
H    4.034924689442    2.347337294727   -1.386738246518
H    4.035924689442    0.385337294727   -2.492738246518
H    2.316074689442    2.656027294727    3.262431753482
--
0 1
C   -4.014075310558   -1.816662705273   -2.822738246518
C   -1.359075310558   -0.742662705273   -0.294738246518
C   -2.076075310558   -0.797662705273    0.877261753482
C   -1.973075310558   -1.081662705273   -1.509738246518
C   -3.311075310558   -1.476662705273   -1.534738246518
C   -3.389075310558   -1.157662705273    0.851261753482
C   -4.015075310558   -1.482662705273   -0.340738246518
O   -1.540075310558   -0.482662705273    2.102261753482
H   -0.324075310558   -0.439662705273   -0.272738246518
H   -1.403075310558   -1.040662705273   -2.427738246518
H   -3.950075310558   -1.079662705273    1.758261753482
H   -2.196075310558   -0.628662705273    2.814261753482
H   -4.469075310558   -2.800662705273   -2.701738246518
H   -3.289075310558   -1.881662705273   -3.633738246518
H   -5.067075310558   -1.740662705273   -0.335738246518
H   -4.797541310558   -1.084232705273   -3.067118246518
$end

$rem
JOBTYPE			EDA
EDA2			1
method			wB97X-V
BASIS			def2-TZVPD
XC_GRID			000099000590
NL_GRID			1
UNRESTRICTED		FALSE
MAX_SCF_CYCLES		200
SYMMETRY		FALSE
SYM_IGNORE		TRUE
MEM_STATIC		2000
BASIS_LIN_DEP_THRESH 	6
THRESH 			14
SCF_CONVERGENCE 	8
SCF_PRINT_FRGM 		TRUE
SOLVENT_METHOD          PCM
$end

$PCM
THEORY                  CPCM
METHOD                  SWIG
SOLVER                  INVERSION
RADII                   UFF
HPOINTS                 302
HEAVYPOINTS             302
PRINTLEVEL              0
$END

$SOLVENT
DIELECTRIC              78.390000 ! water
$END
--------------------------------------------------------------
 ----------------------------------------------------------------
             Standard Nuclear Orientation (Angstroms)
    I     Atom           X                Y                Z
 ----------------------------------------------------------------
    1      C       1.4969246894     2.5353372947     2.5382617535
    2      C       1.8979246894     0.4273372947     1.2132617535
    3      C       2.0719246894     1.8003372947     1.3462617535
    4      C       2.5099246894    -0.2466627053     0.2062617535
    5      C       2.8489246894     2.4873372947     0.3992617535
    6      C       3.3039246894     0.4503372947    -0.7147382465
    7      C       3.4469246894     1.8133372947    -0.6547382465
    8      O       3.8919246894    -0.2006627053    -1.7127382465
    9      H       1.1289246894    -0.0606627053     1.7682617535
   10      H       2.3489246894    -1.3066627053     0.0752617535
   11      H       0.6729246894     1.9753372947     2.9842617535
   12      H       1.1349246894     3.5143372947     2.2192617535
   13      H       2.9919246894     3.5553372947     0.4972617535
   14      H       4.0349246894     2.3473372947    -1.3867382465
   15      H       4.0359246894     0.3853372947    -2.4927382465
   16      H       2.3160746894     2.6560272947     3.2624317535
   17      C      -4.0140753106    -1.8166627053    -2.8227382465
   18      C      -1.3590753106    -0.7426627053    -0.2947382465
   19      C      -2.0760753106    -0.7976627053     0.8772617535
   20      C      -1.9730753106    -1.0816627053    -1.5097382465
   21      C      -3.3110753106    -1.4766627053    -1.5347382465
   22      C      -3.3890753106    -1.1576627053     0.8512617535
   23      C      -4.0150753106    -1.4826627053    -0.3407382465
   24      O      -1.5400753106    -0.4826627053     2.1022617535
   25      H      -0.3240753106    -0.4396627053    -0.2727382465
   26      H      -1.4030753106    -1.0406627053    -2.4277382465
   27      H      -3.9500753106    -1.0796627053     1.7582617535
   28      H      -2.1960753106    -0.6286627053     2.8142617535
   29      H      -4.4690753106    -2.8006627053    -2.7017382465
   30      H      -3.2890753106    -1.8816627053    -3.6337382465
   31      H      -5.0670753106    -1.7406627053    -0.3357382465
   32      H      -4.7975413106    -1.0842327053    -3.0671182465
 ----------------------------------------------------------------
 Nuclear Repulsion Energy =         983.67935099 hartrees
 There are       58 alpha and       58 beta electrons
 Requested basis set is def2-TZVPD
 There are 290 shells and 742 basis functions

 Total QAlloc Memory Limit   2000 MB
 Mega-Array Size      1956 MB
 MEM_STATIC part      2000 MB
 Discretize the solute cavity surface with Lebedev spheres
	Using 302 Lebedev grid points for each H atom
	Using 302 Lebedev grid points for other atoms
	Atomic van der Waals radii will be scaled by 1.20
 Remove points where switching function is < 1.0e-08
 Keep 3496 surface tesserae and discard 6168 interior tesserae
 Molecular Surface Area = 348.308 Angst**2
 A cutoff of  1.0D-14 yielded  34341 shell pairs
 There are    223949 function pairs (    282534 Cartesian)
 Smallest overlap matrix eigenvalue = 4.38E-07
 Linear dependence detected in AO basis
 Tighter screening thresholds may be required for diffuse basis sets
 Use S2THRESH > 14 and THRESH = 14 in case of SCF convergence issues
 Number of orthogonalized atomic orbitals = 739
 Maximum deviation from orthogonality = 2.015E-10

 Scale SEOQF with 1.000000e-01/1.000000e-01/1.000000e-01

 Standard Electronic Orientation quadrupole field applied
 Nucleus-field energy     =     0.0000000211 hartrees

 -----------------------------------------------------------------------
  General SCF calculation program by
  Eric Jon Sundstrom, Paul Horn, Yuezhi Mao, Dmitri Zuev, Alec White,
  David Stuck, Shaama M.S., Shane Yost, Joonho Lee, David Small,
  Daniel Levine, Susi Lehtola, Hugh Burton, Evgeny Epifanovsky,
  Bang C. Huynh
 -----------------------------------------------------------------------
================================================================
                 ALMO-EDA with the EDA2 driver                  
================================================================
 The second-generation ALMO-EDA (for DFT):                      
 P. R. Horn, Y. Mao and M. Head-Gordon, PCCP, 18, 23067 (2016)  
 Decomposition of the frozen energy:                            
 P. R. Horn, Y. Mao and M. Head-Gordon, JCP, 144, 114107 (2016) 
 FERF model for polarization:                                   
 P. R. Horn and M. Head-Gordon, JCP, 143, 114111 (2015)         
Using eda2 option set 1
Option set summary: Frozen orbital wavefunction, initial wavefunction decomposition, and nDQ polarization.
--------------------------------
Printing EDA Options
--------------------------------
eda_child_super_basis      0
fragmo_guess_mode          0
child_mp                   1
child_mp_orders            232
cls_elec                   1
cls_disp                   0
scfmi_mode                 1
scfmi_occs                 0
scfmi_virts                0
frz_relax                  0
frz_relax_method           0
dc_pen_start               0
dc_pen_conv                0
dc_pen_increment           0
dc_pen_steps               0
dc_pen_thresh_factor       0
dc_pen_pre_newton_thresh   0
frz_ortho_decomp           1
frz_ortho_decomp_conv      6
frgm_method                2
scfmi_freeze_ss            0
separate_rehyb             0
plot_diff_den              0
eda_nocv                   0
eda_vct_relax              1
disp_free_x                0
disp_free_c                0
eda_bsse                   0
eda_pct_a                  0
eda_covp                   0
--------------------------------
Attempting to make child job directory: /home/meili/scratch/qchem48785//Frg1/
Attempting to make child job directory: /home/meili/scratch/qchem48785//Frg2/
Creating input file /home/meili/scratch/qchem48785/Frg1.input
using default PutDataFrgm: nothing
calling putenv with: QCSCRATCH=/home/meili/scratch/qchem48785/ 
Spawning Job For Fragment 0
                  Welcome to Q-Chem
     A Quantum Leap Into The Future Of Chemistry


 Q-Chem 5.2 (devel), Q-Chem, Inc., Pleasanton, CA (2019)

 Yihan Shao,  Zhengting Gan,  E. Epifanovsky,  A. T. B. Gilbert,  M. Wormit,  
 J. Kussmann,  A. W. Lange,  A. Behn,  Jia Deng,  Xintian Feng,  D. Ghosh,  
 M. Goldey,  P. R. Horn,  L. D. Jacobson,  I. Kaliman,  T. Kus,  A. Landau,  
 Jie Liu,  E. I. Proynov,  R. M. Richard,  R. P. Steele,  E. J. Sundstrom,  
 H. L. Woodcock III,  P. M. Zimmerman,  D. Zuev,  B. Albrecht,  E. Alguire,  
 S. A. Baeppler,  D. Barton,  Z. Benda,  Y. A. Bernard,  E. J. Berquist,  
 K. B. Bravaya,  H. Burton,  D. Casanova,  Chun-Min Chang,  Yunqing Chen,  
 A. Chien,  K. D. Closser,  M. P. Coons,  S. Coriani,  S. Dasgupta,  
 A. L. Dempwolff,  M. Diedenhofen,  Hainam Do,  R. G. Edgar,  Po-Tung Fang,  
 S. Faraji,  S. Fatehi,  Qingguo Feng,  K. D. Fenk,  J. Fosso-Tande,  
 J. Gayvert,  Qinghui Ge,  A. Ghysels,  G. Gidofalvi,  J. Gomes,  
 J. Gonthier,  A. Gunina,  D. Hait,  M. W. D. Hanson-Heine,  
 P. H. P. Harbach,  A. W. Hauser,  M. F. Herbst,  J. E. Herr,  
 E. G. Hohenstein,  Z. C. Holden,  Kerwin Hui,  B. C. Huynh,  T.-C. Jagau,  
 Hyunjun Ji,  B. Kaduk,  K. Khistyaev,  Jaehoon Kim,  P. Klunzinger,  K. Koh,  
 D. Kosenkov,  L. Koulias,  T. Kowalczyk,  C. M. Krauter,  A. Kunitsa,  
 Ka Un Lao,  A. Laurent,  K. V. Lawler,  Joonho Lee,  D. Lefrancois,  
 S. Lehtola,  D. S. Levine,  Yi-Pei Li,  You-Sheng Lin,  Fenglai Liu,  
 E. Livshits,  A. Luenser,  P. Manohar,  E. Mansoor,  S. F. Manzer,  
 Shan-Ping Mao,  Yuezhi Mao,  N. Mardirossian,  A. V. Marenich,  
 T. Markovich,  L. A. Martinez-Martinez,  S. A. Maurer,  N. J. Mayhall,  
 S. C. McKenzie,  J.-M. Mewes,  P. Morgante,  A. F. Morrison,  
 J. W. Mullinax,  K. Nanda,  T. S. Nguyen-Beck,  R. Olivares-Amaya,  
 J. A. Parkhill,  Zheng Pei,  T. M. Perrine,  F. Plasser,  P. Pokhilko,  
 S. Prager,  A. Prociuk,  E. Ramos,  D. R. Rehn,  F. Rob,  M. Scheurer,  
 M. Schneider,  N. Sergueev,  S. M. Sharada,  S. Sharma,  D. W. Small,  
 T. Stauch,  T. Stein,  Yu-Chuan Su,  A. J. W. Thom,  A. Tkatchenko,  
 T. Tsuchimochi,  N. M. Tubman,  L. Vogt,  M. L. Vidal,  O. Vydrov,  
 M. A. Watson,  J. Wenzel,  M. de Wergifosse,  T. A. Wesolowski,  A. White,  
 J. Witte,  A. Yamada,  Jun Yang,  K. Yao,  S. Yeganeh,  S. R. Yost,  
 Zhi-Qiang You,  A. Zech,  Igor Ying Zhang,  Xing Zhang,  Yan Zhao,  
 Ying Zhu,  B. R. Brooks,  G. K. L. Chan,  C. J. Cramer,  M. S. Gordon,  
 W. J. Hehre,  A. Klamt,  M. W. Schmidt,  C. D. Sherrill,  D. G. Truhlar,  
 A. Aspuru-Guzik,  R. Baer,  A. T. Bell,  N. A. Besley,  Jeng-Da Chai,  
 A. E. DePrince, III,  R. A. DiStasio Jr.,  A. Dreuw,  B. D. Dunietz,  
 T. R. Furlani,  Chao-Ping Hsu,  Yousung Jung,  Jing Kong,  D. S. Lambrecht,  
 WanZhen Liang,  C. Ochsenfeld,  V. A. Rassolov,  L. V. Slipchenko,  
 J. E. Subotnik,  T. Van Voorhis,  J. M. Herbert,  A. I. Krylov,  
 P. M. W. Gill,  M. Head-Gordon

 Contributors to earlier versions of Q-Chem not listed above: 
 R. D. Adamson,  B. Austin,  J. Baker,  G. J. O. Beran,  K. Brandhorst,  
 S. T. Brown,  E. F. C. Byrd,  A. K. Chakraborty,  C.-L. Cheng,  
 Siu Hung Chien,  D. M. Chipman,  D. L. Crittenden,  H. Dachsel,  
 R. J. Doerksen,  A. D. Dutoi,  L. Fusti-Molnar,  W. A. Goddard III,  
 A. Golubeva-Zadorozhnaya,  S. R. Gwaltney,  G. Hawkins,  A. Heyden,  
 S. Hirata,  G. Kedziora,  F. J. Keil,  C. Kelley,  Jihan Kim,  R. A. King,  
 R. Z. Khaliullin,  P. P. Korambath,  W. Kurlancheek,  A. M. Lee,  M. S. Lee,  
 S. V. Levchenko,  Ching Yeh Lin,  D. Liotard,  R. C. Lochan,  I. Lotan,  
 P. E. Maslen,  N. Nair,  D. P. O'Neill,  D. Neuhauser,  E. Neuscamman,  
 C. M. Oana,  R. Olson,  B. Peters,  R. Peverati,  P. A. Pieniazek,  
 Y. M. Rhee,  J. Ritchie,  M. A. Rohrdanz,  E. Rosta,  N. J. Russ,  
 H. F. Schaefer III,  N. E. Schultz,  N. Shenvi,  A. C. Simmonett,  A. Sodt,  
 D. Stuck,  K. S. Thanthiriwatte,  V. Vanovschi,  Tao Wang,  A. Warshel,  
 C. F. Williams,  Q. Wu,  X. Xu,  W. Zhang

 Please cite Q-Chem as follows:
 Y. Shao et al., Mol. Phys. 113, 184-215 (2015)
 DOI: 10.1080/00268976.2014.952696

 Q-Chem 5.2.1 for Intel X86 EM64T Linux

 Parts of Q-Chem use Armadillo 8.300.2 (Tropical Shenanigans).
 http://arma.sourceforge.net/

 Q-Chem begins on Fri Oct  1 11:14:29 2021  

compute-0-1.local
Host: 0

     Scratch files written to /home/meili/scratch/qchem48785//Frg1//
NAlpha2: 58
NElect   58
Mult     1
Symmetry turned off for PCM/SM12/SMD calculation

Checking the input file for inconsistencies... 	...done.

--------------------------------------------------------------
User input:
--------------------------------------------------------------
$molecule
0 1
 6	1.4969246894	2.5353372947	2.5382617535
 6	1.8979246894	0.4273372947	1.2132617535
 6	2.0719246894	1.8003372947	1.3462617535
 6	2.5099246894	-0.2466627053	0.2062617535
 6	2.8489246894	2.4873372947	0.3992617535
 6	3.3039246894	0.4503372947	-0.7147382465
 6	3.4469246894	1.8133372947	-0.6547382465
 8	3.8919246894	-0.2006627053	-1.7127382465
 1	1.1289246894	-0.0606627053	1.7682617535
 1	2.3489246894	-1.3066627053	0.0752617535
 1	0.6729246894	1.9753372947	2.9842617535
 1	1.1349246894	3.5143372947	2.2192617535
 1	2.9919246894	3.5553372947	0.4972617535
 1	4.0349246894	2.3473372947	-1.3867382465
 1	4.0359246894	0.3853372947	-2.4927382465
 1	2.3160746894	2.6560272947	3.2624317535
$end
$rem
EDA2		1
METHOD		WB97X-V
BASIS		DEF2-TZVPD
XC_GRID		000099000590
NL_GRID		1
UNRESTRICTED		FALSE
MAX_SCF_CYCLES		200
SYMMETRY		FALSE
SYM_IGNORE		TRUE
BASIS_LIN_DEP_THRESH		6
THRESH		14
SCF_CONVERGENCE		8
SCF_PRINT_FRGM		TRUE
SOLVENT_METHOD		PCM
!required keywords
JOBTYPE		SP
SYM_IGNORE		TRUE
SUBSYSTEM		TRUE
GEN_SCFMAN		TRUE
CHILD_INSTRUCTION		2
SYM_IGNORE		TRUE
SCFMI		0
RI_K 0		
PARI_K 0		
MIN_PARI_K 0		
IARI_K 0		
OCC_RI_K 0		
PURECART		1111
MEM_STATIC		2000
MEM_TOTAL		2000
GUI		0
CHILD_MP		1
CHILD_MP_ORDERS		232
FRZ_RELAX		0
FRZ_RELAX_METHOD		0
EDA_CLS_ELEC		1
EDA_CLS_DISP		0
FRZ_ORTHO_DECOMP		1
EDA2		FALSE
FRGM_METHOD		FALSE
CIS_N_ROOTS  0
LOCAL_CIS    0
CIS_RLX_DNS  1
$end
$pcm
THEORY                  CPCM
METHOD                  SWIG
SOLVER                  INVERSION
RADII                   UFF
HPOINTS                 302
HEAVYPOINTS             302
PRINTLEVEL              0
$end
$solvent
DIELECTRIC              78.390000 ! water
$end
--------------------------------------------------------------
 ----------------------------------------------------------------
             Standard Nuclear Orientation (Angstroms)
    I     Atom           X                Y                Z
 ----------------------------------------------------------------
    1      C       1.4969246894     2.5353372947     2.5382617535
    2      C       1.8979246894     0.4273372947     1.2132617535
    3      C       2.0719246894     1.8003372947     1.3462617535
    4      C       2.5099246894    -0.2466627053     0.2062617535
    5      C       2.8489246894     2.4873372947     0.3992617535
    6      C       3.3039246894     0.4503372947    -0.7147382465
    7      C       3.4469246894     1.8133372947    -0.6547382465
    8      O       3.8919246894    -0.2006627053    -1.7127382465
    9      H       1.1289246894    -0.0606627053     1.7682617535
   10      H       2.3489246894    -1.3066627053     0.0752617535
   11      H       0.6729246894     1.9753372947     2.9842617535
   12      H       1.1349246894     3.5143372947     2.2192617535
   13      H       2.9919246894     3.5553372947     0.4972617535
   14      H       4.0349246894     2.3473372947    -1.3867382465
   15      H       4.0359246894     0.3853372947    -2.4927382465
   16      H       2.3160746894     2.6560272947     3.2624317535
 ----------------------------------------------------------------
 Nuclear Repulsion Energy =         345.63456912 hartrees
 There are       29 alpha and       29 beta electrons
 Requested basis set is def2-TZVPD
 There are 145 shells and 371 basis functions

 Total QAlloc Memory Limit   2000 MB
 Mega-Array Size      1956 MB
 MEM_STATIC part      2000 MB
 Discretize the solute cavity surface with Lebedev spheres
	Using 302 Lebedev grid points for each H atom
	Using 302 Lebedev grid points for other atoms
	Atomic van der Waals radii will be scaled by 1.20
 Remove points where switching function is < 1.0e-08
 Keep 1845 surface tesserae and discard 2987 interior tesserae
 Molecular Surface Area = 189.185 Angst**2
 A cutoff of  1.0D-14 yielded  10064 shell pairs
 There are     67216 function pairs (     85950 Cartesian)
 Smallest overlap matrix eigenvalue = 5.86E-07
 Linear dependence detected in AO basis
 Tighter screening thresholds may be required for diffuse basis sets
 Use S2THRESH > 14 and THRESH = 14 in case of SCF convergence issues
 Number of orthogonalized atomic orbitals = 370
 Maximum deviation from orthogonality = 1.436E-10

 Scale SEOQF with 1.000000e-01/1.000000e-01/1.000000e-01

 Standard Electronic Orientation quadrupole field applied
 Nucleus-field energy     =     0.0000000146 hartrees
 Guess from superposition of atomic densities
 Warning:  Energy on first SCF cycle will be non-variational
 SAD guess density has 58.000000 electrons

 -----------------------------------------------------------------------
  General SCF calculation program by
  Eric Jon Sundstrom, Paul Horn, Yuezhi Mao, Dmitri Zuev, Alec White,
  David Stuck, Shaama M.S., Shane Yost, Joonho Lee, David Small,
  Daniel Levine, Susi Lehtola, Hugh Burton, Evgeny Epifanovsky,
  Bang C. Huynh
 -----------------------------------------------------------------------
 Exchange:     0.1670 Hartree-Fock + 1.0000 wB97X-V + LR-HF
 Correlation:  1.0000 wB97X-V
 Using Euler-Maclaurin-Lebedev (99,590) quadrature formula
 Nonlocal Correlation:  VV10 with C = 0.0100 and b = 6.00 and scale = 1.00000
 Grid used for NLC:  SG-1 standard quadrature
Energy prior to optimization (guess energy) = -346.720908689180
Begin Timing: Total SCF Calculation
begin iterations for algorithm: DIIS         
the SCF tolerance is set to 1.00e-08
    1    -346.7209086892      2.23e-03     00000 
    2    -346.7701616862      1.69e-03     00000 
    3    -346.8068998647      2.72e-04     00000 
    4    -346.8079269951      1.28e-04     00000 
    5    -346.8081952318      2.39e-05     00000 
    6    -346.8082072440      8.27e-06     00000 
    7    -346.8082087995      3.74e-06     00000 
    8    -346.8082091182      8.73e-07     00000 
    9    -346.8082091491      4.07e-07     00000 
   10    -346.8082091549      1.37e-07     00000 
   11    -346.8082091560      4.80e-08     00000 
   12    -346.8082091561      1.81e-08     00000 
   13    -346.8082091562      5.00e-09     00000 Convergence criterion met
Timing for Total SCF: 813.00s (wall), 4926.89s (cpu)

************** Final PCM Free Energy Summary **************
 G_electrostatic  =      -0.00553762 hartree =      -3.47491068 kcal/mol
 G_cavitation     =       0.00000000 hartree =       0.00000000 kcal/mol
 G_dispersion     =       0.00000000 hartree =       0.00000000 kcal/mol
 G_repulsion      =       0.00000000 hartree =       0.00000000 kcal/mol
 --------------------------------------------------
 Non-electrostatic Free Energy =       0.00000000 hartree =       0.00000000 kcal/mol
 Total                         =      -0.00553762 hartree =      -3.47491068 kcal/mol
 --------------------------------------------------
 SCF Energy (H0 + V/2)                       =    -346.80820916 
 Solute Internal Energy (H0)                 =    -346.80267153 
 Total Free Energy (H0 + V/2 + non-elec)     =    -346.80820916 hartree
                                             = -217625.43586604 kcal/mol
***********************************************************

E_pcm = -0.0055376227
Multipole orders to be included
        2
        3
computing dipole RHS
computing quadrupole RHS
total number of RHS in solve_reponses: 8
RHS batch sizes
        8
Beginning Block Conjugate Gradient Iterations. Batch Number: 0
computing hessian-vector products by finite difference
              1      6.01e-01     00000 Conjugate Gradient Iteration
computing hessian-vector products by finite difference
              2      2.00e-01     00000 Conjugate Gradient Iteration
computing hessian-vector products by finite difference
              3      5.05e-02     00000 Conjugate Gradient Iteration
computing hessian-vector products by finite difference
              4      1.43e-02     00000 Conjugate Gradient Iteration
computing hessian-vector products by finite difference
              5      4.35e-03     00000 Conjugate Gradient Iteration
computing hessian-vector products by finite difference
              6      1.62e-03     00000 Conjugate Gradient Iteration
computing hessian-vector products by finite difference
              7      3.91e-04     00000 Conjugate Gradient Iteration
computing hessian-vector products by finite difference
              8      7.71e-05     00000 Conjugate Gradient Iteration
computing hessian-vector products by finite difference
              9      1.50e-05     00000 Conjugate Gradient Iteration
computing hessian-vector products by finite difference
             10      2.11e-06     00000 Conjugate Gradient Iteration
computing hessian-vector products by finite difference
             11      3.14e-07     00000 Conjugate Gradient Iteration
computing hessian-vector products by finite difference
             12      5.78e-08     00000 Conjugate Gradient Iteration
computing hessian-vector products by finite difference
             13      1.06e-08     00000 Conjugate Gradient Iteration
computing hessian-vector products by finite difference
             14      2.44e-09     00000 CG Converged
batch 0 complete
Done Calculating Responses
TESTING ORTHOGONALIZATION OF MULTIPOLE BASIS
Multipole virts passed orthogonality test
Virts Per Order
           87
          145

 --------------------------------------------------------------

                    Orbital Energies (a.u.)
 --------------------------------------------------------------

 Alpha MOs
 -- Occupied --
-19.2433 -10.3290 -10.2740 -10.2724 -10.2668 -10.2665 -10.2660 -10.2614
 -1.2029  -0.9967  -0.8982  -0.8889  -0.8075  -0.7482  -0.7161  -0.6682
 -0.6039  -0.5814  -0.5589  -0.5382  -0.5372  -0.5261  -0.5087  -0.4728
 -0.4544  -0.4432  -0.4351  -0.3560  -0.3081
 -- Virtual --
  0.0572   0.0617   0.0682   0.0786   0.0830   0.0951   0.1086   0.1098
  0.1134   0.1323   0.1455   0.1475   0.1549   0.1714   0.1724   0.1930
  0.1964   0.2044   0.2161   0.2214   0.2345   0.2385   0.2496   0.2534
  0.2592   0.2646   0.2675   0.2777   0.2884   0.2958   0.2970   0.3042
  0.3061   0.3104   0.3131   0.3208   0.3343   0.3400   0.3428   0.3488
  0.3516   0.3634   0.3646   0.3734   0.3754   0.3807   0.3854   0.3870
  0.3947   0.4001   0.4019   0.4063   0.4128   0.4207   0.4229   0.4337
  0.4406   0.4479   0.4596   0.4640   0.4678   0.4733   0.4764   0.4799
  0.4843   0.4920   0.5006   0.5083   0.5094   0.5180   0.5252   0.5354
  0.5390   0.5478   0.5549   0.5568   0.5654   0.5699   0.5736   0.5829
  0.5947   0.6089   0.6288   0.6306   0.6361   0.6541   0.6578   0.6717
  0.6809   0.6840   0.6849   0.6978   0.7023   0.7090   0.7192   0.7253
  0.7298   0.7337   0.7473   0.7529   0.7573   0.7671   0.7746   0.7830
  0.7863   0.7949   0.7957   0.8037   0.8082   0.8183   0.8241   0.8382
  0.8426   0.8498   0.8546   0.8617   0.8706   0.8809   0.8855   0.8880
  0.9035   0.9146   0.9321   0.9443   0.9539   0.9706   0.9918   1.0076
  1.0175   1.0301   1.0352   1.0505   1.0554   1.0622   1.0726   1.0784
  1.1050   1.1328   1.1408   1.1854   1.2018   1.2198   1.2520   1.2696
  1.3039   1.3121   1.3381   1.3553   1.3653   1.3860   1.4050   1.4303
  1.4572   1.4707   1.4749   1.4943   1.5346   1.5749   1.5947   1.6136
  1.6265   1.6372   1.6852   1.7017   1.7109   1.7246   1.7623   1.7993
  1.8231   1.8344   1.8365   1.8522   1.8810   1.9137   1.9226   1.9309
  1.9509   1.9654   1.9813   1.9872   2.0150   2.0287   2.0338   2.0379
  2.0689   2.0805   2.0925   2.1104   2.1271   2.1524   2.1898   2.2074
  2.2380   2.2424   2.2595   2.2745   2.3097   2.3273   2.3523   2.3743
  2.4057   2.4215   2.4300   2.4718   2.4875   2.5044   2.5222   2.5553
  2.5759   2.5982   2.6039   2.6217   2.6491   2.6869   2.6985   2.7380
  2.7532   2.7653   2.7769   2.8220   2.8252   2.8443   2.8552   2.8741
  2.8982   2.9165   2.9366   2.9470   2.9583   2.9847   2.9882   3.0109
  3.0299   3.0404   3.0481   3.0752   3.1077   3.1400   3.1480   3.1660
  3.1923   3.2190   3.2247   3.2435   3.2627   3.2711   3.2937   3.3011
  3.3263   3.3501   3.3788   3.3977   3.4027   3.4102   3.4404   3.4484
  3.4552   3.4674   3.4848   3.5075   3.5242   3.5389   3.5477   3.5524
  3.5640   3.5786   3.5844   3.5956   3.6182   3.6357   3.6518   3.6782
  3.7025   3.7130   3.7380   3.7645   3.7705   3.8276   3.8422   3.9153
  3.9410   3.9488   3.9733   4.0235   4.0622   4.0851   4.1375   4.1610
  4.2403   4.2481   4.2897   4.3087   4.3310   4.3342   4.3705   4.3994
  4.4142   4.4179   4.4421   4.4654   4.5251   4.5553   4.6267   4.6487
  4.7533   4.7732   4.7968   4.8149   4.8862   4.9092   5.0322   5.0735
  5.1005   5.1216   5.1505   5.2988   5.3412   5.4390   5.4658   5.5141
  5.5761   5.6742   5.7386   5.7846   6.0338   6.1713   6.5155   6.5633
  6.7366   6.8976   6.9963   7.2871   7.4332  22.6566  22.6874  22.9396
 23.0361  23.1112  23.2371  23.5786  44.4433
 --------------------------------------------------------------

          Ground-State Mulliken Net Atomic Charges

     Atom                 Charge (a.u.)
  ----------------------------------------
      1 C                    -1.014770
      2 C                    -0.497367
      3 C                     0.609177
      4 C                    -0.613622
      5 C                    -0.547665
      6 C                     0.776635
      7 C                    -0.500827
      8 O                    -0.502192
      9 H                     0.291143
     10 H                     0.312076
     11 H                     0.272496
     12 H                     0.270426
     13 H                     0.323231
     14 H                     0.283439
     15 H                     0.331257
     16 H                     0.206564
  ----------------------------------------
  Sum of atomic charges =     0.000000

 -----------------------------------------------------------------
                    Cartesian Multipole Moments
 -----------------------------------------------------------------
    Charge (ESU x 10^10)
                -0.0000
    Dipole Moment (Debye)
         X      -0.2607      Y       1.6145      Z      -0.7498
       Tot       1.7991
    Quadrupole Moments (Debye-Ang)
        XX     -49.8479     XY       7.6396     YY     -43.6940
        XZ      -6.7202     YZ      -2.7879     ZZ     -42.0323
    Octopole Moments (Debye-Ang^2)
       XXX    -392.4476    XXY     -25.9219    XYY    -112.7332
       YYY    -155.6423    XXZ     -50.1361    XYZ     -14.8868
       YYZ     -17.3482    XZZ    -104.9507    YZZ     -46.7899
       ZZZ     -73.6237
    Hexadecapole Moments (Debye-Ang^3)
      XXXX   -2346.0576   XXXY    -285.4923   XXYY    -478.1148
      XYYY    -355.1240   YYYY    -794.3127   XXXZ    -120.9331
      XXYZ    -131.9165   XYYZ      -0.2254   YYYZ    -184.9938
      XXZZ    -392.3453   XYZZ     -93.6720   YYZZ    -247.5141
      XZZZ     -66.9658   YZZZ    -208.3976   ZZZZ    -588.5198
 -----------------------------------------------------------------
Archival summary:
1\1\compute-0-1.local\SP\ProcedureUnspecified\BasisUnspecified\178\meili\FriOct115:22:272021FriOct115:22:272021\0\\#,ProcedureUnspecified,BasisUnspecified,\\0,1\C\O,1,1.32874\H,2,0.98617,1,111.565\C,1,1.37179,2,118.263,3,-24.5506,0\H,4,1.08015,1,121.219,2,-1.04412,0\C,4,1.38665,1,118.115,2,-179.043,0\H,6,1.08198,4,119.448,1,176.748,0\C,1,1.4016,2,120.039,3,152.474,0\H,8,1.08013,1,119.522,2,-2.421,0\C,8,1.35752,1,119.731,2,-179.14,0\H,10,1.06655,8,118.939,1,166.186,0\C,10,1.39036,8,120.32,1,-0.986707,0\C,12,1.51384,10,120.481,8,-174.348,0\H,13,1.09144,12,109.35,10,-142.866,0\H,13,1.09155,12,111.061,10,-22.2591,0\H,13,1.1,12,106.786,10,98.2245,0\\\@

 Total job time:  14877.36s(wall), 93073.19s(cpu) 
 Fri Oct  1 15:22:27 2021

        *************************************************************
        *                                                           *
        *  Thank you very much for using Q-Chem.  Have a nice day.  *
        *                                                           *
        *************************************************************


Done Job For Fragment 0
calling putenv with: QCSCRATCH=/home/meili/scratch 
calling putenv with: QCTHREADS=8 
Creating input file /home/meili/scratch/qchem48785/Frg2.input
using default PutDataFrgm: nothing
calling putenv with: QCSCRATCH=/home/meili/scratch/qchem48785/ 
Spawning Job For Fragment 1
                  Welcome to Q-Chem
     A Quantum Leap Into The Future Of Chemistry


 Q-Chem 5.2 (devel), Q-Chem, Inc., Pleasanton, CA (2019)

 Yihan Shao,  Zhengting Gan,  E. Epifanovsky,  A. T. B. Gilbert,  M. Wormit,  
 J. Kussmann,  A. W. Lange,  A. Behn,  Jia Deng,  Xintian Feng,  D. Ghosh,  
 M. Goldey,  P. R. Horn,  L. D. Jacobson,  I. Kaliman,  T. Kus,  A. Landau,  
 Jie Liu,  E. I. Proynov,  R. M. Richard,  R. P. Steele,  E. J. Sundstrom,  
 H. L. Woodcock III,  P. M. Zimmerman,  D. Zuev,  B. Albrecht,  E. Alguire,  
 S. A. Baeppler,  D. Barton,  Z. Benda,  Y. A. Bernard,  E. J. Berquist,  
 K. B. Bravaya,  H. Burton,  D. Casanova,  Chun-Min Chang,  Yunqing Chen,  
 A. Chien,  K. D. Closser,  M. P. Coons,  S. Coriani,  S. Dasgupta,  
 A. L. Dempwolff,  M. Diedenhofen,  Hainam Do,  R. G. Edgar,  Po-Tung Fang,  
 S. Faraji,  S. Fatehi,  Qingguo Feng,  K. D. Fenk,  J. Fosso-Tande,  
 J. Gayvert,  Qinghui Ge,  A. Ghysels,  G. Gidofalvi,  J. Gomes,  
 J. Gonthier,  A. Gunina,  D. Hait,  M. W. D. Hanson-Heine,  
 P. H. P. Harbach,  A. W. Hauser,  M. F. Herbst,  J. E. Herr,  
 E. G. Hohenstein,  Z. C. Holden,  Kerwin Hui,  B. C. Huynh,  T.-C. Jagau,  
 Hyunjun Ji,  B. Kaduk,  K. Khistyaev,  Jaehoon Kim,  P. Klunzinger,  K. Koh,  
 D. Kosenkov,  L. Koulias,  T. Kowalczyk,  C. M. Krauter,  A. Kunitsa,  
 Ka Un Lao,  A. Laurent,  K. V. Lawler,  Joonho Lee,  D. Lefrancois,  
 S. Lehtola,  D. S. Levine,  Yi-Pei Li,  You-Sheng Lin,  Fenglai Liu,  
 E. Livshits,  A. Luenser,  P. Manohar,  E. Mansoor,  S. F. Manzer,  
 Shan-Ping Mao,  Yuezhi Mao,  N. Mardirossian,  A. V. Marenich,  
 T. Markovich,  L. A. Martinez-Martinez,  S. A. Maurer,  N. J. Mayhall,  
 S. C. McKenzie,  J.-M. Mewes,  P. Morgante,  A. F. Morrison,  
 J. W. Mullinax,  K. Nanda,  T. S. Nguyen-Beck,  R. Olivares-Amaya,  
 J. A. Parkhill,  Zheng Pei,  T. M. Perrine,  F. Plasser,  P. Pokhilko,  
 S. Prager,  A. Prociuk,  E. Ramos,  D. R. Rehn,  F. Rob,  M. Scheurer,  
 M. Schneider,  N. Sergueev,  S. M. Sharada,  S. Sharma,  D. W. Small,  
 T. Stauch,  T. Stein,  Yu-Chuan Su,  A. J. W. Thom,  A. Tkatchenko,  
 T. Tsuchimochi,  N. M. Tubman,  L. Vogt,  M. L. Vidal,  O. Vydrov,  
 M. A. Watson,  J. Wenzel,  M. de Wergifosse,  T. A. Wesolowski,  A. White,  
 J. Witte,  A. Yamada,  Jun Yang,  K. Yao,  S. Yeganeh,  S. R. Yost,  
 Zhi-Qiang You,  A. Zech,  Igor Ying Zhang,  Xing Zhang,  Yan Zhao,  
 Ying Zhu,  B. R. Brooks,  G. K. L. Chan,  C. J. Cramer,  M. S. Gordon,  
 W. J. Hehre,  A. Klamt,  M. W. Schmidt,  C. D. Sherrill,  D. G. Truhlar,  
 A. Aspuru-Guzik,  R. Baer,  A. T. Bell,  N. A. Besley,  Jeng-Da Chai,  
 A. E. DePrince, III,  R. A. DiStasio Jr.,  A. Dreuw,  B. D. Dunietz,  
 T. R. Furlani,  Chao-Ping Hsu,  Yousung Jung,  Jing Kong,  D. S. Lambrecht,  
 WanZhen Liang,  C. Ochsenfeld,  V. A. Rassolov,  L. V. Slipchenko,  
 J. E. Subotnik,  T. Van Voorhis,  J. M. Herbert,  A. I. Krylov,  
 P. M. W. Gill,  M. Head-Gordon

 Contributors to earlier versions of Q-Chem not listed above: 
 R. D. Adamson,  B. Austin,  J. Baker,  G. J. O. Beran,  K. Brandhorst,  
 S. T. Brown,  E. F. C. Byrd,  A. K. Chakraborty,  C.-L. Cheng,  
 Siu Hung Chien,  D. M. Chipman,  D. L. Crittenden,  H. Dachsel,  
 R. J. Doerksen,  A. D. Dutoi,  L. Fusti-Molnar,  W. A. Goddard III,  
 A. Golubeva-Zadorozhnaya,  S. R. Gwaltney,  G. Hawkins,  A. Heyden,  
 S. Hirata,  G. Kedziora,  F. J. Keil,  C. Kelley,  Jihan Kim,  R. A. King,  
 R. Z. Khaliullin,  P. P. Korambath,  W. Kurlancheek,  A. M. Lee,  M. S. Lee,  
 S. V. Levchenko,  Ching Yeh Lin,  D. Liotard,  R. C. Lochan,  I. Lotan,  
 P. E. Maslen,  N. Nair,  D. P. O'Neill,  D. Neuhauser,  E. Neuscamman,  
 C. M. Oana,  R. Olson,  B. Peters,  R. Peverati,  P. A. Pieniazek,  
 Y. M. Rhee,  J. Ritchie,  M. A. Rohrdanz,  E. Rosta,  N. J. Russ,  
 H. F. Schaefer III,  N. E. Schultz,  N. Shenvi,  A. C. Simmonett,  A. Sodt,  
 D. Stuck,  K. S. Thanthiriwatte,  V. Vanovschi,  Tao Wang,  A. Warshel,  
 C. F. Williams,  Q. Wu,  X. Xu,  W. Zhang

 Please cite Q-Chem as follows:
 Y. Shao et al., Mol. Phys. 113, 184-215 (2015)
 DOI: 10.1080/00268976.2014.952696

 Q-Chem 5.2.1 for Intel X86 EM64T Linux

 Parts of Q-Chem use Armadillo 8.300.2 (Tropical Shenanigans).
 http://arma.sourceforge.net/

 Q-Chem begins on Fri Oct  1 15:22:27 2021  

compute-0-1.local
Host: 0

     Scratch files written to /home/meili/scratch/qchem48785//Frg2//
NAlpha2: 58
NElect   58
Mult     1
Symmetry turned off for PCM/SM12/SMD calculation

Checking the input file for inconsistencies... 	...done.

--------------------------------------------------------------
User input:
--------------------------------------------------------------
$molecule
0 1
 6	-4.0140753106	-1.8166627053	-2.8227382465
 6	-1.3590753106	-0.7426627053	-0.2947382465
 6	-2.0760753106	-0.7976627053	0.8772617535
 6	-1.9730753106	-1.0816627053	-1.5097382465
 6	-3.3110753106	-1.4766627053	-1.5347382465
 6	-3.3890753106	-1.1576627053	0.8512617535
 6	-4.0150753106	-1.4826627053	-0.3407382465
 8	-1.5400753106	-0.4826627053	2.1022617535
 1	-0.3240753106	-0.4396627053	-0.2727382465
 1	-1.4030753106	-1.0406627053	-2.4277382465
 1	-3.9500753106	-1.0796627053	1.7582617535
 1	-2.1960753106	-0.6286627053	2.8142617535
 1	-4.4690753106	-2.8006627053	-2.7017382465
 1	-3.2890753106	-1.8816627053	-3.6337382465
 1	-5.0670753106	-1.7406627053	-0.3357382465
 1	-4.7975413106	-1.0842327053	-3.0671182465
$end
$rem
EDA2		1
METHOD		WB97X-V
BASIS		DEF2-TZVPD
XC_GRID		000099000590
NL_GRID		1
UNRESTRICTED		FALSE
MAX_SCF_CYCLES		200
SYMMETRY		FALSE
SYM_IGNORE		TRUE
BASIS_LIN_DEP_THRESH		6
THRESH		14
SCF_CONVERGENCE		8
SCF_PRINT_FRGM		TRUE
SOLVENT_METHOD		PCM
!required keywords
JOBTYPE		SP
SYM_IGNORE		TRUE
SUBSYSTEM		TRUE
GEN_SCFMAN		TRUE
CHILD_INSTRUCTION		2
SYM_IGNORE		TRUE
SCFMI		0
RI_K 0		
PARI_K 0		
MIN_PARI_K 0		
IARI_K 0		
OCC_RI_K 0		
PURECART		1111
MEM_STATIC		2000
MEM_TOTAL		2000
GUI		0
CHILD_MP		1
CHILD_MP_ORDERS		232
FRZ_RELAX		0
FRZ_RELAX_METHOD		0
EDA_CLS_ELEC		1
EDA_CLS_DISP		0
FRZ_ORTHO_DECOMP		1
EDA2		FALSE
FRGM_METHOD		FALSE
CIS_N_ROOTS  0
LOCAL_CIS    0
CIS_RLX_DNS  1
$end
$pcm
THEORY                  CPCM
METHOD                  SWIG
SOLVER                  INVERSION
RADII                   UFF
HPOINTS                 302
HEAVYPOINTS             302
PRINTLEVEL              0
$end
$solvent
DIELECTRIC              78.390000 ! water
$end
--------------------------------------------------------------
 ----------------------------------------------------------------
             Standard Nuclear Orientation (Angstroms)
    I     Atom           X                Y                Z
 ----------------------------------------------------------------
    1      C      -4.0140753106    -1.8166627053    -2.8227382465
    2      C      -1.3590753106    -0.7426627053    -0.2947382465
    3      C      -2.0760753106    -0.7976627053     0.8772617535
    4      C      -1.9730753106    -1.0816627053    -1.5097382465
    5      C      -3.3110753106    -1.4766627053    -1.5347382465
    6      C      -3.3890753106    -1.1576627053     0.8512617535
    7      C      -4.0150753106    -1.4826627053    -0.3407382465
    8      O      -1.5400753106    -0.4826627053     2.1022617535
    9      H      -0.3240753106    -0.4396627053    -0.2727382465
   10      H      -1.4030753106    -1.0406627053    -2.4277382465
   11      H      -3.9500753106    -1.0796627053     1.7582617535
   12      H      -2.1960753106    -0.6286627053     2.8142617535
   13      H      -4.4690753106    -2.8006627053    -2.7017382465
   14      H      -3.2890753106    -1.8816627053    -3.6337382465
   15      H      -5.0670753106    -1.7406627053    -0.3357382465
   16      H      -4.7975413106    -1.0842327053    -3.0671182465
 ----------------------------------------------------------------
 Nuclear Repulsion Energy =         344.32290857 hartrees
 There are       29 alpha and       29 beta electrons
 Requested basis set is def2-TZVPD
 There are 145 shells and 371 basis functions

 Total QAlloc Memory Limit   2000 MB
 Mega-Array Size      1956 MB
 MEM_STATIC part      2000 MB
 Discretize the solute cavity surface with Lebedev spheres
	Using 302 Lebedev grid points for each H atom
	Using 302 Lebedev grid points for other atoms
	Atomic van der Waals radii will be scaled by 1.20
 Remove points where switching function is < 1.0e-08
 Keep 1858 surface tesserae and discard 2974 interior tesserae
 Molecular Surface Area = 189.872 Angst**2
 A cutoff of  1.0D-14 yielded  10048 shell pairs
 There are     67120 function pairs (     85829 Cartesian)
 Smallest overlap matrix eigenvalue = 5.29E-07
 Linear dependence detected in AO basis
 Tighter screening thresholds may be required for diffuse basis sets
 Use S2THRESH > 14 and THRESH = 14 in case of SCF convergence issues
 Number of orthogonalized atomic orbitals = 370
 Maximum deviation from orthogonality = 9.388E-11

 Scale SEOQF with 1.000000e-01/1.000000e-01/1.000000e-01

 Standard Electronic Orientation quadrupole field applied
 Nucleus-field energy     =     0.0000000065 hartrees
 Guess from superposition of atomic densities
 Warning:  Energy on first SCF cycle will be non-variational
 SAD guess density has 58.000000 electrons

 -----------------------------------------------------------------------
  General SCF calculation program by
  Eric Jon Sundstrom, Paul Horn, Yuezhi Mao, Dmitri Zuev, Alec White,
  David Stuck, Shaama M.S., Shane Yost, Joonho Lee, David Small,
  Daniel Levine, Susi Lehtola, Hugh Burton, Evgeny Epifanovsky,
  Bang C. Huynh
 -----------------------------------------------------------------------
 Exchange:     0.1670 Hartree-Fock + 1.0000 wB97X-V + LR-HF
 Correlation:  1.0000 wB97X-V
 Using Euler-Maclaurin-Lebedev (99,590) quadrature formula
 Nonlocal Correlation:  VV10 with C = 0.0100 and b = 6.00 and scale = 1.00000
 Grid used for NLC:  SG-1 standard quadrature
Energy prior to optimization (guess energy) = -346.728721797215
Begin Timing: Total SCF Calculation
begin iterations for algorithm: DIIS         
the SCF tolerance is set to 1.00e-08
    1    -346.7287217972      2.19e-03     00000 
    2    -346.7762364689      1.68e-03     00000 
    3    -346.8116880533      2.87e-04     00000 
    4    -346.8127963068      1.31e-04     00000 
    5    -346.8130789162      2.37e-05     00000 
    6    -346.8130914167      7.66e-06     00000 
    7    -346.8130929015      3.69e-06     00000 
    8    -346.8130932252      9.05e-07     00000 
    9    -346.8130932634      4.42e-07     00000 
   10    -346.8130932720      1.65e-07     00000 
   11    -346.8130932741      5.53e-08     00000 
   12    -346.8130932743      2.58e-08     00000 
   13    -346.8130932744      7.00e-09     00000 Convergence criterion met
Timing for Total SCF: 746.00s (wall), 4833.59s (cpu)

************** Final PCM Free Energy Summary **************
 G_electrostatic  =      -0.00561619 hartree =      -3.52421420 kcal/mol
 G_cavitation     =       0.00000000 hartree =       0.00000000 kcal/mol
 G_dispersion     =       0.00000000 hartree =       0.00000000 kcal/mol
 G_repulsion      =       0.00000000 hartree =       0.00000000 kcal/mol
 --------------------------------------------------
 Non-electrostatic Free Energy =       0.00000000 hartree =       0.00000000 kcal/mol
 Total                         =      -0.00561619 hartree =      -3.52421420 kcal/mol
 --------------------------------------------------
 SCF Energy (H0 + V/2)                       =    -346.81309327 
 Solute Internal Energy (H0)                 =    -346.80747708 
 Total Free Energy (H0 + V/2 + non-elec)     =    -346.81309327 hartree
                                             = -217628.50069647 kcal/mol
***********************************************************

E_pcm = -0.0056161928
Multipole orders to be included
        2
        3
computing dipole RHS
computing quadrupole RHS
total number of RHS in solve_reponses: 8
RHS batch sizes
        8
Beginning Block Conjugate Gradient Iterations. Batch Number: 0
computing hessian-vector products by finite difference
              1      5.98e-01     00000 Conjugate Gradient Iteration
computing hessian-vector products by finite difference
              2      1.93e-01     00000 Conjugate Gradient Iteration
computing hessian-vector products by finite difference
              3      4.92e-02     00000 Conjugate Gradient Iteration
computing hessian-vector products by finite difference
              4      1.35e-02     00000 Conjugate Gradient Iteration
computing hessian-vector products by finite difference
              5      3.40e-03     00000 Conjugate Gradient Iteration
computing hessian-vector products by finite difference
              6      1.35e-03     00000 Conjugate Gradient Iteration
computing hessian-vector products by finite difference
              7      3.50e-04     00000 Conjugate Gradient Iteration
computing hessian-vector products by finite difference
              8      6.96e-05     00000 Conjugate Gradient Iteration
computing hessian-vector products by finite difference
              9      1.30e-05     00000 Conjugate Gradient Iteration
computing hessian-vector products by finite difference
             10      1.75e-06     00000 Conjugate Gradient Iteration
computing hessian-vector products by finite difference
             11      2.63e-07     00000 Conjugate Gradient Iteration
computing hessian-vector products by finite difference
             12      7.93e-08     00000 Conjugate Gradient Iteration
computing hessian-vector products by finite difference
             13      1.24e-08     00000 Conjugate Gradient Iteration
computing hessian-vector products by finite difference
             14      1.82e-09     00000 CG Converged
batch 0 complete
Done Calculating Responses
TESTING ORTHOGONALIZATION OF MULTIPOLE BASIS
Multipole virts passed orthogonality test
Virts Per Order
           87
          145

 --------------------------------------------------------------

                    Orbital Energies (a.u.)
 --------------------------------------------------------------

 Alpha MOs
 -- Occupied --
-19.2441 -10.3296 -10.2767 -10.2759 -10.2723 -10.2719 -10.2662 -10.2620
 -1.1892  -0.9997  -0.9055  -0.8850  -0.8118  -0.7514  -0.7130  -0.6650
 -0.6069  -0.5810  -0.5525  -0.5433  -0.5330  -0.5220  -0.5103  -0.4793
 -0.4560  -0.4442  -0.4403  -0.3526  -0.3169
 -- Virtual --
  0.0571   0.0590   0.0682   0.0800   0.0830   0.0944   0.1081   0.1101
  0.1141   0.1310   0.1434   0.1502   0.1560   0.1681   0.1783   0.1909
  0.1976   0.2022   0.2130   0.2267   0.2322   0.2401   0.2462   0.2529
  0.2629   0.2661   0.2724   0.2747   0.2827   0.2956   0.2965   0.3026
  0.3041   0.3093   0.3125   0.3236   0.3319   0.3388   0.3451   0.3515
  0.3527   0.3547   0.3657   0.3694   0.3757   0.3789   0.3802   0.3893
  0.3935   0.3978   0.4024   0.4071   0.4128   0.4227   0.4270   0.4307
  0.4355   0.4561   0.4573   0.4631   0.4736   0.4778   0.4848   0.4858
  0.4870   0.4906   0.5003   0.5046   0.5097   0.5170   0.5299   0.5358
  0.5405   0.5472   0.5499   0.5521   0.5601   0.5657   0.5718   0.5936
  0.6008   0.6058   0.6211   0.6282   0.6447   0.6562   0.6601   0.6669
  0.6794   0.6838   0.6932   0.7005   0.7056   0.7088   0.7155   0.7273
  0.7295   0.7357   0.7456   0.7489   0.7603   0.7681   0.7839   0.7851
  0.7878   0.7905   0.7973   0.8002   0.8035   0.8168   0.8236   0.8366
  0.8427   0.8482   0.8537   0.8591   0.8645   0.8719   0.8819   0.8864
  0.9051   0.9136   0.9367   0.9530   0.9595   0.9823   1.0037   1.0075
  1.0180   1.0412   1.0455   1.0495   1.0576   1.0622   1.0790   1.0927
  1.1027   1.1180   1.1320   1.1630   1.2054   1.2274   1.2763   1.3048
  1.3134   1.3206   1.3239   1.3621   1.3708   1.3824   1.4058   1.4357
  1.4569   1.4705   1.4757   1.4887   1.5362   1.5749   1.6138   1.6272
  1.6372   1.6467   1.6733   1.6824   1.7052   1.7343   1.7512   1.7955
  1.8136   1.8259   1.8387   1.8607   1.8635   1.8715   1.9134   1.9265
  1.9445   1.9546   1.9774   1.9916   1.9931   2.0296   2.0324   2.0568
  2.0594   2.0742   2.0896   2.1128   2.1266   2.1517   2.2048   2.2093
  2.2267   2.2401   2.2651   2.2837   2.3029   2.3131   2.3416   2.3703
  2.4076   2.4143   2.4386   2.4603   2.4825   2.5002   2.5348   2.5564
  2.5754   2.5941   2.6272   2.6396   2.6568   2.6661   2.6856   2.7501
  2.7670   2.7703   2.7800   2.8078   2.8178   2.8383   2.8766   2.8790
  2.9161   2.9275   2.9387   2.9447   2.9633   2.9819   2.9870   3.0047
  3.0269   3.0433   3.0702   3.0897   3.1156   3.1401   3.1451   3.1627
  3.1835   3.1879   3.2113   3.2171   3.2316   3.2477   3.2877   3.2946
  3.3021   3.3660   3.3809   3.3967   3.4044   3.4205   3.4472   3.4524
  3.4607   3.4774   3.4932   3.5096   3.5255   3.5418   3.5434   3.5473
  3.5530   3.5653   3.5863   3.5996   3.6173   3.6302   3.6519   3.6809
  3.7038   3.7096   3.7344   3.7528   3.7944   3.8080   3.8605   3.9215
  3.9384   3.9766   3.9780   4.0038   4.0604   4.0893   4.1653   4.1899
  4.2572   4.2798   4.2870   4.3125   4.3367   4.3580   4.3641   4.3794
  4.4035   4.4206   4.4437   4.4742   4.4993   4.5770   4.6096   4.6144
  4.7474   4.7709   4.8100   4.8222   4.8455   4.9312   5.0219   5.0645
  5.0795   5.1441   5.1820   5.3124   5.3697   5.4119   5.4516   5.5381
  5.5951   5.6547   5.7155   5.7557   5.9406   6.1839   6.4937   6.5635
  6.6342   6.8717   7.0226   7.3007   7.4425  22.6686  22.6811  22.9718
 22.9886  23.0732  23.2295  23.5690  44.4225
 --------------------------------------------------------------

          Ground-State Mulliken Net Atomic Charges

     Atom                 Charge (a.u.)
  ----------------------------------------
      1 C                    -0.995507
      2 C                    -0.778046
      3 C                     0.863002
      4 C                    -0.451665
      5 C                     0.487283
      6 C                    -0.259941
      7 C                    -0.640668
      8 O                    -0.500771
      9 H                     0.326912
     10 H                     0.294156
     11 H                     0.280333
     12 H                     0.294405
     13 H                     0.246137
     14 H                     0.268619
     15 H                     0.337164
     16 H                     0.228586
  ----------------------------------------
  Sum of atomic charges =     0.000000

 -----------------------------------------------------------------
                    Cartesian Multipole Moments
 -----------------------------------------------------------------
    Charge (ESU x 10^10)
                 0.0000
    Dipole Moment (Debye)
         X      -1.8450      Y      -0.4718      Z       0.0594
       Tot       1.9053
    Quadrupole Moments (Debye-Ang)
        XX     -36.7483     XY       3.7632     YY     -50.3063
        XZ      -4.3244     YZ       0.1339     ZZ     -39.9657
    Octopole Moments (Debye-Ang^2)
       XXX     341.1053    XXY      35.6588    XYY     133.2701
       YYY     173.7908    XXZ      32.9307    XYZ       0.5709
       YYZ      18.0447    XZZ     103.5273    YZZ      45.4822
       ZZZ      71.1694
    Hexadecapole Moments (Debye-Ang^3)
      XXXX   -2327.9881   XXXY    -422.8885   XXYY    -503.5858
      XYYY    -532.9637   YYYY    -520.9044   XXXZ    -303.3306
      XXYZ     -49.0296   XYYZ     -84.7546   YYYZ    -145.3295
      XXZZ    -485.7277   XYZZ    -146.3540   YYZZ    -219.5205
      XZZZ    -334.0070   YZZZ    -155.4465   ZZZZ    -748.2527
 -----------------------------------------------------------------
Archival summary:
1\1\compute-0-1.local\SP\ProcedureUnspecified\BasisUnspecified\178\meili\FriOct118:55:582021FriOct118:55:582021\0\\#,ProcedureUnspecified,BasisUnspecified,\\0,1\C\C,1,1.36171\H,2,1.06932,1,118.059\O,1,1.37373,2,116.992,3,6.09697,0\H,4,0.979079,1,110.662,2,3.97915,0\C,1,1.37503,2,119.808,3,-172.867,0\H,6,1.07866,1,119.616,2,178.885,0\C,2,1.38505,1,120.949,3,173.448,0\H,8,1.08319,2,119.398,1,-178.425,0\C,8,1.38611,2,120.715,1,1.38024,0\C,10,1.39531,8,118.218,2,-2.60711,0\H,11,1.08134,10,120.066,8,-178.375,0\C,10,1.50624,8,119.906,2,-179.249,0\H,13,1.08976,10,109.836,8,-173.105,0\H,13,1.09084,10,107.665,8,-55.9402,0\H,13,1.1,10,111.845,8,63.9768,0\\\@

 Total job time:  12811.11s(wall), 88730.93s(cpu) 
 Fri Oct  1 18:55:58 2021

        *************************************************************
        *                                                           *
        *  Thank you very much for using Q-Chem.  Have a nice day.  *
        *                                                           *
        *************************************************************


Done Job For Fragment 1
calling putenv with: QCSCRATCH=/home/meili/scratch 
calling putenv with: QCTHREADS=8 
Doing General SCFMI
 Exchange:     0.1670 Hartree-Fock + 1.0000 wB97X-V + LR-HF
 Correlation:  1.0000 wB97X-V
 Using Euler-Maclaurin-Lebedev (99,590) quadrature formula
 Nonlocal Correlation:  VV10 with C = 0.0100 and b = 6.00 and scale = 1.00000
 Grid used for NLC:  SG-1 standard quadrature
performing fock build before subrot guess so that all methods have access
Printing subrot_rss_gen Method Specification:
Occupied Subspace Method is 0
Virtual Subspace Method is 0
Energy of the unrelaxed supersystem initial determinant -693.613321873946
performing fock build before subrot guess so that all methods have access
Printing subrot_rss_gen Method Specification:
Occupied Subspace Method is 0
Virtual Subspace Method is 0
Energy of the unrelaxed supersystem initial determinant w/ solvent -693.623477744757
write pseudocanon occs and virts to disk
write pseudocanon orbital energies to disk
Tolerance of ortho_decomp_scf: 1.00e-06
GDM subspace size: 20
Beginning the Orthogonal Decomposition of the Initial Supersystem Wavefunction
    1    -693.5967456711      1.94e-02     ortho_decomp Preconditoned Steepest Descent
    2    -693.5986279862      4.83e-04     ortho_decomp BFGS Step
    3    -693.5986341294      3.43e-05     ortho_decomp BFGS Step
    4    -693.5986341376      1.24e-06     ortho_decomp BFGS Step
    5    -693.5986341376      3.71e-08     ortho_decomp 00000 Convergence criterion met
 Hartree-Fock
 Hartree-Fock
 Hartree-Fock
Doing General SCFMI
 Exchange:     0.1670 Hartree-Fock + 1.0000 wB97X-V + LR-HF
 Correlation:  1.0000 wB97X-V
 Using Euler-Maclaurin-Lebedev (99,590) quadrature formula
 Nonlocal Correlation:  VV10 with C = 0.0100 and b = 6.00 and scale = 1.00000
 Grid used for NLC:  SG-1 standard quadrature
performing fock build at end of subrot_r(subrot) constructor so that all methods have access
<S^2> of initial wavefunction before polarization iterations 0.0000000000
Beginning iterations for the determination of the polarized wavefunction
Energy prior to optimization (guess energy) = -693.623477744758
Begin Timing: Total SCF Calculation
begin iterations for algorithm: DIIS         
the SCF tolerance is set to 1.00e-08
    1    -693.6234777448      3.49e-05     00000 
    2    -693.6236477800      1.31e-05     00000 
    3    -693.6236614411      9.04e-06     00000 
    4    -693.6236671039      2.07e-06     00000 
    5    -693.6236675754      1.01e-06     00000 
    6    -693.6236676828      4.55e-07     00000 
    7    -693.6236677032      2.18e-07     00000 
    8    -693.6236677067      1.15e-07     00000 
    9    -693.6236677074      4.54e-08     00000 
   10    -693.6236677076      2.20e-08     00000 
   11    -693.6236677076      9.23e-09     00000 Convergence criterion met
write pseudocanon occs and virts to disk
write pseudocanon orbital energies to disk
Timing for Total SCF: 3227.00s (wall), 22788.20s (cpu)
<S^2> of polarized wavefunction after polarization iterations 0.0000000000
relaxing scfmi constraint to allow all rotations in the entire AO span
Doing General SCFMI
 Exchange:     0.1670 Hartree-Fock + 1.0000 wB97X-V + LR-HF
 Correlation:  1.0000 wB97X-V
 Using Euler-Maclaurin-Lebedev (99,590) quadrature formula
 Nonlocal Correlation:  VV10 with C = 0.0100 and b = 6.00 and scale = 1.00000
 Grid used for NLC:  SG-1 standard quadrature
performing fock build at end of subrot_r(subrot) constructor so that all methods have access
<S^2> of polarized wavefunction before ct-allowed iterations 0.0000000000
Beginning iterations for the determination of the CT-Allowed wavefunction
Energy prior to optimization (guess energy) = -693.623667707592
Begin Timing: Total SCF Calculation
begin iterations for algorithm: DIIS         
the SCF tolerance is set to 1.00e-08
    1    -693.6236677076      5.06e-05     00000 
    2    -693.6243387409      5.20e-06     00000 
    3    -693.6243578277      9.52e-07     00000 
    4    -693.6243583545      7.38e-07     00000 
    5    -693.6243584681      1.00e-07     00000 
    6    -693.6243584734      4.63e-08     00000 
    7    -693.6243584742      1.15e-08     00000 
    8    -693.6243584743      4.12e-09     00000 Convergence criterion met
write pseudocanon occs and virts to disk
write pseudocanon orbital energies to disk
Timing for Total SCF: 2199.00s (wall), 15398.79s (cpu)
<S^2> of ct_allowed wavefunction after ct-allowed iterations 0.0000000000

================================
        Results of EDA2         
================================
Basic EDA Quantities
--------------------
Fragment Energies (Ha):
1 -346.8082091562
2 -346.8130932744
--------------------
  E_prp (kJ/mol) = 0.0000
  E_sol (kJ/mol) = 2.6201
  E_frz (kJ/mol) = -8.3315
  E_pol (kJ/mol) = -0.4988
  E_vct (kJ/mol) = -1.8136
  E_int (kJ/mol) = -8.0237
--------------------


Initial Wavefunction Decomposition
--------------------
  --------------------
  Orthogonal Fragment Subspace Decomposition:
  --------------------
     E_elec   (ELEC)   (kJ/mol) = -19.1131
     E_pauli  (PAULI)  (kJ/mol) = 23.3459
     E_disp   (DISP)   (kJ/mol) = -12.5642
     --------------------
     Terms summing to E_pauli:
     --------------------
        E_kep_pauli       (kJ/mol) = 30.2316
        E_disp_free_pauli (kJ/mol) = -6.8858
  --------------------
  Classical Frozen Decomposition:
  --------------------
     E_cls_elec  (CLS ELEC)  (kJ/mol) = -8.3740
     E_cls_pauli (CLS PAULI) (kJ/mol) = 0.0426
    [E_mod_pauli (MOD PAULI) (kJ/mol) = 12.6068 (CLS PAULI - DISP from orthogonal decomposition) ]
  --------------------
--------------------

Simplified EDA Summary (kJ/mol)
--------------------
 PREPARATION     0.0000
 SOLVATION       2.6201
 FROZEN          4.2327      (does not include dispersion)
[PAULI           23.3459]     (if this is negligible, then frozen describes electrostatics)
 DISPERSION      -12.5642
 POLARIZATION    -0.4988
 CHARGE TRANSFER -1.8136
 TOTAL           -8.0237     (PRP + SOL + FRZ + DISP + POL + CT)
--------------------

 --------------------------------------------------------------

                    Orbital Energies (a.u.)
 --------------------------------------------------------------

 Alpha MOs
 -- Occupied --
-19.2446 -19.2434 -10.3295 -10.3291 -10.2764 -10.2757 -10.2736 -10.2724
-10.2722 -10.2708 -10.2664 -10.2663 -10.2661 -10.2650 -10.2619 -10.2608
 -1.2030  -1.1896  -0.9995  -0.9965  -0.9054  -0.8978  -0.8891  -0.8845
 -0.8117  -0.8071  -0.7517  -0.7476  -0.7163  -0.7125  -0.6683  -0.6647
 -0.6072  -0.6036  -0.5817  -0.5807  -0.5590  -0.5520  -0.5434  -0.5383
 -0.5376  -0.5316  -0.5260  -0.5221  -0.5105  -0.5079  -0.4795  -0.4724
 -0.4565  -0.4537  -0.4443  -0.4429  -0.4401  -0.4335  -0.3555  -0.3523
 -0.3169  -0.3080
 -- Virtual --
  0.0517   0.0564   0.0576   0.0621   0.0670   0.0727   0.0757   0.0810
  0.0851   0.0915   0.0951   0.0979   0.1031   0.1085   0.1135   0.1213
  0.1271   0.1324   0.1377   0.1411   0.1509   0.1522   0.1554   0.1587
  0.1657   0.1705   0.1808   0.1831   0.1870   0.1904   0.1943   0.2021
  0.2046   0.2097   0.2142   0.2153   0.2252   0.2265   0.2310   0.2343
  0.2413   0.2464   0.2503   0.2513   0.2538   0.2583   0.2590   0.2646
  0.2688   0.2700   0.2729   0.2797   0.2814   0.2860   0.2886   0.2909
  0.2931   0.2945   0.2982   0.3033   0.3048   0.3064   0.3147   0.3165
  0.3227   0.3258   0.3276   0.3286   0.3309   0.3328   0.3384   0.3419
  0.3444   0.3491   0.3508   0.3551   0.3560   0.3608   0.3616   0.3643
  0.3665   0.3683   0.3716   0.3729   0.3769   0.3793   0.3854   0.3870
  0.3912   0.3929   0.3937   0.3981   0.4027   0.4054   0.4074   0.4094
  0.4138   0.4162   0.4165   0.4230   0.4277   0.4288   0.4329   0.4364
  0.4379   0.4427   0.4459   0.4495   0.4506   0.4526   0.4577   0.4630
  0.4662   0.4691   0.4699   0.4732   0.4761   0.4808   0.4833   0.4868
  0.4894   0.4899   0.4953   0.4966   0.4994   0.5029   0.5079   0.5134
  0.5160   0.5173   0.5209   0.5227   0.5269   0.5343   0.5371   0.5389
  0.5440   0.5480   0.5490   0.5523   0.5584   0.5608   0.5666   0.5679
  0.5727   0.5754   0.5797   0.5834   0.5863   0.5922   0.5938   0.5959
  0.5997   0.6006   0.6113   0.6177   0.6244   0.6278   0.6312   0.6352
  0.6365   0.6436   0.6499   0.6535   0.6604   0.6664   0.6718   0.6773
  0.6802   0.6845   0.6885   0.6922   0.6963   0.7021   0.7067   0.7104
  0.7122   0.7168   0.7198   0.7220   0.7268   0.7296   0.7350   0.7381
  0.7405   0.7425   0.7456   0.7496   0.7532   0.7565   0.7605   0.7633
  0.7685   0.7739   0.7757   0.7796   0.7835   0.7851   0.7880   0.7909
  0.7943   0.7956   0.7978   0.8018   0.8044   0.8074   0.8101   0.8150
  0.8175   0.8266   0.8313   0.8323   0.8334   0.8358   0.8443   0.8462
  0.8503   0.8554   0.8594   0.8617   0.8651   0.8682   0.8739   0.8757
  0.8782   0.8850   0.8887   0.8907   0.8993   0.9022   0.9053   0.9089
  0.9151   0.9160   0.9239   0.9289   0.9358   0.9448   0.9476   0.9519
  0.9610   0.9724   0.9794   0.9810   0.9848   0.9903   0.9936   1.0076
  1.0123   1.0197   1.0252   1.0270   1.0352   1.0449   1.0481   1.0551
  1.0572   1.0615   1.0673   1.0685   1.0807   1.0832   1.0886   1.0943
  1.1075   1.1135   1.1169   1.1233   1.1326   1.1386   1.1517   1.1610
  1.1638   1.1723   1.1842   1.2000   1.2065   1.2154   1.2358   1.2400
  1.2678   1.2751   1.2781   1.2951   1.3030   1.3177   1.3292   1.3395
  1.3442   1.3492   1.3649   1.3814   1.3915   1.3929   1.4046   1.4075
  1.4135   1.4271   1.4307   1.4404   1.4499   1.4706   1.4733   1.4805
  1.4850   1.4936   1.5009   1.5056   1.5219   1.5298   1.5447   1.5496
  1.5658   1.5841   1.5958   1.6077   1.6271   1.6391   1.6466   1.6553
  1.6619   1.6663   1.6794   1.7035   1.7108   1.7230   1.7348   1.7376
  1.7416   1.7578   1.7624   1.7830   1.8094   1.8188   1.8260   1.8396
  1.8453   1.8545   1.8605   1.8670   1.8772   1.8876   1.8967   1.9134
  1.9221   1.9304   1.9396   1.9431   1.9515   1.9593   1.9697   1.9749
  1.9831   1.9851   1.9989   2.0052   2.0126   2.0177   2.0371   2.0436
  2.0467   2.0504   2.0600   2.0669   2.0679   2.0799   2.0843   2.0948
  2.1052   2.1123   2.1243   2.1376   2.1436   2.1539   2.1618   2.1703
  2.1743   2.1861   2.2054   2.2186   2.2224   2.2308   2.2464   2.2510
  2.2638   2.2679   2.2769   2.2791   2.2948   2.3047   2.3168   2.3282
  2.3422   2.3474   2.3543   2.3753   2.3789   2.4073   2.4096   2.4202
  2.4266   2.4307   2.4389   2.4497   2.4614   2.4790   2.4897   2.4924
  2.5085   2.5280   2.5464   2.5493   2.5599   2.5834   2.5895   2.5960
  2.6014   2.6154   2.6309   2.6365   2.6438   2.6476   2.6522   2.6683
  2.6765   2.6826   2.7085   2.7188   2.7256   2.7503   2.7623   2.7627
  2.7755   2.7826   2.7907   2.7969   2.8051   2.8143   2.8245   2.8354
  2.8542   2.8599   2.8606   2.8881   2.8886   2.9016   2.9055   2.9163
  2.9305   2.9405   2.9472   2.9536   2.9587   2.9665   2.9684   2.9813
  2.9874   2.9954   3.0022   3.0100   3.0242   3.0329   3.0376   3.0453
  3.0615   3.0657   3.0730   3.0782   3.0897   3.0965   3.1121   3.1233
  3.1316   3.1536   3.1579   3.1619   3.1751   3.1825   3.1969   3.1995
  3.2081   3.2139   3.2248   3.2369   3.2425   3.2539   3.2599   3.2744
  3.2777   3.2966   3.2997   3.3005   3.3074   3.3163   3.3269   3.3413
  3.3560   3.3749   3.3827   3.3862   3.3951   3.4111   3.4147   3.4180
  3.4305   3.4329   3.4387   3.4520   3.4578   3.4648   3.4656   3.4721
  3.4780   3.4900   3.5019   3.5043   3.5125   3.5181   3.5226   3.5374
  3.5454   3.5529   3.5567   3.5583   3.5678   3.5690   3.5720   3.5745
  3.5804   3.5898   3.5952   3.6033   3.6065   3.6172   3.6298   3.6362
  3.6460   3.6503   3.6550   3.6693   3.6802   3.6965   3.7044   3.7140
  3.7186   3.7214   3.7303   3.7409   3.7499   3.7662   3.7728   3.7877
  3.8163   3.8261   3.8496   3.8531   3.8636   3.9282   3.9374   3.9454
  3.9548   3.9670   3.9852   3.9900   3.9970   4.0181   4.0316   4.0684
  4.0735   4.0972   4.1021   4.1558   4.1659   4.1801   4.2013   4.2499
  4.2690   4.2777   4.2881   4.3016   4.3125   4.3169   4.3257   4.3466
  4.3501   4.3592   4.3678   4.3700   4.3825   4.3905   4.4053   4.4105
  4.4243   4.4371   4.4457   4.4574   4.4661   4.4746   4.4894   4.5135
  4.5401   4.5667   4.5954   4.6163   4.6210   4.6402   4.6788   4.7617
  4.7646   4.7742   4.7798   4.8056   4.8203   4.8223   4.8346   4.8545
  4.8968   4.9370   4.9511   5.0329   5.0475   5.0764   5.0844   5.1031
  5.1163   5.1391   5.1469   5.1702   5.2075   5.3032   5.3202   5.3471
  5.3786   5.4179   5.4452   5.4577   5.4728   5.5175   5.5502   5.5835
  5.5993   5.6780   5.6860   5.7329   5.7442   5.7663   5.7889   5.9533
  6.0364   6.1747   6.2100   6.4942   6.5256   6.5673   6.5798   6.6655
  6.7435   6.8902   6.9035   7.0001   7.0540   7.2934   7.3407   7.4401
  7.4758  22.6795  22.6837  22.7094  22.7497  22.9833  22.9948  23.0212
 23.0495  23.0812  23.1368  23.2438  23.2635  23.5824  23.5911  44.4659
 44.4824
 --------------------------------------------------------------

          Ground-State Mulliken Net Atomic Charges

     Atom                 Charge (a.u.)
  ----------------------------------------
      1 C                    -1.038432
      2 C                    -0.309011
      3 C                     0.587007
      4 C                    -0.635867
      5 C                    -0.564127
      6 C                     0.754984
      7 C                    -0.517418
      8 O                    -0.500023
      9 H                     0.239385
     10 H                     0.310333
     11 H                     0.235226
     12 H                     0.280399
     13 H                     0.345019
     14 H                     0.299626
     15 H                     0.331865
     16 H                     0.218739
     17 C                    -1.066555
     18 C                    -0.199082
     19 C                     0.550903
     20 C                    -0.680702
     21 C                     0.441273
     22 C                    -0.478904
     23 C                    -0.498928
     24 O                    -0.434577
     25 H                     0.313130
     26 H                     0.317866
     27 H                     0.313598
     28 H                     0.275658
     29 H                     0.250621
     30 H                     0.271151
     31 H                     0.355330
     32 H                     0.231513
  ----------------------------------------
  Sum of atomic charges =     0.000000

 -----------------------------------------------------------------
                    Cartesian Multipole Moments
 -----------------------------------------------------------------
    Charge (ESU x 10^10)
                -0.0000
    Dipole Moment (Debye)
         X      -2.1144      Y       1.1531      Z      -0.6213
       Tot       2.4872
    Quadrupole Moments (Debye-Ang)
        XX     -86.7648     XY      11.3593     YY     -94.1005
        XZ     -11.0478     YZ      -2.6780     ZZ     -81.9325
    Octopole Moments (Debye-Ang^2)
       XXX     -51.1817    XXY       9.8313    XYY      20.4966
       YYY      18.0023    XXZ     -17.1696    XYZ     -14.3389
       YYZ       0.6156    XZZ      -1.3901    YZZ      -1.3475
       ZZZ      -2.1293
    Hexadecapole Moments (Debye-Ang^3)
      XXXX   -4676.4900   XXXY    -708.9693   XXYY    -982.3340
      XYYY    -888.6314   YYYY   -1316.5314   XXXZ    -424.7701
      XXYZ    -181.1576   XYYZ     -85.2707   YYYZ    -330.9237
      XXZZ    -878.6953   XYZZ    -240.4120   YYZZ    -467.6046
      XZZZ    -401.3696   YZZZ    -364.3223   ZZZZ   -1336.9395
 -----------------------------------------------------------------
Archival summary:
1\1\compute-0-1.local\SP\ProcedureUnspecified\BasisUnspecified\21416\meili\FriOct121:49:562021FriOct121:49:562021\0\\#,ProcedureUnspecified,BasisUnspecified,\\0,1\O\H,1,0.979079\C,1,1.37373,2,110.662\C,3,1.36171,1,116.992,2,3.97915,0\H,4,1.06932,3,118.059,1,6.09697,0\C,3,1.37503,1,123.191,2,-177.095,0\H,6,1.07866,3,119.616,1,-0.0123679,0\C,4,1.38505,3,120.949,1,179.545,0\H,8,1.08319,4,119.398,3,-178.425,0\C,8,1.38611,4,120.715,3,1.38024,0\C,10,1.39531,8,118.218,4,-2.60711,0\H,11,1.08134,10,120.066,8,-178.375,0\C,10,1.50624,8,119.906,4,-179.249,0\H,13,1.08976,10,109.836,8,-173.105,0\H,13,1.09084,10,107.665,8,-55.9402,0\H,13,1.1,10,111.845,8,63.9768,0\H,7,2.53388,6,127.493,3,8.4125,0\C,17,1.06655,7,93.5971,6,-166.995,0\C,18,1.35752,17,118.939,7,-59.4755,0\H,19,1.08013,18,120.664,17,-10.4954,0\C,18,1.39036,17,119.491,7,107.805,0\C,19,1.4016,18,119.731,17,166.186,0\O,22,1.32874,19,120.039,18,-179.14,0\H,23,0.98617,22,111.565,19,152.474,0\C,22,1.37179,19,121.629,18,-2.21831,0\H,25,1.08015,22,121.219,19,-178.019,0\C,25,1.38665,22,118.115,19,3.98194,0\H,27,1.08198,25,119.448,22,176.748,0\C,21,1.51384,18,120.481,17,18.5498,0\H,29,1.09144,21,109.35,18,-142.866,0\H,29,1.09155,21,111.061,18,-22.2591,0\H,29,1.1,21,106.786,18,98.2245,0\\\@

 Total job time:  38170.45s(wall), 76566.89s(cpu) 
 Fri Oct  1 21:49:56 2021

        *************************************************************
        *                                                           *
        *  Thank you very much for using Q-Chem.  Have a nice day.  *
        *                                                           *
        *************************************************************


