
Running Job 1 of 1 SSI-007PHE-021PHE-1_SMD_TZVPD.in
qchem SSI-007PHE-021PHE-1_SMD_TZVPD.in_61346.0 /tmp/qchem61346/ 0
/global/common/cori/software/qchem/5.2/exe/qcprog.exe_s SSI-007PHE-021PHE-1_SMD_TZVPD.in_61346.0 /tmp/qchem61346/
                  Welcome to Q-Chem
     A Quantum Leap Into The Future Of Chemistry


 Q-Chem 5.2, Q-Chem, Inc., Pleasanton, CA (2019)

 License issued to: National Energy Research Scientific Computing Center

 Yihan Shao,  Zhengting Gan,  E. Epifanovsky,  A. T. B. Gilbert,  M. Wormit,  
 J. Kussmann,  A. W. Lange,  A. Behn,  Jia Deng,  Xintian Feng,  D. Ghosh,  
 M. Goldey,  P. R. Horn,  L. D. Jacobson,  I. Kaliman,  T. Kus,  A. Landau,  
 Jie Liu,  E. I. Proynov,  R. M. Richard,  R. P. Steele,  E. J. Sundstrom,  
 H. L. Woodcock III,  P. M. Zimmerman,  D. Zuev,  B. Albrecht,  E. Alguire,  
 S. A. Baeppler,  D. Barton,  Z. Benda,  Y. A. Bernard,  E. J. Berquist,  
 K. B. Bravaya,  H. Burton,  D. Casanova,  Chun-Min Chang,  Yunqing Chen,  
 A. Chien,  K. D. Closser,  M. P. Coons,  S. Coriani,  S. Dasgupta,  
 A. L. Dempwolff,  M. Diedenhofen,  Hainam Do,  R. G. Edgar,  Po-Tung Fang,  
 S. Faraji,  S. Fatehi,  Qingguo Feng,  K. D. Fenk,  J. Fosso-Tande,  
 J. Gayvert,  Qinghui Ge,  A. Ghysels,  G. Gidofalvi,  J. Gomes,  
 J. Gonthier,  A. Gunina,  D. Hait,  M. W. D. Hanson-Heine,  
 P. H. P. Harbach,  A. W. Hauser,  M. F. Herbst,  J. E. Herr,  
 E. G. Hohenstein,  Z. C. Holden,  Kerwin Hui,  B. C. Huynh,  T.-C. Jagau,  
 Hyunjun Ji,  B. Kaduk,  K. Khistyaev,  Jaehoon Kim,  P. Klunzinger,  K. Koh,  
 D. Kosenkov,  L. Koulias,  T. Kowalczyk,  C. M. Krauter,  A. Kunitsa,  
 Ka Un Lao,  A. Laurent,  K. V. Lawler,  Joonho Lee,  D. Lefrancois,  
 S. Lehtola,  D. S. Levine,  Yi-Pei Li,  You-Sheng Lin,  Fenglai Liu,  
 E. Livshits,  A. Luenser,  P. Manohar,  E. Mansoor,  S. F. Manzer,  
 Shan-Ping Mao,  Yuezhi Mao,  N. Mardirossian,  A. V. Marenich,  
 T. Markovich,  L. A. Martinez-Martinez,  S. A. Maurer,  N. J. Mayhall,  
 S. C. McKenzie,  J.-M. Mewes,  P. Morgante,  A. F. Morrison,  
 J. W. Mullinax,  K. Nanda,  T. S. Nguyen-Beck,  R. Olivares-Amaya,  
 J. A. Parkhill,  Zheng Pei,  T. M. Perrine,  F. Plasser,  P. Pokhilko,  
 S. Prager,  A. Prociuk,  E. Ramos,  D. R. Rehn,  F. Rob,  M. Scheurer,  
 M. Schneider,  N. Sergueev,  S. M. Sharada,  S. Sharma,  D. W. Small,  
 T. Stauch,  T. Stein,  Yu-Chuan Su,  A. J. W. Thom,  A. Tkatchenko,  
 T. Tsuchimochi,  N. M. Tubman,  L. Vogt,  M. L. Vidal,  O. Vydrov,  
 M. A. Watson,  J. Wenzel,  M. de Wergifosse,  T. A. Wesolowski,  A. White,  
 J. Witte,  A. Yamada,  Jun Yang,  K. Yao,  S. Yeganeh,  S. R. Yost,  
 Zhi-Qiang You,  A. Zech,  Igor Ying Zhang,  Xing Zhang,  Yan Zhao,  
 Ying Zhu,  B. R. Brooks,  G. K. L. Chan,  C. J. Cramer,  M. S. Gordon,  
 W. J. Hehre,  A. Klamt,  M. W. Schmidt,  C. D. Sherrill,  D. G. Truhlar,  
 A. Aspuru-Guzik,  R. Baer,  A. T. Bell,  N. A. Besley,  Jeng-Da Chai,  
 A. E. DePrince, III,  R. A. DiStasio Jr.,  A. Dreuw,  B. D. Dunietz,  
 T. R. Furlani,  Chao-Ping Hsu,  Yousung Jung,  Jing Kong,  D. S. Lambrecht,  
 WanZhen Liang,  C. Ochsenfeld,  V. A. Rassolov,  L. V. Slipchenko,  
 J. E. Subotnik,  T. Van Voorhis,  J. M. Herbert,  A. I. Krylov,  
 P. M. W. Gill,  M. Head-Gordon

 Contributors to earlier versions of Q-Chem not listed above: 
 R. D. Adamson,  B. Austin,  J. Baker,  G. J. O. Beran,  K. Brandhorst,  
 S. T. Brown,  E. F. C. Byrd,  A. K. Chakraborty,  C.-L. Cheng,  
 Siu Hung Chien,  D. M. Chipman,  D. L. Crittenden,  H. Dachsel,  
 R. J. Doerksen,  A. D. Dutoi,  L. Fusti-Molnar,  W. A. Goddard III,  
 A. Golubeva-Zadorozhnaya,  S. R. Gwaltney,  G. Hawkins,  A. Heyden,  
 S. Hirata,  G. Kedziora,  F. J. Keil,  C. Kelley,  Jihan Kim,  R. A. King,  
 R. Z. Khaliullin,  P. P. Korambath,  W. Kurlancheek,  A. M. Lee,  M. S. Lee,  
 S. V. Levchenko,  Ching Yeh Lin,  D. Liotard,  R. C. Lochan,  I. Lotan,  
 P. E. Maslen,  N. Nair,  D. P. O'Neill,  D. Neuhauser,  E. Neuscamman,  
 C. M. Oana,  R. Olson,  B. Peters,  R. Peverati,  P. A. Pieniazek,  
 Y. M. Rhee,  J. Ritchie,  M. A. Rohrdanz,  E. Rosta,  N. J. Russ,  
 H. F. Schaefer III,  N. E. Schultz,  N. Shenvi,  A. C. Simmonett,  A. Sodt,  
 D. Stuck,  K. S. Thanthiriwatte,  V. Vanovschi,  Tao Wang,  A. Warshel,  
 C. F. Williams,  Q. Wu,  X. Xu,  W. Zhang

 Please cite Q-Chem as follows:
 Y. Shao et al., Mol. Phys. 113, 184-215 (2015)
 DOI: 10.1080/00268976.2014.952696

 Q-Chem 5.2.0 for Intel X86 EM64T Linux

 Parts of Q-Chem use Armadillo 8.300.2 (Tropical Shenanigans).
 http://arma.sourceforge.net/

 Q-Chem begins on Sun Sep 26 01:58:27 2021  

Host: cori01
0

     Scratch files written to /tmp/qchem61346//
 May1019 |scratch|qcdevops|jenkins|workspace|build_RNUM -1
Processing $rem in /global/common/cori/software/qchem/5.2/config/preferences:
	 MEM_TOTAL  96000 
NAlpha2: 100
NElect   100
Mult     1
Symmetry turned off for PCM/SM12/SMD calculation

 Q-Chem warning in module libgen/rem_setup.C, line 2803:

 Neither GIA nor STOLL is specified by user. Use STOLL as the default


Checking the input file for inconsistencies... 	...done.

--------------------------------------------------------------
User input:
--------------------------------------------------------------
$comment
SSI-007PHE-021PHE-1.pdb
$end

$molecule
0 1
--
0 1
C   -1.918016645741    0.755736484826    3.150744154842
C   -1.680016645741    1.886736484826    0.949744154842
C   -1.110016645741    1.558736484826    2.171744154842
C   -0.979016645741    2.631736484826    0.008744154842
C    0.194983354259    1.978736484826    2.432744154842
C    0.313983354259    3.047736484826    0.282744154842
C    0.897983354259    2.727736484826    1.486744154842
H   -2.684016645741    1.557736484826    0.721744154842
H   -1.433016645741    2.846736484826   -0.943255845158
H   -2.303016645741   -0.119263515174    2.638744154842
H   -2.772016645741    1.372736484826    3.433744154842
H    0.663983354259    1.803736484826    3.371744154842
H    0.860983354259    3.632736484826   -0.443255845158
H    1.903983354259    3.062736484826    1.699744154842
H   -1.405046645741    0.445652484826    4.073084154842
--
0 1
C    2.723983354259   -3.237263515174   -1.978255845158
C   -0.948016645741   -1.166263515174   -1.186255845158
C   -0.881016645741   -2.093263515174   -2.214255845158
C    0.176983354259   -0.917263515174   -0.408255845158
C    0.309983354259   -2.762263515174   -2.470255845158
C    1.366983354259   -1.587263515174   -0.666255845158
C    1.436983354259   -2.518263515174   -1.696255845158
H   -1.873016645741   -0.649263515174   -0.972255845158
H   -1.747016645741   -2.323263515174   -2.806255845158
H    0.130983354259   -0.196263515174    0.393744154842
H    0.355983354259   -3.479263515174   -3.277255845158
H    2.235983354259   -1.379263515174   -0.060255845158
H    3.544983354259   -2.569263515174   -1.710255845158
H    2.805983354259   -3.445263515174   -3.042255845158
H    2.836296354259   -4.196246515174   -1.451245845158
$end

$rem
JOBTYPE			EDA
EDA2			1
method			wB97X-V
BASIS			def2-TZVPD
XC_GRID			000099000590
NL_GRID			1
UNRESTRICTED		FALSE
MAX_SCF_CYCLES		200
SYMMETRY		FALSE
SYM_IGNORE		TRUE
MEM_STATIC		2000
BASIS_LIN_DEP_THRESH 	6
THRESH 			14
SCF_CONVERGENCE 	8
SCF_PRINT_FRGM 		TRUE
SOLVENT_METHOD          SMD
$end

$SMX
SOLVENT			WATER
$END
--------------------------------------------------------------
 ----------------------------------------------------------------
             Standard Nuclear Orientation (Angstroms)
    I     Atom           X                Y                Z
 ----------------------------------------------------------------
    1      C      -1.9180166457     0.7557364848     3.1507441548
    2      C      -1.6800166457     1.8867364848     0.9497441548
    3      C      -1.1100166457     1.5587364848     2.1717441548
    4      C      -0.9790166457     2.6317364848     0.0087441548
    5      C       0.1949833543     1.9787364848     2.4327441548
    6      C       0.3139833543     3.0477364848     0.2827441548
    7      C       0.8979833543     2.7277364848     1.4867441548
    8      H      -2.6840166457     1.5577364848     0.7217441548
    9      H      -1.4330166457     2.8467364848    -0.9432558452
   10      H      -2.3030166457    -0.1192635152     2.6387441548
   11      H      -2.7720166457     1.3727364848     3.4337441548
   12      H       0.6639833543     1.8037364848     3.3717441548
   13      H       0.8609833543     3.6327364848    -0.4432558452
   14      H       1.9039833543     3.0627364848     1.6997441548
   15      H      -1.4050466457     0.4456524848     4.0730841548
   16      C       2.7239833543    -3.2372635152    -1.9782558452
   17      C      -0.9480166457    -1.1662635152    -1.1862558452
   18      C      -0.8810166457    -2.0932635152    -2.2142558452
   19      C       0.1769833543    -0.9172635152    -0.4082558452
   20      C       0.3099833543    -2.7622635152    -2.4702558452
   21      C       1.3669833543    -1.5872635152    -0.6662558452
   22      C       1.4369833543    -2.5182635152    -1.6962558452
   23      H      -1.8730166457    -0.6492635152    -0.9722558452
   24      H      -1.7470166457    -2.3232635152    -2.8062558452
   25      H       0.1309833543    -0.1962635152     0.3937441548
   26      H       0.3559833543    -3.4792635152    -3.2772558452
   27      H       2.2359833543    -1.3792635152    -0.0602558452
   28      H       3.5449833543    -2.5692635152    -1.7102558452
   29      H       2.8059833543    -3.4452635152    -3.0422558452
   30      H       2.8362963543    -4.1962465152    -1.4512458452
 ----------------------------------------------------------------
 Nuclear Repulsion Energy =         783.07106545 hartrees
 There are       50 alpha and       50 beta electrons
 Requested basis set is def2-TZVPD
 There are 262 shells and 662 basis functions

 Total QAlloc Memory Limit  96000 MB
 Mega-Array Size      1956 MB
 MEM_STATIC part      2000 MB
 
 Citation of the SMD model:
 Marenich, A.V.; Cramer, C.J.; Truhlar, D.G.
 J. Phys. Chem. B 2009, 113, 6378-6396.
 iSolventCode=           1
 Solvent: water                                                           
 
 vradii
            1           2           3           4           5           6
    1   1.8500000   1.8500000   1.8500000   1.8500000   1.8500000   1.8500000
            7           8           9          10          11          12
    1   1.8500000   1.2000000   1.2000000   1.2000000   1.2000000   1.2000000
           13          14          15          16          17          18
    1   1.2000000   1.2000000   1.2000000   1.8500000   1.8500000   1.8500000
           19          20          21          22          23          24
    1   1.8500000   1.8500000   1.8500000   1.8500000   1.2000000   1.2000000
           25          26          27          28          29          30
    1   1.2000000   1.2000000   1.2000000   1.2000000   1.2000000   1.2000000
 Changing PCM_VDW_RADII to SMD_RADIUS
 Discretize the solute cavity surface with Lebedev spheres
	Using 110 Lebedev grid points for each H atom
	Using 194 Lebedev grid points for other atoms
	Atomic van der Waals radii will be scaled by 1.20
 Remove points where switching function is < 1.0e-08
 Keep 2180 surface tesserae and discard 2296 interior tesserae
 Molecular Surface Area = 258.719 Angst**2
 A cutoff of  1.0D-14 yielded  29435 shell pairs
 There are    188595 function pairs (    237797 Cartesian)
 Smallest overlap matrix eigenvalue = 4.34E-07
 Linear dependence detected in AO basis
 Tighter screening thresholds may be required for diffuse basis sets
 Use S2THRESH > 14 and THRESH = 14 in case of SCF convergence issues
 Number of orthogonalized atomic orbitals = 659
 Maximum deviation from orthogonality = 1.581E-10

 Scale SEOQF with 1.000000e-01/1.000000e-01/1.000000e-01

 Standard Electronic Orientation quadrupole field applied
 Nucleus-field energy     =     0.0000000060 hartrees

 -----------------------------------------------------------------------
  General SCF calculation program by
  Eric Jon Sundstrom, Paul Horn, Yuezhi Mao, Dmitri Zuev, Alec White,
  David Stuck, Shaama M.S., Shane Yost, Joonho Lee, David Small,
  Daniel Levine, Susi Lehtola, Hugh Burton, Evgeny Epifanovsky
 -----------------------------------------------------------------------
================================================================
                 ALMO-EDA with the EDA2 driver                  
================================================================
 The second-generation ALMO-EDA (for DFT):                      
 P. R. Horn, Y. Mao and M. Head-Gordon, PCCP, 18, 23067 (2016)  
 Decomposition of the frozen energy:                            
 P. R. Horn, Y. Mao and M. Head-Gordon, JCP, 144, 114107 (2016) 
 FERF model for polarization:                                   
 P. R. Horn and M. Head-Gordon, JCP, 143, 114111 (2015)         
Using eda2 option set 1
Option set summary: Frozen orbital wavefunction, initial wavefunction decomposition, and nDQ polarization.
--------------------------------
Printing EDA Options
--------------------------------
eda_child_super_basis      0
fragmo_guess_mode          0
child_mp                   1
child_mp_orders            232
cls_elec                   1
cls_disp                   0
scfmi_mode                 1
scfmi_occs                 0
scfmi_virts                0
frz_relax                  0
frz_relax_method           0
dc_pen_start               0
dc_pen_conv                0
dc_pen_increment           0
dc_pen_steps               0
dc_pen_thresh_factor       0
dc_pen_pre_newton_thresh   0
frz_ortho_decomp           1
frz_ortho_decomp_conv      6
frgm_method                2
scfmi_freeze_ss            0
separate_rehyb             0
plot_diff_den              0
eda_nocv                   0
eda_vct_relax              1
disp_free_x                0
disp_free_c                0
eda_bsse                   0
eda_pct_a                  0
eda_covp                   0
--------------------------------
Attempting to make child job directory: /tmp/qchem61346//Frg1/
Attempting to make child job directory: /tmp/qchem61346//Frg2/
Creating input file /tmp/qchem61346/Frg1.input
using default PutDataFrgm: nothing
calling putenv with: QCSCRATCH=/tmp/qchem61346/ 
calling putenv with: QCLOCALSCR=/tmp/qchem61346/ 
Spawning Job For Fragment 0
                  Welcome to Q-Chem
     A Quantum Leap Into The Future Of Chemistry


 Q-Chem 5.2, Q-Chem, Inc., Pleasanton, CA (2019)

 License issued to: National Energy Research Scientific Computing Center

 Yihan Shao,  Zhengting Gan,  E. Epifanovsky,  A. T. B. Gilbert,  M. Wormit,  
 J. Kussmann,  A. W. Lange,  A. Behn,  Jia Deng,  Xintian Feng,  D. Ghosh,  
 M. Goldey,  P. R. Horn,  L. D. Jacobson,  I. Kaliman,  T. Kus,  A. Landau,  
 Jie Liu,  E. I. Proynov,  R. M. Richard,  R. P. Steele,  E. J. Sundstrom,  
 H. L. Woodcock III,  P. M. Zimmerman,  D. Zuev,  B. Albrecht,  E. Alguire,  
 S. A. Baeppler,  D. Barton,  Z. Benda,  Y. A. Bernard,  E. J. Berquist,  
 K. B. Bravaya,  H. Burton,  D. Casanova,  Chun-Min Chang,  Yunqing Chen,  
 A. Chien,  K. D. Closser,  M. P. Coons,  S. Coriani,  S. Dasgupta,  
 A. L. Dempwolff,  M. Diedenhofen,  Hainam Do,  R. G. Edgar,  Po-Tung Fang,  
 S. Faraji,  S. Fatehi,  Qingguo Feng,  K. D. Fenk,  J. Fosso-Tande,  
 J. Gayvert,  Qinghui Ge,  A. Ghysels,  G. Gidofalvi,  J. Gomes,  
 J. Gonthier,  A. Gunina,  D. Hait,  M. W. D. Hanson-Heine,  
 P. H. P. Harbach,  A. W. Hauser,  M. F. Herbst,  J. E. Herr,  
 E. G. Hohenstein,  Z. C. Holden,  Kerwin Hui,  B. C. Huynh,  T.-C. Jagau,  
 Hyunjun Ji,  B. Kaduk,  K. Khistyaev,  Jaehoon Kim,  P. Klunzinger,  K. Koh,  
 D. Kosenkov,  L. Koulias,  T. Kowalczyk,  C. M. Krauter,  A. Kunitsa,  
 Ka Un Lao,  A. Laurent,  K. V. Lawler,  Joonho Lee,  D. Lefrancois,  
 S. Lehtola,  D. S. Levine,  Yi-Pei Li,  You-Sheng Lin,  Fenglai Liu,  
 E. Livshits,  A. Luenser,  P. Manohar,  E. Mansoor,  S. F. Manzer,  
 Shan-Ping Mao,  Yuezhi Mao,  N. Mardirossian,  A. V. Marenich,  
 T. Markovich,  L. A. Martinez-Martinez,  S. A. Maurer,  N. J. Mayhall,  
 S. C. McKenzie,  J.-M. Mewes,  P. Morgante,  A. F. Morrison,  
 J. W. Mullinax,  K. Nanda,  T. S. Nguyen-Beck,  R. Olivares-Amaya,  
 J. A. Parkhill,  Zheng Pei,  T. M. Perrine,  F. Plasser,  P. Pokhilko,  
 S. Prager,  A. Prociuk,  E. Ramos,  D. R. Rehn,  F. Rob,  M. Scheurer,  
 M. Schneider,  N. Sergueev,  S. M. Sharada,  S. Sharma,  D. W. Small,  
 T. Stauch,  T. Stein,  Yu-Chuan Su,  A. J. W. Thom,  A. Tkatchenko,  
 T. Tsuchimochi,  N. M. Tubman,  L. Vogt,  M. L. Vidal,  O. Vydrov,  
 M. A. Watson,  J. Wenzel,  M. de Wergifosse,  T. A. Wesolowski,  A. White,  
 J. Witte,  A. Yamada,  Jun Yang,  K. Yao,  S. Yeganeh,  S. R. Yost,  
 Zhi-Qiang You,  A. Zech,  Igor Ying Zhang,  Xing Zhang,  Yan Zhao,  
 Ying Zhu,  B. R. Brooks,  G. K. L. Chan,  C. J. Cramer,  M. S. Gordon,  
 W. J. Hehre,  A. Klamt,  M. W. Schmidt,  C. D. Sherrill,  D. G. Truhlar,  
 A. Aspuru-Guzik,  R. Baer,  A. T. Bell,  N. A. Besley,  Jeng-Da Chai,  
 A. E. DePrince, III,  R. A. DiStasio Jr.,  A. Dreuw,  B. D. Dunietz,  
 T. R. Furlani,  Chao-Ping Hsu,  Yousung Jung,  Jing Kong,  D. S. Lambrecht,  
 WanZhen Liang,  C. Ochsenfeld,  V. A. Rassolov,  L. V. Slipchenko,  
 J. E. Subotnik,  T. Van Voorhis,  J. M. Herbert,  A. I. Krylov,  
 P. M. W. Gill,  M. Head-Gordon

 Contributors to earlier versions of Q-Chem not listed above: 
 R. D. Adamson,  B. Austin,  J. Baker,  G. J. O. Beran,  K. Brandhorst,  
 S. T. Brown,  E. F. C. Byrd,  A. K. Chakraborty,  C.-L. Cheng,  
 Siu Hung Chien,  D. M. Chipman,  D. L. Crittenden,  H. Dachsel,  
 R. J. Doerksen,  A. D. Dutoi,  L. Fusti-Molnar,  W. A. Goddard III,  
 A. Golubeva-Zadorozhnaya,  S. R. Gwaltney,  G. Hawkins,  A. Heyden,  
 S. Hirata,  G. Kedziora,  F. J. Keil,  C. Kelley,  Jihan Kim,  R. A. King,  
 R. Z. Khaliullin,  P. P. Korambath,  W. Kurlancheek,  A. M. Lee,  M. S. Lee,  
 S. V. Levchenko,  Ching Yeh Lin,  D. Liotard,  R. C. Lochan,  I. Lotan,  
 P. E. Maslen,  N. Nair,  D. P. O'Neill,  D. Neuhauser,  E. Neuscamman,  
 C. M. Oana,  R. Olson,  B. Peters,  R. Peverati,  P. A. Pieniazek,  
 Y. M. Rhee,  J. Ritchie,  M. A. Rohrdanz,  E. Rosta,  N. J. Russ,  
 H. F. Schaefer III,  N. E. Schultz,  N. Shenvi,  A. C. Simmonett,  A. Sodt,  
 D. Stuck,  K. S. Thanthiriwatte,  V. Vanovschi,  Tao Wang,  A. Warshel,  
 C. F. Williams,  Q. Wu,  X. Xu,  W. Zhang

 Please cite Q-Chem as follows:
 Y. Shao et al., Mol. Phys. 113, 184-215 (2015)
 DOI: 10.1080/00268976.2014.952696

 Q-Chem 5.2.0 for Intel X86 EM64T Linux

 Parts of Q-Chem use Armadillo 8.300.2 (Tropical Shenanigans).
 http://arma.sourceforge.net/

 Q-Chem begins on Sun Sep 26 02:02:08 2021  

Host: cori01
0

     Scratch files written to /tmp/qchem61346//Frg1//
 May1019 |scratch|qcdevops|jenkins|workspace|build_RNUM -1
Processing $rem in /global/common/cori/software/qchem/5.2/config/preferences:
	 MEM_TOTAL  96000 
NAlpha2: 50
NElect   50
Mult     1
Symmetry turned off for PCM/SM12/SMD calculation

Checking the input file for inconsistencies... 	...done.

--------------------------------------------------------------
User input:
--------------------------------------------------------------
$molecule
0 1
 6	-1.9180166457	0.7557364848	3.1507441548
 6	-1.6800166457	1.8867364848	0.9497441548
 6	-1.1100166457	1.5587364848	2.1717441548
 6	-0.9790166457	2.6317364848	0.0087441548
 6	0.1949833543	1.9787364848	2.4327441548
 6	0.3139833543	3.0477364848	0.2827441548
 6	0.8979833543	2.7277364848	1.4867441548
 1	-2.6840166457	1.5577364848	0.7217441548
 1	-1.4330166457	2.8467364848	-0.9432558452
 1	-2.3030166457	-0.1192635152	2.6387441548
 1	-2.7720166457	1.3727364848	3.4337441548
 1	0.6639833543	1.8037364848	3.3717441548
 1	0.8609833543	3.6327364848	-0.4432558452
 1	1.9039833543	3.0627364848	1.6997441548
 1	-1.4050466457	0.4456524848	4.0730841548
$end
$rem
EDA2		1
METHOD		WB97X-V
BASIS		DEF2-TZVPD
XC_GRID		000099000590
NL_GRID		1
UNRESTRICTED		FALSE
MAX_SCF_CYCLES		200
SYMMETRY		FALSE
SYM_IGNORE		TRUE
BASIS_LIN_DEP_THRESH		6
THRESH		14
SCF_CONVERGENCE		8
SCF_PRINT_FRGM		TRUE
SOLVENT_METHOD		SMD
!required keywords
JOBTYPE		SP
SYM_IGNORE		TRUE
SUBSYSTEM		TRUE
GEN_SCFMAN		TRUE
CHILD_INSTRUCTION		2
SYM_IGNORE		TRUE
SCFMI		0
RI_K 0		
PARI_K 0		
MIN_PARI_K 0		
IARI_K 0		
OCC_RI_K 0		
PURECART		1111
MEM_STATIC		2000
MEM_TOTAL		96000
GUI		0
CHILD_MP		1
CHILD_MP_ORDERS		232
FRZ_RELAX		0
FRZ_RELAX_METHOD		0
EDA_CLS_ELEC		1
EDA_CLS_DISP		0
FRZ_ORTHO_DECOMP		1
EDA2		FALSE
FRGM_METHOD		FALSE
CIS_N_ROOTS  0
LOCAL_CIS    0
CIS_RLX_DNS  1
$end
$smx
SOLVENT			WATER
$end
--------------------------------------------------------------
 ----------------------------------------------------------------
             Standard Nuclear Orientation (Angstroms)
    I     Atom           X                Y                Z
 ----------------------------------------------------------------
    1      C      -1.9180166457     0.7557364848     3.1507441548
    2      C      -1.6800166457     1.8867364848     0.9497441548
    3      C      -1.1100166457     1.5587364848     2.1717441548
    4      C      -0.9790166457     2.6317364848     0.0087441548
    5      C       0.1949833543     1.9787364848     2.4327441548
    6      C       0.3139833543     3.0477364848     0.2827441548
    7      C       0.8979833543     2.7277364848     1.4867441548
    8      H      -2.6840166457     1.5577364848     0.7217441548
    9      H      -1.4330166457     2.8467364848    -0.9432558452
   10      H      -2.3030166457    -0.1192635152     2.6387441548
   11      H      -2.7720166457     1.3727364848     3.4337441548
   12      H       0.6639833543     1.8037364848     3.3717441548
   13      H       0.8609833543     3.6327364848    -0.4432558452
   14      H       1.9039833543     3.0627364848     1.6997441548
   15      H      -1.4050466457     0.4456524848     4.0730841548
 ----------------------------------------------------------------
 Nuclear Repulsion Energy =         270.53212113 hartrees
 There are       25 alpha and       25 beta electrons
 Requested basis set is def2-TZVPD
 There are 131 shells and 331 basis functions

 Total QAlloc Memory Limit  96000 MB
 Mega-Array Size      1956 MB
 MEM_STATIC part      2000 MB
 
 Citation of the SMD model:
 Marenich, A.V.; Cramer, C.J.; Truhlar, D.G.
 J. Phys. Chem. B 2009, 113, 6378-6396.
 iSolventCode=           1
 Solvent: water                                                           
 
 vradii
            1           2           3           4           5           6
    1   1.8500000   1.8500000   1.8500000   1.8500000   1.8500000   1.8500000
            7           8           9          10          11          12
    1   1.8500000   1.2000000   1.2000000   1.2000000   1.2000000   1.2000000
           13          14          15
    1   1.2000000   1.2000000   1.2000000
 Changing PCM_VDW_RADII to SMD_RADIUS
 Discretize the solute cavity surface with Lebedev spheres
	Using 110 Lebedev grid points for each H atom
	Using 194 Lebedev grid points for other atoms
	Atomic van der Waals radii will be scaled by 1.20
 Remove points where switching function is < 1.0e-08
 Keep 1088 surface tesserae and discard 1150 interior tesserae
 Molecular Surface Area = 131.796 Angst**2

                       Distance Matrix (Angstroms)
             C (  1)   C (  2)   C (  3)   C (  4)   C (  5)   C (  6)
   C (  2)  2.486002
   C (  3)  1.502037  1.387720
   C (  4)  3.777997  1.389931  2.418069
   C (  5)  2.544803  2.392358  1.395545  2.771364
   C (  6)  4.296570  2.401842  2.795213  1.385634  2.404043
   C (  7)  3.819363  2.764369  2.422365  2.390989  1.396469  1.375890
   H (  8)  2.670206  1.080852  2.140088  2.137492  3.375412  3.376511
   H (  9)  4.622590  2.136834  3.386222  1.076404  3.847231  2.143708
   H ( 10)  1.084433  2.695345  2.111166  4.029625  3.268646  4.735960
   H ( 11)  1.090914  2.761687  2.095110  4.065779  3.189408  4.717820
   H ( 12)  2.795330  3.371544  2.155714  3.833380  1.064099  3.348426
   H ( 13)  5.377435  3.383141  3.876150  2.142873  3.383881  1.080976
   H ( 14)  4.694181  3.845846  3.401323  3.370005  2.152447  2.129839
   H ( 15)  1.100001  3.450737  2.222857  4.634579  2.757020  4.908420
             C (  7)   H (  8)   H (  9)   H ( 10)   H ( 11)   H ( 12)
   H (  8)  3.845107
   H (  9)  3.369365  2.449234
   H ( 10)  4.436092  2.575341  4.731256
   H ( 11)  4.369867  2.719727  4.808714  1.754437
   H ( 12)  2.112287  4.276929  4.909632  3.610860  3.463481
   H ( 13)  2.131970  4.269646  2.475931  5.795440  5.773856  4.235360
   H ( 14)  1.081494  4.926586  4.262355  5.357769  5.265722  2.432748
   H ( 15)  4.147410  3.755526  5.561443  1.784044  1.771115  2.572383
             H ( 13)   H ( 14)
   H ( 14)  2.450551
   H ( 15)  5.974088  4.840615
 
 A cutoff of  1.0D-14 yielded   8368 shell pairs
 There are     54522 function pairs (     69478 Cartesian)
 Smallest overlap matrix eigenvalue = 5.40E-07
 Linear dependence detected in AO basis
 Tighter screening thresholds may be required for diffuse basis sets
 Use S2THRESH > 14 and THRESH = 14 in case of SCF convergence issues
 Number of orthogonalized atomic orbitals = 330
 Maximum deviation from orthogonality = 1.988E-10

 Scale SEOQF with 1.000000e-01/1.000000e-01/1.000000e-01

 Standard Electronic Orientation quadrupole field applied
 Nucleus-field energy     =    -0.0000000003 hartrees
 Guess from superposition of atomic densities
 Warning:  Energy on first SCF cycle will be non-variational
 SAD guess density has 49.913408 electrons

 -----------------------------------------------------------------------
  General SCF calculation program by
  Eric Jon Sundstrom, Paul Horn, Yuezhi Mao, Dmitri Zuev, Alec White,
  David Stuck, Shaama M.S., Shane Yost, Joonho Lee, David Small,
  Daniel Levine, Susi Lehtola, Hugh Burton, Evgeny Epifanovsky
 -----------------------------------------------------------------------
 Exchange:     0.1670 Hartree-Fock + 1.0000 wB97X-V + LR-HF
 Correlation:  1.0000 wB97X-V
 Using Euler-Maclaurin-Lebedev (99,590) quadrature formula
 Nonlocal Correlation:  VV10 with C = 0.0100 and b = 6.00 and scale = 1.00000
 Grid used for NLC:  SG-1 standard quadrature
Energy prior to optimization (guess energy) = -271.517076392705
Begin Timing: Total SCF Calculation
begin iterations for algorithm: DIIS         
the SCF tolerance is set to 1.00e-08
    1    -271.5170763927      1.99e-03     00000 
    2    -271.5587250282      1.30e-03     00000 
    3    -271.5832819809      1.56e-04     00000 
    4    -271.5839737665      4.78e-05     00000 
    5    -271.5840259392      2.25e-05     00000 
    6    -271.5840344815      5.59e-06     00000 
    7    -271.5840352424      2.01e-06     00000 
    8    -271.5840353128      4.29e-07     00000 
    9    -271.5840353199      1.23e-07     00000 
   10    -271.5840353208      5.22e-08     00000 
   11    -271.5840353209      2.70e-08     00000 
   12    -271.5840353210      7.91e-09     00000 Convergence criterion met
Timing for Total SCF: 1315.00s (wall), 2614.32s (cpu)
(3)  G-ENP(liq) elect-nuc-pol free energy of system     -271.584035321 a.u.
(4)  G-CDS(liq) cavity-dispersion-solvent structure 
     free energy                                                3.1440 kcal/mol
(6)  G-S(liq) free energy of system                     -271.579024971 a.u.
E_pcm = -0.0073498135
E_cds = 0.0050103502
Multipole orders to be included
        2
        3
computing dipole RHS
computing quadrupole RHS
total number of RHS in solve_reponses: 8
RHS batch sizes
        8
Beginning Block Conjugate Gradient Iterations. Batch Number: 0
computing hessian-vector products by finite difference
              1      6.17e-01     00000 Conjugate Gradient Iteration
computing hessian-vector products by finite difference
              2      1.90e-01     00000 Conjugate Gradient Iteration
computing hessian-vector products by finite difference
              3      4.52e-02     00000 Conjugate Gradient Iteration
computing hessian-vector products by finite difference
              4      1.13e-02     00000 Conjugate Gradient Iteration
computing hessian-vector products by finite difference
              5      1.99e-03     00000 Conjugate Gradient Iteration
computing hessian-vector products by finite difference
              6      5.17e-04     00000 Conjugate Gradient Iteration
computing hessian-vector products by finite difference
              7      1.49e-04     00000 Conjugate Gradient Iteration
computing hessian-vector products by finite difference
              8      2.31e-05     00000 Conjugate Gradient Iteration
computing hessian-vector products by finite difference
              9      2.65e-06     00000 Conjugate Gradient Iteration
computing hessian-vector products by finite difference
             10      4.63e-07     00000 Conjugate Gradient Iteration
computing hessian-vector products by finite difference
             11      9.19e-08     00000 Conjugate Gradient Iteration
computing hessian-vector products by finite difference
             12      1.19e-08     00000 Conjugate Gradient Iteration
computing hessian-vector products by finite difference
             13      1.99e-09     00000 CG Converged
batch 0 complete
Done Calculating Responses
TESTING ORTHOGONALIZATION OF MULTIPOLE BASIS
Multipole virts passed orthogonality test
Virts Per Order
           75
          125
 
 --------------------------------------------------------------
 
                    Orbital Energies (a.u.)
 --------------------------------------------------------------
 
 Alpha MOs
 -- Occupied --
-10.2776 -10.2661 -10.2653 -10.2626 -10.2622 -10.2615 -10.2534  -0.9949
 -0.9039  -0.8744  -0.8086  -0.7255  -0.7009  -0.6253  -0.5690  -0.5607
 -0.5304  -0.5230  -0.5099  -0.4821  -0.4696  -0.4369  -0.4331  -0.3456
 -0.3347
 -- Virtual --
  0.0674   0.0681   0.0746   0.0841   0.0899   0.1094   0.1154   0.1181
  0.1418   0.1606   0.1697   0.1772   0.1851   0.1951   0.1997   0.2080
  0.2294   0.2351   0.2382   0.2485   0.2519   0.2601   0.2653   0.2781
  0.2857   0.2884   0.2933   0.2969   0.2987   0.3040   0.3075   0.3195
  0.3284   0.3314   0.3353   0.3489   0.3501   0.3556   0.3721   0.3777
  0.3789   0.3864   0.3928   0.3964   0.3984   0.4025   0.4056   0.4075
  0.4209   0.4318   0.4352   0.4445   0.4477   0.4544   0.4583   0.4609
  0.4713   0.4734   0.4866   0.4909   0.5029   0.5057   0.5156   0.5172
  0.5213   0.5275   0.5364   0.5475   0.5494   0.5587   0.5654   0.5736
  0.5743   0.5781   0.5954   0.5978   0.6038   0.6279   0.6365   0.6503
  0.6599   0.6748   0.6857   0.6924   0.6976   0.7092   0.7230   0.7264
  0.7314   0.7342   0.7466   0.7667   0.7681   0.7713   0.7825   0.7885
  0.7917   0.8003   0.8026   0.8055   0.8188   0.8273   0.8306   0.8327
  0.8364   0.8448   0.8544   0.8577   0.8664   0.8817   0.8865   0.8993
  0.9247   0.9338   0.9469   0.9571   0.9701   1.0103   1.0424   1.0454
  1.0512   1.0664   1.0780   1.0819   1.0963   1.1034   1.1131   1.1440
  1.1648   1.1706   1.2622   1.2864   1.3018   1.3340   1.3612   1.3643
  1.3813   1.4492   1.4591   1.4648   1.4717   1.4836   1.5357   1.5499
  1.6144   1.6220   1.6265   1.6326   1.6434   1.6843   1.7456   1.7727
  1.7877   1.8044   1.8080   1.8232   1.8482   1.8582   1.8912   1.9140
  1.9278   1.9313   1.9388   1.9786   1.9965   2.0023   2.0176   2.0370
  2.0407   2.0505   2.0746   2.0990   2.1224   2.1349   2.1776   2.1831
  2.2157   2.2479   2.2559   2.2682   2.2973   2.3276   2.3796   2.4024
  2.4209   2.4453   2.4604   2.5286   2.5396   2.5656   2.5768   2.6124
  2.6303   2.6377   2.6753   2.6824   2.7276   2.7328   2.7791   2.7886
  2.7991   2.8236   2.8321   2.8555   2.8701   2.8982   2.9155   2.9249
  2.9362   2.9546   2.9758   2.9969   3.0169   3.0194   3.0310   3.0629
  3.0755   3.1044   3.1130   3.1602   3.1723   3.1955   3.1970   3.2152
  3.2442   3.2634   3.2705   3.2948   3.3371   3.3622   3.3723   3.3944
  3.4239   3.4305   3.4495   3.4588   3.4689   3.4711   3.4923   3.5066
  3.5204   3.5380   3.5406   3.5554   3.5604   3.5823   3.5889   3.6021
  3.6204   3.6526   3.6677   3.7033   3.7208   3.7562   3.7617   3.8026
  3.8709   3.9038   3.9509   3.9666   3.9826   4.0021   4.0471   4.0680
  4.1453   4.2212   4.2823   4.2850   4.2940   4.3352   4.3421   4.3697
  4.3723   4.3848   4.3900   4.4158   4.4339   4.4761   4.5340   4.5660
  4.6156   4.6565   4.7580   4.8032   4.8257   4.8614   4.9158   4.9598
  5.0384   5.0528   5.1793   5.2795   5.3994   5.4157   5.5026   5.5305
  5.6903   5.8609  22.5954  22.6984  22.9104  22.9354  23.0328  23.1087
 23.4550
 --------------------------------------------------------------
 
          Ground-State Mulliken Net Atomic Charges

     Atom                 Charge (a.u.)
  ----------------------------------------
      1 C                    -1.080077
      2 C                    -0.317355
      3 C                     0.770158
      4 C                    -0.549338
      5 C                    -0.525046
      6 C                    -0.529986
      7 C                    -0.528423
      8 H                     0.408018
      9 H                     0.377470
     10 H                     0.266660
     11 H                     0.245505
     12 H                     0.393998
     13 H                     0.399214
     14 H                     0.364372
     15 H                     0.304832
  ----------------------------------------
  Sum of atomic charges =     0.000000

 -----------------------------------------------------------------
                    Cartesian Multipole Moments
 -----------------------------------------------------------------
    Charge (ESU x 10^10)
                 0.0000
    Dipole Moment (Debye)
         X      -0.4080      Y      -0.2665      Z       0.3581
       Tot       0.6047
    Quadrupole Moments (Debye-Ang)
        XX     -38.1086     XY       2.3056     YY     -44.9611
        XZ       0.2956     YZ      -2.5460     ZZ     -37.6409
    Octopole Moments (Debye-Ang^2)
       XXX      76.6452    XXY     -79.2582    XYY      39.9246
       YYY    -276.3217    XXZ     -59.8586    XYZ       5.4083
       YYZ     -80.3132    XZZ      26.7794    YZZ     -84.1703
       ZZZ    -177.8755
    Hexadecapole Moments (Debye-Ang^3)
      XXXX    -446.8488   XXXY      85.9803   XXYY    -278.2500
      XYYY     135.5615   YYYY   -1367.7262   XXXZ     161.9998
      XXYZ     -91.6542   XYYZ      74.2201   YYYZ    -366.0359
      XXZZ    -232.5328   XYZZ      34.0183   YYZZ    -394.4399
      XZZZ     166.5667   YZZZ    -294.3119   ZZZZ    -938.8211
 -----------------------------------------------------------------
Archival summary:
1\1\nid00509\SP\ProcedureUnspecified\BasisUnspecified\78\meili\SunSep2609:24:132021SunSep2609:24:132021\0\\#,ProcedureUnspecified,BasisUnspecified,\\0,1\C\C,1,1.38772\H,2,1.08085,1,119.693\C,2,1.38993,1,121.044,3,-179.875,0\H,4,1.0764,2,119.545,1,178.131,0\C,4,1.38563,2,119.846,1,0.55427,0\H,6,1.08098,4,120.123,2,-179.607,0\C,6,1.37589,4,119.953,2,-0.289308,0\H,8,1.08149,6,119.678,4,-179.42,0\C,1,1.39555,2,118.532,3,179.044,0\H,10,1.0641,1,121.85,2,176.54,0\C,1,1.50204,2,118.643,3,-0.347835,0\H,12,1.08443,1,108.337,2,51.2283,0\H,12,1.09091,1,106.728,2,-64.2791,0\H,12,1.1,1,116.51,2,175.182,0\\\@

 Total job time:  26527.53s(wall), 52662.57s(cpu) 
 Sun Sep 26 09:24:16 2021

        *************************************************************
        *                                                           *
        *  Thank you very much for using Q-Chem.  Have a nice day.  *
        *                                                           *
        *************************************************************


Done Job For Fragment 0
calling putenv with: QCSCRATCH=/global/cscratch1/sd/meili 
calling putenv with: QCLOCALSCR=/tmp 
calling putenv with: QCTHREADS=32 
Creating input file /tmp/qchem61346/Frg2.input
using default PutDataFrgm: nothing
calling putenv with: QCSCRATCH=/tmp/qchem61346/ 
calling putenv with: QCLOCALSCR=/tmp/qchem61346/ 
Spawning Job For Fragment 1
                  Welcome to Q-Chem
     A Quantum Leap Into The Future Of Chemistry


 Q-Chem 5.2, Q-Chem, Inc., Pleasanton, CA (2019)

 License issued to: National Energy Research Scientific Computing Center

 Yihan Shao,  Zhengting Gan,  E. Epifanovsky,  A. T. B. Gilbert,  M. Wormit,  
 J. Kussmann,  A. W. Lange,  A. Behn,  Jia Deng,  Xintian Feng,  D. Ghosh,  
 M. Goldey,  P. R. Horn,  L. D. Jacobson,  I. Kaliman,  T. Kus,  A. Landau,  
 Jie Liu,  E. I. Proynov,  R. M. Richard,  R. P. Steele,  E. J. Sundstrom,  
 H. L. Woodcock III,  P. M. Zimmerman,  D. Zuev,  B. Albrecht,  E. Alguire,  
 S. A. Baeppler,  D. Barton,  Z. Benda,  Y. A. Bernard,  E. J. Berquist,  
 K. B. Bravaya,  H. Burton,  D. Casanova,  Chun-Min Chang,  Yunqing Chen,  
 A. Chien,  K. D. Closser,  M. P. Coons,  S. Coriani,  S. Dasgupta,  
 A. L. Dempwolff,  M. Diedenhofen,  Hainam Do,  R. G. Edgar,  Po-Tung Fang,  
 S. Faraji,  S. Fatehi,  Qingguo Feng,  K. D. Fenk,  J. Fosso-Tande,  
 J. Gayvert,  Qinghui Ge,  A. Ghysels,  G. Gidofalvi,  J. Gomes,  
 J. Gonthier,  A. Gunina,  D. Hait,  M. W. D. Hanson-Heine,  
 P. H. P. Harbach,  A. W. Hauser,  M. F. Herbst,  J. E. Herr,  
 E. G. Hohenstein,  Z. C. Holden,  Kerwin Hui,  B. C. Huynh,  T.-C. Jagau,  
 Hyunjun Ji,  B. Kaduk,  K. Khistyaev,  Jaehoon Kim,  P. Klunzinger,  K. Koh,  
 D. Kosenkov,  L. Koulias,  T. Kowalczyk,  C. M. Krauter,  A. Kunitsa,  
 Ka Un Lao,  A. Laurent,  K. V. Lawler,  Joonho Lee,  D. Lefrancois,  
 S. Lehtola,  D. S. Levine,  Yi-Pei Li,  You-Sheng Lin,  Fenglai Liu,  
 E. Livshits,  A. Luenser,  P. Manohar,  E. Mansoor,  S. F. Manzer,  
 Shan-Ping Mao,  Yuezhi Mao,  N. Mardirossian,  A. V. Marenich,  
 T. Markovich,  L. A. Martinez-Martinez,  S. A. Maurer,  N. J. Mayhall,  
 S. C. McKenzie,  J.-M. Mewes,  P. Morgante,  A. F. Morrison,  
 J. W. Mullinax,  K. Nanda,  T. S. Nguyen-Beck,  R. Olivares-Amaya,  
 J. A. Parkhill,  Zheng Pei,  T. M. Perrine,  F. Plasser,  P. Pokhilko,  
 S. Prager,  A. Prociuk,  E. Ramos,  D. R. Rehn,  F. Rob,  M. Scheurer,  
 M. Schneider,  N. Sergueev,  S. M. Sharada,  S. Sharma,  D. W. Small,  
 T. Stauch,  T. Stein,  Yu-Chuan Su,  A. J. W. Thom,  A. Tkatchenko,  
 T. Tsuchimochi,  N. M. Tubman,  L. Vogt,  M. L. Vidal,  O. Vydrov,  
 M. A. Watson,  J. Wenzel,  M. de Wergifosse,  T. A. Wesolowski,  A. White,  
 J. Witte,  A. Yamada,  Jun Yang,  K. Yao,  S. Yeganeh,  S. R. Yost,  
 Zhi-Qiang You,  A. Zech,  Igor Ying Zhang,  Xing Zhang,  Yan Zhao,  
 Ying Zhu,  B. R. Brooks,  G. K. L. Chan,  C. J. Cramer,  M. S. Gordon,  
 W. J. Hehre,  A. Klamt,  M. W. Schmidt,  C. D. Sherrill,  D. G. Truhlar,  
 A. Aspuru-Guzik,  R. Baer,  A. T. Bell,  N. A. Besley,  Jeng-Da Chai,  
 A. E. DePrince, III,  R. A. DiStasio Jr.,  A. Dreuw,  B. D. Dunietz,  
 T. R. Furlani,  Chao-Ping Hsu,  Yousung Jung,  Jing Kong,  D. S. Lambrecht,  
 WanZhen Liang,  C. Ochsenfeld,  V. A. Rassolov,  L. V. Slipchenko,  
 J. E. Subotnik,  T. Van Voorhis,  J. M. Herbert,  A. I. Krylov,  
 P. M. W. Gill,  M. Head-Gordon

 Contributors to earlier versions of Q-Chem not listed above: 
 R. D. Adamson,  B. Austin,  J. Baker,  G. J. O. Beran,  K. Brandhorst,  
 S. T. Brown,  E. F. C. Byrd,  A. K. Chakraborty,  C.-L. Cheng,  
 Siu Hung Chien,  D. M. Chipman,  D. L. Crittenden,  H. Dachsel,  
 R. J. Doerksen,  A. D. Dutoi,  L. Fusti-Molnar,  W. A. Goddard III,  
 A. Golubeva-Zadorozhnaya,  S. R. Gwaltney,  G. Hawkins,  A. Heyden,  
 S. Hirata,  G. Kedziora,  F. J. Keil,  C. Kelley,  Jihan Kim,  R. A. King,  
 R. Z. Khaliullin,  P. P. Korambath,  W. Kurlancheek,  A. M. Lee,  M. S. Lee,  
 S. V. Levchenko,  Ching Yeh Lin,  D. Liotard,  R. C. Lochan,  I. Lotan,  
 P. E. Maslen,  N. Nair,  D. P. O'Neill,  D. Neuhauser,  E. Neuscamman,  
 C. M. Oana,  R. Olson,  B. Peters,  R. Peverati,  P. A. Pieniazek,  
 Y. M. Rhee,  J. Ritchie,  M. A. Rohrdanz,  E. Rosta,  N. J. Russ,  
 H. F. Schaefer III,  N. E. Schultz,  N. Shenvi,  A. C. Simmonett,  A. Sodt,  
 D. Stuck,  K. S. Thanthiriwatte,  V. Vanovschi,  Tao Wang,  A. Warshel,  
 C. F. Williams,  Q. Wu,  X. Xu,  W. Zhang

 Please cite Q-Chem as follows:
 Y. Shao et al., Mol. Phys. 113, 184-215 (2015)
 DOI: 10.1080/00268976.2014.952696

 Q-Chem 5.2.0 for Intel X86 EM64T Linux

 Parts of Q-Chem use Armadillo 8.300.2 (Tropical Shenanigans).
 http://arma.sourceforge.net/

 Q-Chem begins on Sun Sep 26 09:24:20 2021  

Host: cori01
0

     Scratch files written to /tmp/qchem61346//Frg2//
 May1019 |scratch|qcdevops|jenkins|workspace|build_RNUM -1
Processing $rem in /global/common/cori/software/qchem/5.2/config/preferences:
	 MEM_TOTAL  96000 
NAlpha2: 50
NElect   50
Mult     1
Symmetry turned off for PCM/SM12/SMD calculation

Checking the input file for inconsistencies... 	...done.

--------------------------------------------------------------
User input:
--------------------------------------------------------------
$molecule
0 1
 6	2.7239833543	-3.2372635152	-1.9782558452
 6	-0.9480166457	-1.1662635152	-1.1862558452
 6	-0.8810166457	-2.0932635152	-2.2142558452
 6	0.1769833543	-0.9172635152	-0.4082558452
 6	0.3099833543	-2.7622635152	-2.4702558452
 6	1.3669833543	-1.5872635152	-0.6662558452
 6	1.4369833543	-2.5182635152	-1.6962558452
 1	-1.8730166457	-0.6492635152	-0.9722558452
 1	-1.7470166457	-2.3232635152	-2.8062558452
 1	0.1309833543	-0.1962635152	0.3937441548
 1	0.3559833543	-3.4792635152	-3.2772558452
 1	2.2359833543	-1.3792635152	-0.0602558452
 1	3.5449833543	-2.5692635152	-1.7102558452
 1	2.8059833543	-3.4452635152	-3.0422558452
 1	2.8362963543	-4.1962465152	-1.4512458452
$end
$rem
EDA2		1
METHOD		WB97X-V
BASIS		DEF2-TZVPD
XC_GRID		000099000590
NL_GRID		1
UNRESTRICTED		FALSE
MAX_SCF_CYCLES		200
SYMMETRY		FALSE
SYM_IGNORE		TRUE
BASIS_LIN_DEP_THRESH		6
THRESH		14
SCF_CONVERGENCE		8
SCF_PRINT_FRGM		TRUE
SOLVENT_METHOD		SMD
!required keywords
JOBTYPE		SP
SYM_IGNORE		TRUE
SUBSYSTEM		TRUE
GEN_SCFMAN		TRUE
CHILD_INSTRUCTION		2
SYM_IGNORE		TRUE
SCFMI		0
RI_K 0		
PARI_K 0		
MIN_PARI_K 0		
IARI_K 0		
OCC_RI_K 0		
PURECART		1111
MEM_STATIC		2000
MEM_TOTAL		96000
GUI		0
CHILD_MP		1
CHILD_MP_ORDERS		232
FRZ_RELAX		0
FRZ_RELAX_METHOD		0
EDA_CLS_ELEC		1
EDA_CLS_DISP		0
FRZ_ORTHO_DECOMP		1
EDA2		FALSE
FRGM_METHOD		FALSE
CIS_N_ROOTS  0
LOCAL_CIS    0
CIS_RLX_DNS  1
$end
$smx
SOLVENT			WATER
$end
--------------------------------------------------------------
 ----------------------------------------------------------------
             Standard Nuclear Orientation (Angstroms)
    I     Atom           X                Y                Z
 ----------------------------------------------------------------
    1      C       2.7239833543    -3.2372635152    -1.9782558452
    2      C      -0.9480166457    -1.1662635152    -1.1862558452
    3      C      -0.8810166457    -2.0932635152    -2.2142558452
    4      C       0.1769833543    -0.9172635152    -0.4082558452
    5      C       0.3099833543    -2.7622635152    -2.4702558452
    6      C       1.3669833543    -1.5872635152    -0.6662558452
    7      C       1.4369833543    -2.5182635152    -1.6962558452
    8      H      -1.8730166457    -0.6492635152    -0.9722558452
    9      H      -1.7470166457    -2.3232635152    -2.8062558452
   10      H       0.1309833543    -0.1962635152     0.3937441548
   11      H       0.3559833543    -3.4792635152    -3.2772558452
   12      H       2.2359833543    -1.3792635152    -0.0602558452
   13      H       3.5449833543    -2.5692635152    -1.7102558452
   14      H       2.8059833543    -3.4452635152    -3.0422558452
   15      H       2.8362963543    -4.1962465152    -1.4512458452
 ----------------------------------------------------------------
 Nuclear Repulsion Energy =         270.49477731 hartrees
 There are       25 alpha and       25 beta electrons
 Requested basis set is def2-TZVPD
 There are 131 shells and 331 basis functions

 Total QAlloc Memory Limit  96000 MB
 Mega-Array Size      1956 MB
 MEM_STATIC part      2000 MB
 
 Citation of the SMD model:
 Marenich, A.V.; Cramer, C.J.; Truhlar, D.G.
 J. Phys. Chem. B 2009, 113, 6378-6396.
 iSolventCode=           1
 Solvent: water                                                           
 
 vradii
            1           2           3           4           5           6
    1   1.8500000   1.8500000   1.8500000   1.8500000   1.8500000   1.8500000
            7           8           9          10          11          12
    1   1.8500000   1.2000000   1.2000000   1.2000000   1.2000000   1.2000000
           13          14          15
    1   1.2000000   1.2000000   1.2000000
 Changing PCM_VDW_RADII to SMD_RADIUS
 Discretize the solute cavity surface with Lebedev spheres
	Using 110 Lebedev grid points for each H atom
	Using 194 Lebedev grid points for other atoms
	Atomic van der Waals radii will be scaled by 1.20
 Remove points where switching function is < 1.0e-08
 Keep 1092 surface tesserae and discard 1146 interior tesserae
 Molecular Surface Area = 131.312 Angst**2

                       Distance Matrix (Angstroms)
             C (  1)   C (  2)   C (  3)   C (  4)   C (  5)   C (  6)
   C (  2)  4.289509
   C (  3)  3.789519  1.385858
   C (  4)  3.786094  1.390291  2.400828
   C (  5)  2.509001  2.403838  1.389812  2.770119
   C (  6)  2.507049  2.409744  2.775940  1.389807  2.398393
   C (  7)  1.500951  2.788589  2.412897  2.410341  1.388791  1.390166
   H (  8)  5.370492  1.081069  2.147502  2.142993  3.387368  3.386898
   H (  9)  4.637976  2.145099  1.073927  3.380683  2.129992  3.849453
   H ( 10)  4.647334  2.145120  3.380003  1.079426  3.849532  2.141536
   H ( 11)  2.711713  3.379743  2.140358  3.850590  1.080488  3.379217
   H ( 12)  2.714596  3.383948  3.855542  2.138698  3.380867  1.079658
   H ( 13)  1.091828  4.736036  4.479963  3.970860  3.328675  2.607287
   H ( 14)  1.087237  4.767714  4.013410  4.498931  2.650224  3.341895
   H ( 15)  1.100001  4.855105  4.338564  4.348736  3.078465  3.095462
             C (  7)   H (  8)   H (  9)   H ( 10)   H ( 11)   H ( 12)
   H (  8)  3.869553
   H (  9)  3.377570  2.486304
   H ( 10)  3.386063  2.467221  4.276799
   H ( 11)  2.142812  4.276724  2.445565  4.930006
   H ( 12)  2.147608  4.271829  4.929091  2.456955  4.277089
   H ( 13)  2.108663  5.795323  5.409898  4.659758  3.667875  2.419107
   H ( 14)  2.131949  5.830571  4.695145  5.433021  2.461479  3.672272
   H ( 15)  2.198575  5.915078  5.133310  5.169388  3.162330  3.198534
             H ( 13)   H ( 14)
   H ( 14)  1.757191
   H ( 15)  1.793432  1.759604
 
 A cutoff of  1.0D-14 yielded   8363 shell pairs
 There are     54509 function pairs (     69464 Cartesian)
 Smallest overlap matrix eigenvalue = 5.40E-07
 Linear dependence detected in AO basis
 Tighter screening thresholds may be required for diffuse basis sets
 Use S2THRESH > 14 and THRESH = 14 in case of SCF convergence issues
 Number of orthogonalized atomic orbitals = 330
 Maximum deviation from orthogonality = 2.453E-10

 Scale SEOQF with 1.000000e-01/1.000000e-01/1.000000e-01

 Standard Electronic Orientation quadrupole field applied
 Nucleus-field energy     =     0.0000000062 hartrees
 Guess from superposition of atomic densities
 Warning:  Energy on first SCF cycle will be non-variational
 SAD guess density has 49.913408 electrons

 -----------------------------------------------------------------------
  General SCF calculation program by
  Eric Jon Sundstrom, Paul Horn, Yuezhi Mao, Dmitri Zuev, Alec White,
  David Stuck, Shaama M.S., Shane Yost, Joonho Lee, David Small,
  Daniel Levine, Susi Lehtola, Hugh Burton, Evgeny Epifanovsky
 -----------------------------------------------------------------------
 Exchange:     0.1670 Hartree-Fock + 1.0000 wB97X-V + LR-HF
 Correlation:  1.0000 wB97X-V
 Using Euler-Maclaurin-Lebedev (99,590) quadrature formula
 Nonlocal Correlation:  VV10 with C = 0.0100 and b = 6.00 and scale = 1.00000
 Grid used for NLC:  SG-1 standard quadrature
Energy prior to optimization (guess energy) = -271.518886170523
Begin Timing: Total SCF Calculation
begin iterations for algorithm: DIIS         
the SCF tolerance is set to 1.00e-08
    1    -271.5188861705      1.98e-03     00000 
    2    -271.5602494314      1.29e-03     00000 
    3    -271.5847030919      1.56e-04     00000 
    4    -271.5853981652      4.70e-05     00000 
    5    -271.5854494230      2.13e-05     00000 
    6    -271.5854570181      5.29e-06     00000 
    7    -271.5854577131      1.25e-06     00000 
    8    -271.5854577456      4.83e-07     00000 
    9    -271.5854577506      8.44e-08     00000 
   10    -271.5854577509      3.55e-08     00000 
   11    -271.5854577509      1.41e-08     00000 
   12    -271.5854577509      5.07e-09     00000 Convergence criterion met
Timing for Total SCF: 1348.00s (wall), 2680.89s (cpu)
(3)  G-ENP(liq) elect-nuc-pol free energy of system     -271.585457751 a.u.
(4)  G-CDS(liq) cavity-dispersion-solvent structure 
     free energy                                                3.1508 kcal/mol
(6)  G-S(liq) free energy of system                     -271.580436624 a.u.
E_pcm = -0.0073786627
E_cds = 0.0050211267
Multipole orders to be included
        2
        3
computing dipole RHS
computing quadrupole RHS
total number of RHS in solve_reponses: 8
RHS batch sizes
        8
Beginning Block Conjugate Gradient Iterations. Batch Number: 0
computing hessian-vector products by finite difference
              1      6.16e-01     00000 Conjugate Gradient Iteration
computing hessian-vector products by finite difference
              2      1.86e-01     00000 Conjugate Gradient Iteration
computing hessian-vector products by finite difference
              3      4.48e-02     00000 Conjugate Gradient Iteration
computing hessian-vector products by finite difference
              4      1.13e-02     00000 Conjugate Gradient Iteration
computing hessian-vector products by finite difference
              5      2.20e-03     00000 Conjugate Gradient Iteration
computing hessian-vector products by finite difference
              6      6.37e-04     00000 Conjugate Gradient Iteration
computing hessian-vector products by finite difference
              7      1.34e-04     00000 Conjugate Gradient Iteration
computing hessian-vector products by finite difference
              8      2.19e-05     00000 Conjugate Gradient Iteration
computing hessian-vector products by finite difference
              9      3.15e-06     00000 Conjugate Gradient Iteration
computing hessian-vector products by finite difference
             10      5.58e-07     00000 Conjugate Gradient Iteration
computing hessian-vector products by finite difference
             11      1.08e-07     00000 Conjugate Gradient Iteration
computing hessian-vector products by finite difference
             12      1.65e-08     00000 Conjugate Gradient Iteration
computing hessian-vector products by finite difference
             13      2.50e-09     00000 CG Converged
batch 0 complete
Done Calculating Responses
TESTING ORTHOGONALIZATION OF MULTIPOLE BASIS
Multipole virts passed orthogonality test
Virts Per Order
           75
          125
 
 --------------------------------------------------------------
 
                    Orbital Energies (a.u.)
 --------------------------------------------------------------
 
 Alpha MOs
 -- Occupied --
-10.2756 -10.2669 -10.2661 -10.2642 -10.2631 -10.2626 -10.2526  -0.9949
 -0.9026  -0.8754  -0.8072  -0.7256  -0.7012  -0.6249  -0.5693  -0.5604
 -0.5287  -0.5246  -0.5087  -0.4797  -0.4699  -0.4358  -0.4344  -0.3467
 -0.3352
 -- Virtual --
  0.0678   0.0684   0.0722   0.0844   0.0899   0.1096   0.1159   0.1183
  0.1410   0.1601   0.1722   0.1737   0.1925   0.1935   0.2005   0.2071
  0.2277   0.2294   0.2401   0.2458   0.2570   0.2647   0.2675   0.2746
  0.2874   0.2878   0.2907   0.2973   0.2979   0.3063   0.3076   0.3147
  0.3234   0.3299   0.3397   0.3400   0.3561   0.3581   0.3717   0.3782
  0.3854   0.3870   0.3888   0.3936   0.3949   0.4060   0.4101   0.4152
  0.4154   0.4325   0.4349   0.4416   0.4470   0.4533   0.4558   0.4579
  0.4686   0.4752   0.4790   0.4872   0.5000   0.5025   0.5170   0.5232
  0.5234   0.5291   0.5396   0.5447   0.5473   0.5523   0.5544   0.5716
  0.5892   0.5943   0.5997   0.6054   0.6074   0.6266   0.6467   0.6515
  0.6641   0.6786   0.6901   0.6915   0.6957   0.6973   0.7260   0.7271
  0.7338   0.7361   0.7490   0.7617   0.7669   0.7711   0.7829   0.7924
  0.7948   0.7999   0.8032   0.8088   0.8123   0.8254   0.8301   0.8385
  0.8404   0.8419   0.8456   0.8570   0.8634   0.8816   0.8946   0.9028
  0.9121   0.9173   0.9398   0.9514   0.9563   1.0210   1.0264   1.0460
  1.0484   1.0655   1.0774   1.0855   1.0937   1.0967   1.1088   1.1465
  1.1699   1.1882   1.2536   1.2832   1.3002   1.3262   1.3529   1.3576
  1.3869   1.4403   1.4562   1.4652   1.4714   1.4953   1.5314   1.5476
  1.6053   1.6078   1.6223   1.6296   1.6740   1.6867   1.7440   1.7869
  1.8002   1.8051   1.8101   1.8213   1.8359   1.8760   1.8959   1.9195
  1.9233   1.9290   1.9573   1.9628   1.9893   2.0009   2.0175   2.0308
  2.0345   2.0525   2.0770   2.1014   2.1229   2.1299   2.1790   2.1813
  2.2037   2.2404   2.2468   2.2764   2.2897   2.3195   2.4039   2.4061
  2.4098   2.4136   2.4924   2.5156   2.5391   2.5584   2.5682   2.6119
  2.6283   2.6353   2.6701   2.6849   2.7031   2.7243   2.7656   2.7747
  2.7953   2.8201   2.8270   2.8559   2.8709   2.9101   2.9141   2.9234
  2.9443   2.9513   2.9663   2.9803   2.9972   3.0212   3.0279   3.0584
  3.0666   3.0964   3.1125   3.1330   3.1915   3.1941   3.2098   3.2259
  3.2399   3.2434   3.2961   3.3178   3.3284   3.3589   3.3717   3.3852
  3.4061   3.4514   3.4534   3.4577   3.4648   3.4766   3.4993   3.5086
  3.5131   3.5354   3.5443   3.5506   3.5710   3.5797   3.5971   3.6138
  3.6232   3.6451   3.6597   3.6975   3.7201   3.7592   3.7900   3.8273
  3.8485   3.8955   3.9144   3.9632   3.9715   4.0061   4.0478   4.0628
  4.1209   4.2102   4.2822   4.2896   4.3068   4.3347   4.3360   4.3390
  4.3598   4.3810   4.3994   4.4100   4.4460   4.4621   4.4839   4.5380
  4.6078   4.6507   4.7621   4.7666   4.8444   4.9036   4.9082   4.9552
  5.0403   5.0589   5.1748   5.2780   5.3871   5.3985   5.5165   5.5387
  5.6865   5.8620  22.5797  22.6819  22.9080  22.9125  23.0323  23.1002
 23.4461
 --------------------------------------------------------------
 
          Ground-State Mulliken Net Atomic Charges

     Atom                 Charge (a.u.)
  ----------------------------------------
      1 C                    -1.106038
      2 C                    -0.567828
      3 C                    -0.563841
      4 C                    -0.559262
      5 C                    -0.410757
      6 C                    -0.411457
      7 C                     0.855436
      8 H                     0.397011
      9 H                     0.383025
     10 H                     0.374563
     11 H                     0.388363
     12 H                     0.386425
     13 H                     0.292595
     14 H                     0.297482
     15 H                     0.244281
  ----------------------------------------
  Sum of atomic charges =     0.000000

 -----------------------------------------------------------------
                    Cartesian Multipole Moments
 -----------------------------------------------------------------
    Charge (ESU x 10^10)
                -0.0000
    Dipole Moment (Debye)
         X       0.4459      Y      -0.2890      Z      -0.0953
       Tot       0.5399
    Quadrupole Moments (Debye-Ang)
        XX     -37.5743     XY      -2.8520     YY     -40.8585
        XZ       0.6960     YZ       4.8295     ZZ     -40.8518
    Octopole Moments (Debye-Ang^2)
       XXX     -79.1969    XXY      78.2886    XYY     -17.3965
       YYY     255.5678    XXZ      58.3868    XYZ       2.4015
       YYZ      47.4283    XZZ     -29.6742    YZZ      71.6574
       ZZZ     187.4098
    Hexadecapole Moments (Debye-Ang^3)
      XXXX    -607.2483   XXXY     251.2123   XXYY    -305.8113
      XYYY     222.7489   YYYY   -1306.9596   XXXZ     134.5768
      XXYZ    -139.8706   XYYZ      28.7930   YYYZ    -418.6017
      XXZZ    -227.1965   XYZZ      85.4984   YYZZ    -296.6316
      XZZZ     134.7998   YZZZ    -418.4108   ZZZZ    -789.3425
 -----------------------------------------------------------------
Archival summary:
1\1\nid00509\SP\ProcedureUnspecified\BasisUnspecified\78\meili\SunSep2617:02:492021SunSep2617:02:492021\0\\#,ProcedureUnspecified,BasisUnspecified,\\0,1\C\C,1,1.38879\H,2,1.08049,1,119.887\C,2,1.38981,1,120.543,3,179.856,0\H,4,1.07393,2,119.104,1,-178.004,0\C,4,1.38586,2,120.003,1,0.507407,0\H,6,1.08107,4,120.537,2,-179.292,0\C,1,1.39017,2,119.323,3,179.602,0\H,8,1.07966,1,120.289,2,-179.477,0\C,8,1.38981,1,120.232,2,0.55284,0\H,10,1.07943,8,119.763,1,179.967,0\C,1,1.50095,2,120.461,3,0.419583,0\H,12,1.08724,1,109.888,2,31.615,0\H,12,1.09183,1,107.792,2,148.472,0\H,12,1.1,1,114.529,2,-88.9942,0\\\@

 Total job time:  27511.91s(wall), 54685.52s(cpu) 
 Sun Sep 26 17:02:52 2021

        *************************************************************
        *                                                           *
        *  Thank you very much for using Q-Chem.  Have a nice day.  *
        *                                                           *
        *************************************************************


Done Job For Fragment 1
calling putenv with: QCSCRATCH=/global/cscratch1/sd/meili 
calling putenv with: QCLOCALSCR=/tmp 
calling putenv with: QCTHREADS=32 
Doing General SCFMI
 Exchange:     0.1670 Hartree-Fock + 1.0000 wB97X-V + LR-HF
 Correlation:  1.0000 wB97X-V
 Using Euler-Maclaurin-Lebedev (99,590) quadrature formula
 Nonlocal Correlation:  VV10 with C = 0.0100 and b = 6.00 and scale = 1.00000
 Grid used for NLC:  SG-1 standard quadrature
performing fock build before subrot guess so that all methods have access
Printing subrot_rss_gen Method Specification:
Occupied Subspace Method is 0
Virtual Subspace Method is 0
Energy of the unrelaxed supersystem initial determinant -543.158353081614
performing fock build before subrot guess so that all methods have access
Printing subrot_rss_gen Method Specification:
Occupied Subspace Method is 0
Virtual Subspace Method is 0
Energy of the unrelaxed supersystem initial determinant w/ solvent -543.172288131035
write pseudocanon occs and virts to disk
write pseudocanon orbital energies to disk
Tolerance of ortho_decomp_scf: 1.00e-06
GDM subspace size: 20
Beginning the Orthogonal Decomposition of the Initial Supersystem Wavefunction
    1    -543.1406001390      1.78e-02     ortho_decomp Preconditoned Steepest Descent
    2    -543.1419630102      4.36e-04     ortho_decomp BFGS Step
    3    -543.1419672152      3.52e-05     ortho_decomp BFGS Step
    4    -543.1419672251      1.50e-06     ortho_decomp BFGS Step
    5    -543.1419672251      4.99e-08     ortho_decomp 00000 Convergence criterion met
 Hartree-Fock
 Hartree-Fock
 Hartree-Fock
Doing General SCFMI
 Exchange:     0.1670 Hartree-Fock + 1.0000 wB97X-V + LR-HF
 Correlation:  1.0000 wB97X-V
 Using Euler-Maclaurin-Lebedev (99,590) quadrature formula
 Nonlocal Correlation:  VV10 with C = 0.0100 and b = 6.00 and scale = 1.00000
 Grid used for NLC:  SG-1 standard quadrature
performing fock build at end of subrot_r(subrot) constructor so that all methods have access
<S^2> of initial wavefunction before polarization iterations 0.0000000000
Beginning iterations for the determination of the polarized wavefunction
Energy prior to optimization (guess energy) = -543.172288131036
Begin Timing: Total SCF Calculation
begin iterations for algorithm: DIIS         
the SCF tolerance is set to 1.00e-08
    1    -543.1722881310      4.01e-05     00000 
    2    -543.1724584433      1.70e-05     00000 
    3    -543.1724796773      9.37e-06     00000 
    4    -543.1724871470      2.69e-06     00000 
    5    -543.1724882095      1.43e-06     00000 
    6    -543.1724884910      5.30e-07     00000 
    7    -543.1724885302      2.37e-07     00000 
    8    -543.1724885355      1.15e-07     00000 
    9    -543.1724885362      4.94e-08     00000 
   10    -543.1724885363      2.43e-08     00000 
   11    -543.1724885364      1.18e-08     00000 
   12    -543.1724885364      3.96e-09     00000 Convergence criterion met
write pseudocanon occs and virts to disk
write pseudocanon orbital energies to disk
Timing for Total SCF: 10445.00s (wall), 20794.24s (cpu)
<S^2> of polarized wavefunction after polarization iterations 0.0000000000
relaxing scfmi constraint to allow all rotations in the entire AO span
Doing General SCFMI
 Exchange:     0.1670 Hartree-Fock + 1.0000 wB97X-V + LR-HF
 Correlation:  1.0000 wB97X-V
 Using Euler-Maclaurin-Lebedev (99,590) quadrature formula
 Nonlocal Correlation:  VV10 with C = 0.0100 and b = 6.00 and scale = 1.00000
 Grid used for NLC:  SG-1 standard quadrature
performing fock build at end of subrot_r(subrot) constructor so that all methods have access
<S^2> of polarized wavefunction before ct-allowed iterations 0.0000000000
Beginning iterations for the determination of the CT-Allowed wavefunction
Energy prior to optimization (guess energy) = -543.172488536386
Begin Timing: Total SCF Calculation
begin iterations for algorithm: DIIS         
the SCF tolerance is set to 1.00e-08
    1    -543.1724885364      6.14e-05     00000 
    2    -543.1732538228      6.05e-06     00000 
    3    -543.1732755368      1.05e-06     00000 
    4    -543.1732763092      5.01e-07     00000 
    5    -543.1732763758      1.34e-07     00000 
    6    -543.1732763854      4.14e-08     00000 
    7    -543.1732763860      1.23e-08     00000 
    8    -543.1732763861      3.61e-09     00000 Convergence criterion met
write pseudocanon occs and virts to disk
write pseudocanon orbital energies to disk
Timing for Total SCF: 6552.00s (wall), 13043.45s (cpu)
<S^2> of ct_allowed wavefunction after ct-allowed iterations 0.0000000000

================================
        Results of EDA2         
================================
Basic EDA Quantities
--------------------
Fragment Energies (Ha):
1 -271.5790249708
2 -271.5804366242
--------------------
  E_prp (kJ/mol) = -0.0000
  E_sol (kJ/mol) = 0.4968
  E_frz (kJ/mol) = -9.4217
  E_pol (kJ/mol) = -0.5262
  E_vct (kJ/mol) = -2.0685
  E_int (kJ/mol) = -11.5196
--------------------


Initial Wavefunction Decomposition
--------------------
  --------------------
  Orthogonal Fragment Subspace Decomposition:
  --------------------
     E_elec   (ELEC)   (kJ/mol) = -17.8952
     E_pauli  (PAULI)  (kJ/mol) = 25.4854
     E_disp   (DISP)   (kJ/mol) = -17.0119
     --------------------
     Terms summing to E_pauli:
     --------------------
        E_kep_pauli       (kJ/mol) = 33.5999
        E_disp_free_pauli (kJ/mol) = -8.1145
  --------------------
  Classical Frozen Decomposition:
  --------------------
     E_cls_elec  (CLS ELEC)  (kJ/mol) = -7.2355
     E_cls_pauli (CLS PAULI) (kJ/mol) = -2.1862
    [E_mod_pauli (MOD PAULI) (kJ/mol) = 14.8257 (CLS PAULI - DISP from orthogonal decomposition) ]
  --------------------
--------------------

Simplified EDA Summary (kJ/mol)
--------------------
 PREPARATION     -0.0000
 SOLVATION       0.4968
 FROZEN          7.5902      (does not include dispersion)
[PAULI           25.4854]     (if this is negligible, then frozen describes electrostatics)
 DISPERSION      -17.0119
 POLARIZATION    -0.5262
 CHARGE TRANSFER -2.0685
 TOTAL           -11.5196     (PRP + SOL + FRZ + DISP + POL + CT)
--------------------
 
 --------------------------------------------------------------
 
                    Orbital Energies (a.u.)
 --------------------------------------------------------------
 
 Alpha MOs
 -- Occupied --
-10.2777 -10.2754 -10.2662 -10.2660 -10.2658 -10.2658 -10.2639 -10.2629
-10.2627 -10.2624 -10.2621 -10.2620 -10.2536 -10.2525  -0.9957  -0.9942
 -0.9041  -0.9024  -0.8752  -0.8743  -0.8088  -0.8070  -0.7259  -0.7252
 -0.7018  -0.7003  -0.6259  -0.6246  -0.5692  -0.5692  -0.5614  -0.5605
 -0.5332  -0.5286  -0.5238  -0.5213  -0.5102  -0.5083  -0.4822  -0.4795
 -0.4719  -0.4671  -0.4371  -0.4345  -0.4342  -0.4329  -0.3479  -0.3452
 -0.3358  -0.3330
 -- Virtual --
  0.0614   0.0633   0.0680   0.0702   0.0756   0.0770   0.0803   0.0838
  0.0967   0.1006   0.1054   0.1129   0.1179   0.1224   0.1259   0.1365
  0.1401   0.1528   0.1595   0.1665   0.1680   0.1710   0.1756   0.1867
  0.1900   0.1970   0.2015   0.2043   0.2124   0.2163   0.2207   0.2265
  0.2295   0.2341   0.2370   0.2457   0.2503   0.2540   0.2557   0.2591
  0.2636   0.2666   0.2684   0.2745   0.2778   0.2783   0.2824   0.2875
  0.2892   0.2930   0.2978   0.2999   0.3017   0.3072   0.3079   0.3090
  0.3130   0.3189   0.3210   0.3247   0.3287   0.3345   0.3369   0.3403
  0.3437   0.3456   0.3506   0.3536   0.3583   0.3606   0.3639   0.3659
  0.3731   0.3744   0.3772   0.3795   0.3810   0.3855   0.3893   0.3902
  0.3929   0.3947   0.3970   0.4036   0.4050   0.4072   0.4114   0.4134
  0.4184   0.4230   0.4270   0.4346   0.4368   0.4397   0.4422   0.4447
  0.4479   0.4500   0.4540   0.4555   0.4570   0.4588   0.4644   0.4653
  0.4703   0.4754   0.4793   0.4828   0.4894   0.4898   0.4906   0.4973
  0.4980   0.5042   0.5074   0.5120   0.5128   0.5165   0.5182   0.5242
  0.5278   0.5308   0.5352   0.5375   0.5405   0.5487   0.5520   0.5532
  0.5576   0.5634   0.5660   0.5702   0.5759   0.5793   0.5853   0.5905
  0.5947   0.5983   0.5996   0.6043   0.6106   0.6141   0.6186   0.6241
  0.6309   0.6330   0.6376   0.6411   0.6439   0.6494   0.6523   0.6575
  0.6677   0.6695   0.6775   0.6839   0.6864   0.6911   0.6927   0.6989
  0.7040   0.7084   0.7116   0.7152   0.7234   0.7265   0.7303   0.7336
  0.7388   0.7450   0.7476   0.7521   0.7570   0.7610   0.7645   0.7680
  0.7740   0.7749   0.7767   0.7803   0.7833   0.7865   0.7933   0.7975
  0.8017   0.8021   0.8045   0.8079   0.8119   0.8158   0.8182   0.8216
  0.8270   0.8318   0.8363   0.8387   0.8415   0.8437   0.8448   0.8486
  0.8563   0.8592   0.8632   0.8663   0.8687   0.8736   0.8813   0.8826
  0.8856   0.8950   0.8969   0.9034   0.9086   0.9114   0.9187   0.9222
  0.9228   0.9299   0.9403   0.9421   0.9523   0.9559   0.9596   0.9728
  0.9812   0.9922   1.0060   1.0091   1.0118   1.0185   1.0323   1.0387
  1.0423   1.0521   1.0639   1.0746   1.0779   1.0846   1.0890   1.0923
  1.0973   1.1050   1.1081   1.1131   1.1202   1.1267   1.1346   1.1487
  1.1542   1.1618   1.1668   1.1901   1.1940   1.2006   1.2187   1.2304
  1.2470   1.2681   1.2809   1.2939   1.3183   1.3353   1.3398   1.3512
  1.3546   1.3686   1.3756   1.3840   1.3986   1.4171   1.4361   1.4432
  1.4549   1.4651   1.4728   1.4838   1.4911   1.4938   1.4987   1.5071
  1.5159   1.5277   1.5501   1.5504   1.5743   1.5761   1.5805   1.6155
  1.6221   1.6301   1.6438   1.6500   1.6682   1.6710   1.6764   1.6953
  1.6995   1.7041   1.7173   1.7700   1.7852   1.7951   1.7979   1.8082
  1.8222   1.8259   1.8294   1.8349   1.8463   1.8505   1.8683   1.8955
  1.9028   1.9170   1.9292   1.9358   1.9408   1.9447   1.9578   1.9620
  1.9681   1.9759   1.9865   1.9924   2.0003   2.0070   2.0106   2.0151
  2.0333   2.0426   2.0482   2.0577   2.0631   2.0701   2.0749   2.0881
  2.0903   2.1026   2.1057   2.1267   2.1346   2.1423   2.1612   2.1784
  2.1841   2.1960   2.1969   2.2091   2.2165   2.2274   2.2482   2.2549
  2.2641   2.2701   2.2771   2.2880   2.3025   2.3047   2.3240   2.3339
  2.3521   2.3613   2.3743   2.4069   2.4143   2.4199   2.4315   2.4432
  2.4503   2.4578   2.4826   2.4968   2.5176   2.5358   2.5468   2.5647
  2.5782   2.5879   2.5933   2.6037   2.6115   2.6296   2.6332   2.6419
  2.6493   2.6632   2.6656   2.6902   2.6985   2.7060   2.7117   2.7332
  2.7409   2.7440   2.7570   2.7774   2.7890   2.7999   2.8109   2.8130
  2.8272   2.8336   2.8423   2.8544   2.8683   2.8729   2.8778   2.8796
  2.8881   2.9143   2.9258   2.9360   2.9392   2.9415   2.9490   2.9601
  2.9654   2.9735   2.9893   2.9907   2.9975   3.0134   3.0238   3.0277
  3.0351   3.0439   3.0510   3.0587   3.0690   3.0814   3.0890   3.1044
  3.1089   3.1134   3.1190   3.1316   3.1439   3.1541   3.1878   3.2032
  3.2040   3.2087   3.2264   3.2284   3.2411   3.2462   3.2577   3.2689
  3.2829   3.2846   3.3024   3.3212   3.3295   3.3438   3.3538   3.3586
  3.3699   3.3792   3.3878   3.3975   3.4084   3.4178   3.4314   3.4452
  3.4489   3.4579   3.4598   3.4660   3.4755   3.4788   3.4816   3.4915
  3.4988   3.5076   3.5097   3.5170   3.5207   3.5313   3.5341   3.5452
  3.5481   3.5563   3.5621   3.5652   3.5745   3.5787   3.5834   3.5928
  3.6002   3.6019   3.6054   3.6221   3.6265   3.6300   3.6398   3.6493
  3.6583   3.6671   3.6796   3.6962   3.7103   3.7155   3.7170   3.7306
  3.7337   3.7524   3.7654   3.7709   3.8016   3.8237   3.8403   3.8550
  3.8894   3.9027   3.9188   3.9391   3.9608   3.9751   3.9819   3.9869
  3.9962   4.0224   4.0283   4.0570   4.0590   4.0818   4.0870   4.1476
  4.1557   4.2321   4.2475   4.2878   4.2938   4.3009   4.3115   4.3191
  4.3268   4.3417   4.3504   4.3505   4.3526   4.3696   4.3745   4.3790
  4.3862   4.3902   4.3939   4.4006   4.4118   4.4194   4.4381   4.4522
  4.4680   4.4810   4.5056   4.5114   4.5460   4.5584   4.5790   4.6252
  4.6421   4.6557   4.6722   4.7679   4.7722   4.7758   4.8154   4.8279
  4.8515   4.8701   4.9119   4.9294   4.9378   4.9754   4.9812   5.0514
  5.0619   5.0776   5.0946   5.1866   5.1994   5.2878   5.3010   5.4010
  5.4037   5.4059   5.4202   5.5051   5.5290   5.5333   5.5513   5.6980
  5.7117   5.8396   5.8654  22.6540  22.6911  22.7220  22.7532  22.9367
 22.9552  22.9692  22.9899  23.0544  23.0633  23.1327  23.1441  23.4615
 23.4682
 --------------------------------------------------------------
 
          Ground-State Mulliken Net Atomic Charges

     Atom                 Charge (a.u.)
  ----------------------------------------
      1 C                    -1.244901
      2 C                    -0.282806
      3 C                     1.000815
      4 C                    -0.513419
      5 C                    -0.554615
      6 C                    -0.593138
      7 C                    -0.597201
      8 H                     0.403600
      9 H                     0.385729
     10 H                     0.258004
     11 H                     0.284547
     12 H                     0.406081
     13 H                     0.415757
     14 H                     0.379132
     15 H                     0.311200
     16 C                    -1.145493
     17 C                    -0.433883
     18 C                    -0.657988
     19 C                    -0.137529
     20 C                    -0.455897
     21 C                    -0.753033
     22 C                     0.526485
     23 H                     0.445412
     24 H                     0.405962
     25 H                     0.470051
     26 H                     0.419385
     27 H                     0.398783
     28 H                     0.303469
     29 H                     0.307918
     30 H                     0.247574
  ----------------------------------------
  Sum of atomic charges =     0.000000

 -----------------------------------------------------------------
                    Cartesian Multipole Moments
 -----------------------------------------------------------------
    Charge (ESU x 10^10)
                -0.0000
    Dipole Moment (Debye)
         X       0.0196      Y      -0.4896      Z       0.3013
       Tot       0.5752
    Quadrupole Moments (Debye-Ang)
        XX     -75.7793     XY      -0.5001     YY     -85.8431
        XZ       0.9970     YZ       2.2814     ZZ     -78.5179
    Octopole Moments (Debye-Ang^2)
       XXX      -2.5791    XXY      -0.8883    XYY      22.6870
       YYY     -20.2793    XXZ      -1.3854    XYZ       7.8475
       YYZ     -32.7190    XZZ      -2.9382    YZZ     -12.2763
       ZZZ       9.9448
    Hexadecapole Moments (Debye-Ang^3)
      XXXX   -1054.9471   XXXY     337.5365   XXYY    -584.5769
      XYYY     359.3031   YYYY   -2675.5601   XXXZ     296.5922
      XXYZ    -231.6303   XYYZ     103.4058   YYYZ    -785.1957
      XXZZ    -459.7659   XYZZ     119.6755   YYZZ    -691.4930
      XZZZ     301.1797   YZZZ    -712.8677   ZZZZ   -1728.1356
 -----------------------------------------------------------------
Archival summary:
1\1\nid00509\SP\ProcedureUnspecified\BasisUnspecified\1416\meili\MonSep2701:46:192021MonSep2701:46:192021\0\\#,ProcedureUnspecified,BasisUnspecified,\\0,1\C\H,1,1.07943\C,1,1.38981,2,119.763\H,3,1.07966,1,119.479,2,-0.00357133,0\C,3,1.39017,1,120.232,2,179.967,0\C,5,1.38879,3,119.323,1,0.55284,0\H,6,1.08049,5,119.887,3,179.602,0\C,6,1.38981,5,120.543,3,-0.541847,0\H,8,1.07393,6,119.104,5,-178.004,0\C,8,1.38586,6,120.003,5,0.507407,0\H,10,1.08107,8,120.537,6,-179.292,0\C,5,1.50095,3,120.211,1,179.737,0\H,12,1.08724,5,109.888,3,-147.56,0\H,12,1.09183,5,107.792,3,-30.7035,0\H,12,1.1,5,114.529,3,91.8307,0\C,2,2.78951,1,155.89,3,-170.2,0\C,16,1.38772,2,76.7126,1,-47.3998,0\H,17,1.08085,16,119.693,2,103.763,0\C,17,1.38993,16,121.044,2,-76.1116,0\H,19,1.0764,17,119.545,16,178.131,0\C,19,1.38563,17,119.846,16,0.55427,0\H,21,1.08098,19,120.123,17,-179.607,0\C,21,1.37589,19,119.953,17,-0.289308,0\H,23,1.08149,21,119.678,19,-179.42,0\C,16,1.39555,2,83.8308,1,-168.677,0\H,25,1.0641,16,121.85,2,-112.238,0\C,16,1.50204,2,108.567,1,68.7204,0\H,27,1.08443,16,108.337,2,-33.447,0\H,27,1.09091,16,106.728,2,-148.954,0\H,27,1.1,16,116.51,2,90.5068,0\\\@

 Total job time:  85676.31s(wall), 63001.40s(cpu) 
 Mon Sep 27 01:46:23 2021

        *************************************************************
        *                                                           *
        *  Thank you very much for using Q-Chem.  Have a nice day.  *
        *                                                           *
        *************************************************************


