
Running Job 1 of 1 SSI-102HIE-109TYR-1_PCM_TZVPD.in
qchem SSI-102HIE-109TYR-1_PCM_TZVPD.in_1012.0 /tmp/qchem1012/ 0
/global/common/cori/software/qchem/5.2/exe/qcprog.exe_s SSI-102HIE-109TYR-1_PCM_TZVPD.in_1012.0 /tmp/qchem1012/
                  Welcome to Q-Chem
     A Quantum Leap Into The Future Of Chemistry


 Q-Chem 5.2, Q-Chem, Inc., Pleasanton, CA (2019)

 License issued to: National Energy Research Scientific Computing Center

 Yihan Shao,  Zhengting Gan,  E. Epifanovsky,  A. T. B. Gilbert,  M. Wormit,  
 J. Kussmann,  A. W. Lange,  A. Behn,  Jia Deng,  Xintian Feng,  D. Ghosh,  
 M. Goldey,  P. R. Horn,  L. D. Jacobson,  I. Kaliman,  T. Kus,  A. Landau,  
 Jie Liu,  E. I. Proynov,  R. M. Richard,  R. P. Steele,  E. J. Sundstrom,  
 H. L. Woodcock III,  P. M. Zimmerman,  D. Zuev,  B. Albrecht,  E. Alguire,  
 S. A. Baeppler,  D. Barton,  Z. Benda,  Y. A. Bernard,  E. J. Berquist,  
 K. B. Bravaya,  H. Burton,  D. Casanova,  Chun-Min Chang,  Yunqing Chen,  
 A. Chien,  K. D. Closser,  M. P. Coons,  S. Coriani,  S. Dasgupta,  
 A. L. Dempwolff,  M. Diedenhofen,  Hainam Do,  R. G. Edgar,  Po-Tung Fang,  
 S. Faraji,  S. Fatehi,  Qingguo Feng,  K. D. Fenk,  J. Fosso-Tande,  
 J. Gayvert,  Qinghui Ge,  A. Ghysels,  G. Gidofalvi,  J. Gomes,  
 J. Gonthier,  A. Gunina,  D. Hait,  M. W. D. Hanson-Heine,  
 P. H. P. Harbach,  A. W. Hauser,  M. F. Herbst,  J. E. Herr,  
 E. G. Hohenstein,  Z. C. Holden,  Kerwin Hui,  B. C. Huynh,  T.-C. Jagau,  
 Hyunjun Ji,  B. Kaduk,  K. Khistyaev,  Jaehoon Kim,  P. Klunzinger,  K. Koh,  
 D. Kosenkov,  L. Koulias,  T. Kowalczyk,  C. M. Krauter,  A. Kunitsa,  
 Ka Un Lao,  A. Laurent,  K. V. Lawler,  Joonho Lee,  D. Lefrancois,  
 S. Lehtola,  D. S. Levine,  Yi-Pei Li,  You-Sheng Lin,  Fenglai Liu,  
 E. Livshits,  A. Luenser,  P. Manohar,  E. Mansoor,  S. F. Manzer,  
 Shan-Ping Mao,  Yuezhi Mao,  N. Mardirossian,  A. V. Marenich,  
 T. Markovich,  L. A. Martinez-Martinez,  S. A. Maurer,  N. J. Mayhall,  
 S. C. McKenzie,  J.-M. Mewes,  P. Morgante,  A. F. Morrison,  
 J. W. Mullinax,  K. Nanda,  T. S. Nguyen-Beck,  R. Olivares-Amaya,  
 J. A. Parkhill,  Zheng Pei,  T. M. Perrine,  F. Plasser,  P. Pokhilko,  
 S. Prager,  A. Prociuk,  E. Ramos,  D. R. Rehn,  F. Rob,  M. Scheurer,  
 M. Schneider,  N. Sergueev,  S. M. Sharada,  S. Sharma,  D. W. Small,  
 T. Stauch,  T. Stein,  Yu-Chuan Su,  A. J. W. Thom,  A. Tkatchenko,  
 T. Tsuchimochi,  N. M. Tubman,  L. Vogt,  M. L. Vidal,  O. Vydrov,  
 M. A. Watson,  J. Wenzel,  M. de Wergifosse,  T. A. Wesolowski,  A. White,  
 J. Witte,  A. Yamada,  Jun Yang,  K. Yao,  S. Yeganeh,  S. R. Yost,  
 Zhi-Qiang You,  A. Zech,  Igor Ying Zhang,  Xing Zhang,  Yan Zhao,  
 Ying Zhu,  B. R. Brooks,  G. K. L. Chan,  C. J. Cramer,  M. S. Gordon,  
 W. J. Hehre,  A. Klamt,  M. W. Schmidt,  C. D. Sherrill,  D. G. Truhlar,  
 A. Aspuru-Guzik,  R. Baer,  A. T. Bell,  N. A. Besley,  Jeng-Da Chai,  
 A. E. DePrince, III,  R. A. DiStasio Jr.,  A. Dreuw,  B. D. Dunietz,  
 T. R. Furlani,  Chao-Ping Hsu,  Yousung Jung,  Jing Kong,  D. S. Lambrecht,  
 WanZhen Liang,  C. Ochsenfeld,  V. A. Rassolov,  L. V. Slipchenko,  
 J. E. Subotnik,  T. Van Voorhis,  J. M. Herbert,  A. I. Krylov,  
 P. M. W. Gill,  M. Head-Gordon

 Contributors to earlier versions of Q-Chem not listed above: 
 R. D. Adamson,  B. Austin,  J. Baker,  G. J. O. Beran,  K. Brandhorst,  
 S. T. Brown,  E. F. C. Byrd,  A. K. Chakraborty,  C.-L. Cheng,  
 Siu Hung Chien,  D. M. Chipman,  D. L. Crittenden,  H. Dachsel,  
 R. J. Doerksen,  A. D. Dutoi,  L. Fusti-Molnar,  W. A. Goddard III,  
 A. Golubeva-Zadorozhnaya,  S. R. Gwaltney,  G. Hawkins,  A. Heyden,  
 S. Hirata,  G. Kedziora,  F. J. Keil,  C. Kelley,  Jihan Kim,  R. A. King,  
 R. Z. Khaliullin,  P. P. Korambath,  W. Kurlancheek,  A. M. Lee,  M. S. Lee,  
 S. V. Levchenko,  Ching Yeh Lin,  D. Liotard,  R. C. Lochan,  I. Lotan,  
 P. E. Maslen,  N. Nair,  D. P. O'Neill,  D. Neuhauser,  E. Neuscamman,  
 C. M. Oana,  R. Olson,  B. Peters,  R. Peverati,  P. A. Pieniazek,  
 Y. M. Rhee,  J. Ritchie,  M. A. Rohrdanz,  E. Rosta,  N. J. Russ,  
 H. F. Schaefer III,  N. E. Schultz,  N. Shenvi,  A. C. Simmonett,  A. Sodt,  
 D. Stuck,  K. S. Thanthiriwatte,  V. Vanovschi,  Tao Wang,  A. Warshel,  
 C. F. Williams,  Q. Wu,  X. Xu,  W. Zhang

 Please cite Q-Chem as follows:
 Y. Shao et al., Mol. Phys. 113, 184-215 (2015)
 DOI: 10.1080/00268976.2014.952696

 Q-Chem 5.2.0 for Intel X86 EM64T Linux

 Parts of Q-Chem use Armadillo 8.300.2 (Tropical Shenanigans).
 http://arma.sourceforge.net/

 Q-Chem begins on Sun Sep 26 12:56:09 2021  

Host: cori01
0

     Scratch files written to /tmp/qchem1012//
 May1019 |scratch|qcdevops|jenkins|workspace|build_RNUM -1
Processing $rem in /global/common/cori/software/qchem/5.2/config/preferences:
	 MEM_TOTAL  96000 
NAlpha2: 102
NElect   102
Mult     1
Symmetry turned off for PCM/SM12/SMD calculation

 Q-Chem warning in module libgen/rem_setup.C, line 2803:

 Neither GIA nor STOLL is specified by user. Use STOLL as the default


Checking the input file for inconsistencies... 	...done.

--------------------------------------------------------------
User input:
--------------------------------------------------------------
$comment
SSI-102HIE-109TYR-1.pdb
$end

$molecule
0 1
--
0 1
C   -0.704478086141    3.973196203588   -2.222336332330
C   -0.909478086141    1.773196203588    0.659663667670
C   -0.495478086141    3.188196203588   -0.962336332330
C    0.480521913859    3.322196203588   -0.024336332330
N   -1.384478086141    2.240196203588   -0.497336332330
N    0.215521913859    2.418196203588    0.972663667670
H   -1.362478086141    0.986196203588    1.251663667670
H    0.795521913859    2.228196203588    1.782663667670
H    1.311521913859    4.009196203588   -0.063336332330
H    0.084521913859    4.720196203588   -2.281336332330
H   -1.652478086141    4.506196203588   -2.143336332330
H   -0.698748086141    3.381666203588   -3.149736332330
--
0 1
C   -0.245478086141   -3.723803796412   -2.120336332330
C    0.627521913859   -1.401803796412    1.369663667670
C    0.018521913859   -2.644803796412    1.489663667670
C    0.967521913859   -0.904803796412    0.126663667670
C   -0.259478086141   -3.387803796412    0.351663667670
C    0.700521913859   -1.671803796412   -1.012336332330
C    0.103521913859   -2.920803796412   -0.900336332330
O    0.855521913859   -0.676803796412    2.500663667670
H   -0.260478086141   -3.015803796412    2.463663667670
H    0.558521913859   -1.144803796412    3.288663667670
H    1.425521913859    0.066196203588    0.046663667670
H   -0.775478086141   -4.328803796412    0.458663667670
H    0.948521913859   -1.278803796412   -1.988336332330
H    0.214521913859   -3.275803796412   -3.002336332330
H   -1.321478086141   -3.670803796412   -2.247336332330
H    0.018161913859   -4.790733796412   -2.073856332330
$end

$rem
JOBTYPE			EDA
EDA2			1
method			wB97X-V
BASIS			def2-TZVPD
XC_GRID			000099000590
NL_GRID			1
UNRESTRICTED		FALSE
MAX_SCF_CYCLES		200
SYMMETRY		FALSE
SYM_IGNORE		TRUE
MEM_STATIC		2000
BASIS_LIN_DEP_THRESH 	6
THRESH 			14
SCF_CONVERGENCE 	8
SCF_PRINT_FRGM 		TRUE
SOLVENT_METHOD          PCM
$end

$PCM
THEORY                  CPCM
METHOD                  SWIG
SOLVER                  INVERSION
RADII                   UFF
HPOINTS                 302
HEAVYPOINTS             302
PRINTLEVEL              0
$END

$SOLVENT
DIELECTRIC              78.390000 ! water
$END
--------------------------------------------------------------
 ----------------------------------------------------------------
             Standard Nuclear Orientation (Angstroms)
    I     Atom           X                Y                Z
 ----------------------------------------------------------------
    1      C      -0.7044780861     3.9731962036    -2.2223363323
    2      C      -0.9094780861     1.7731962036     0.6596636677
    3      C      -0.4954780861     3.1881962036    -0.9623363323
    4      C       0.4805219139     3.3221962036    -0.0243363323
    5      N      -1.3844780861     2.2401962036    -0.4973363323
    6      N       0.2155219139     2.4181962036     0.9726636677
    7      H      -1.3624780861     0.9861962036     1.2516636677
    8      H       0.7955219139     2.2281962036     1.7826636677
    9      H       1.3115219139     4.0091962036    -0.0633363323
   10      H       0.0845219139     4.7201962036    -2.2813363323
   11      H      -1.6524780861     4.5061962036    -2.1433363323
   12      H      -0.6987480861     3.3816662036    -3.1497363323
   13      C      -0.2454780861    -3.7238037964    -2.1203363323
   14      C       0.6275219139    -1.4018037964     1.3696636677
   15      C       0.0185219139    -2.6448037964     1.4896636677
   16      C       0.9675219139    -0.9048037964     0.1266636677
   17      C      -0.2594780861    -3.3878037964     0.3516636677
   18      C       0.7005219139    -1.6718037964    -1.0123363323
   19      C       0.1035219139    -2.9208037964    -0.9003363323
   20      O       0.8555219139    -0.6768037964     2.5006636677
   21      H      -0.2604780861    -3.0158037964     2.4636636677
   22      H       0.5585219139    -1.1448037964     3.2886636677
   23      H       1.4255219139     0.0661962036     0.0466636677
   24      H      -0.7754780861    -4.3288037964     0.4586636677
   25      H       0.9485219139    -1.2788037964    -1.9883363323
   26      H       0.2145219139    -3.2758037964    -3.0023363323
   27      H      -1.3214780861    -3.6708037964    -2.2473363323
   28      H       0.0181619139    -4.7907337964    -2.0738563323
 ----------------------------------------------------------------
 Nuclear Repulsion Energy =         824.92765807 hartrees
 There are       51 alpha and       51 beta electrons
 Requested basis set is def2-TZVPD
 There are 253 shells and 647 basis functions

 Total QAlloc Memory Limit  96000 MB
 Mega-Array Size      1956 MB
 MEM_STATIC part      2000 MB
 Discretize the solute cavity surface with Lebedev spheres
	Using 302 Lebedev grid points for each H atom
	Using 302 Lebedev grid points for other atoms
	Atomic van der Waals radii will be scaled by 1.20
 Remove points where switching function is < 1.0e-08
 Keep 3115 surface tesserae and discard 5341 interior tesserae
 Molecular Surface Area = 311.266 Angst**2
 A cutoff of  1.0D-14 yielded  27257 shell pairs
 There are    178909 function pairs (    226692 Cartesian)
 Smallest overlap matrix eigenvalue = 4.62E-07
 Linear dependence detected in AO basis
 Tighter screening thresholds may be required for diffuse basis sets
 Use S2THRESH > 14 and THRESH = 14 in case of SCF convergence issues
 Number of orthogonalized atomic orbitals = 645
 Maximum deviation from orthogonality = 2.024E-10

 Scale SEOQF with 1.000000e-01/1.000000e-01/1.000000e-01

 Standard Electronic Orientation quadrupole field applied
 Nucleus-field energy     =     0.0000000318 hartrees

 -----------------------------------------------------------------------
  General SCF calculation program by
  Eric Jon Sundstrom, Paul Horn, Yuezhi Mao, Dmitri Zuev, Alec White,
  David Stuck, Shaama M.S., Shane Yost, Joonho Lee, David Small,
  Daniel Levine, Susi Lehtola, Hugh Burton, Evgeny Epifanovsky
 -----------------------------------------------------------------------
================================================================
                 ALMO-EDA with the EDA2 driver                  
================================================================
 The second-generation ALMO-EDA (for DFT):                      
 P. R. Horn, Y. Mao and M. Head-Gordon, PCCP, 18, 23067 (2016)  
 Decomposition of the frozen energy:                            
 P. R. Horn, Y. Mao and M. Head-Gordon, JCP, 144, 114107 (2016) 
 FERF model for polarization:                                   
 P. R. Horn and M. Head-Gordon, JCP, 143, 114111 (2015)         
Using eda2 option set 1
Option set summary: Frozen orbital wavefunction, initial wavefunction decomposition, and nDQ polarization.
--------------------------------
Printing EDA Options
--------------------------------
eda_child_super_basis      0
fragmo_guess_mode          0
child_mp                   1
child_mp_orders            232
cls_elec                   1
cls_disp                   0
scfmi_mode                 1
scfmi_occs                 0
scfmi_virts                0
frz_relax                  0
frz_relax_method           0
dc_pen_start               0
dc_pen_conv                0
dc_pen_increment           0
dc_pen_steps               0
dc_pen_thresh_factor       0
dc_pen_pre_newton_thresh   0
frz_ortho_decomp           1
frz_ortho_decomp_conv      6
frgm_method                2
scfmi_freeze_ss            0
separate_rehyb             0
plot_diff_den              0
eda_nocv                   0
eda_vct_relax              1
disp_free_x                0
disp_free_c                0
eda_bsse                   0
eda_pct_a                  0
eda_covp                   0
--------------------------------
Attempting to make child job directory: /tmp/qchem1012//Frg1/
Attempting to make child job directory: /tmp/qchem1012//Frg2/
Creating input file /tmp/qchem1012/Frg1.input
using default PutDataFrgm: nothing
calling putenv with: QCSCRATCH=/tmp/qchem1012/ 
calling putenv with: QCLOCALSCR=/tmp/qchem1012/ 
Spawning Job For Fragment 0
                  Welcome to Q-Chem
     A Quantum Leap Into The Future Of Chemistry


 Q-Chem 5.2, Q-Chem, Inc., Pleasanton, CA (2019)

 License issued to: National Energy Research Scientific Computing Center

 Yihan Shao,  Zhengting Gan,  E. Epifanovsky,  A. T. B. Gilbert,  M. Wormit,  
 J. Kussmann,  A. W. Lange,  A. Behn,  Jia Deng,  Xintian Feng,  D. Ghosh,  
 M. Goldey,  P. R. Horn,  L. D. Jacobson,  I. Kaliman,  T. Kus,  A. Landau,  
 Jie Liu,  E. I. Proynov,  R. M. Richard,  R. P. Steele,  E. J. Sundstrom,  
 H. L. Woodcock III,  P. M. Zimmerman,  D. Zuev,  B. Albrecht,  E. Alguire,  
 S. A. Baeppler,  D. Barton,  Z. Benda,  Y. A. Bernard,  E. J. Berquist,  
 K. B. Bravaya,  H. Burton,  D. Casanova,  Chun-Min Chang,  Yunqing Chen,  
 A. Chien,  K. D. Closser,  M. P. Coons,  S. Coriani,  S. Dasgupta,  
 A. L. Dempwolff,  M. Diedenhofen,  Hainam Do,  R. G. Edgar,  Po-Tung Fang,  
 S. Faraji,  S. Fatehi,  Qingguo Feng,  K. D. Fenk,  J. Fosso-Tande,  
 J. Gayvert,  Qinghui Ge,  A. Ghysels,  G. Gidofalvi,  J. Gomes,  
 J. Gonthier,  A. Gunina,  D. Hait,  M. W. D. Hanson-Heine,  
 P. H. P. Harbach,  A. W. Hauser,  M. F. Herbst,  J. E. Herr,  
 E. G. Hohenstein,  Z. C. Holden,  Kerwin Hui,  B. C. Huynh,  T.-C. Jagau,  
 Hyunjun Ji,  B. Kaduk,  K. Khistyaev,  Jaehoon Kim,  P. Klunzinger,  K. Koh,  
 D. Kosenkov,  L. Koulias,  T. Kowalczyk,  C. M. Krauter,  A. Kunitsa,  
 Ka Un Lao,  A. Laurent,  K. V. Lawler,  Joonho Lee,  D. Lefrancois,  
 S. Lehtola,  D. S. Levine,  Yi-Pei Li,  You-Sheng Lin,  Fenglai Liu,  
 E. Livshits,  A. Luenser,  P. Manohar,  E. Mansoor,  S. F. Manzer,  
 Shan-Ping Mao,  Yuezhi Mao,  N. Mardirossian,  A. V. Marenich,  
 T. Markovich,  L. A. Martinez-Martinez,  S. A. Maurer,  N. J. Mayhall,  
 S. C. McKenzie,  J.-M. Mewes,  P. Morgante,  A. F. Morrison,  
 J. W. Mullinax,  K. Nanda,  T. S. Nguyen-Beck,  R. Olivares-Amaya,  
 J. A. Parkhill,  Zheng Pei,  T. M. Perrine,  F. Plasser,  P. Pokhilko,  
 S. Prager,  A. Prociuk,  E. Ramos,  D. R. Rehn,  F. Rob,  M. Scheurer,  
 M. Schneider,  N. Sergueev,  S. M. Sharada,  S. Sharma,  D. W. Small,  
 T. Stauch,  T. Stein,  Yu-Chuan Su,  A. J. W. Thom,  A. Tkatchenko,  
 T. Tsuchimochi,  N. M. Tubman,  L. Vogt,  M. L. Vidal,  O. Vydrov,  
 M. A. Watson,  J. Wenzel,  M. de Wergifosse,  T. A. Wesolowski,  A. White,  
 J. Witte,  A. Yamada,  Jun Yang,  K. Yao,  S. Yeganeh,  S. R. Yost,  
 Zhi-Qiang You,  A. Zech,  Igor Ying Zhang,  Xing Zhang,  Yan Zhao,  
 Ying Zhu,  B. R. Brooks,  G. K. L. Chan,  C. J. Cramer,  M. S. Gordon,  
 W. J. Hehre,  A. Klamt,  M. W. Schmidt,  C. D. Sherrill,  D. G. Truhlar,  
 A. Aspuru-Guzik,  R. Baer,  A. T. Bell,  N. A. Besley,  Jeng-Da Chai,  
 A. E. DePrince, III,  R. A. DiStasio Jr.,  A. Dreuw,  B. D. Dunietz,  
 T. R. Furlani,  Chao-Ping Hsu,  Yousung Jung,  Jing Kong,  D. S. Lambrecht,  
 WanZhen Liang,  C. Ochsenfeld,  V. A. Rassolov,  L. V. Slipchenko,  
 J. E. Subotnik,  T. Van Voorhis,  J. M. Herbert,  A. I. Krylov,  
 P. M. W. Gill,  M. Head-Gordon

 Contributors to earlier versions of Q-Chem not listed above: 
 R. D. Adamson,  B. Austin,  J. Baker,  G. J. O. Beran,  K. Brandhorst,  
 S. T. Brown,  E. F. C. Byrd,  A. K. Chakraborty,  C.-L. Cheng,  
 Siu Hung Chien,  D. M. Chipman,  D. L. Crittenden,  H. Dachsel,  
 R. J. Doerksen,  A. D. Dutoi,  L. Fusti-Molnar,  W. A. Goddard III,  
 A. Golubeva-Zadorozhnaya,  S. R. Gwaltney,  G. Hawkins,  A. Heyden,  
 S. Hirata,  G. Kedziora,  F. J. Keil,  C. Kelley,  Jihan Kim,  R. A. King,  
 R. Z. Khaliullin,  P. P. Korambath,  W. Kurlancheek,  A. M. Lee,  M. S. Lee,  
 S. V. Levchenko,  Ching Yeh Lin,  D. Liotard,  R. C. Lochan,  I. Lotan,  
 P. E. Maslen,  N. Nair,  D. P. O'Neill,  D. Neuhauser,  E. Neuscamman,  
 C. M. Oana,  R. Olson,  B. Peters,  R. Peverati,  P. A. Pieniazek,  
 Y. M. Rhee,  J. Ritchie,  M. A. Rohrdanz,  E. Rosta,  N. J. Russ,  
 H. F. Schaefer III,  N. E. Schultz,  N. Shenvi,  A. C. Simmonett,  A. Sodt,  
 D. Stuck,  K. S. Thanthiriwatte,  V. Vanovschi,  Tao Wang,  A. Warshel,  
 C. F. Williams,  Q. Wu,  X. Xu,  W. Zhang

 Please cite Q-Chem as follows:
 Y. Shao et al., Mol. Phys. 113, 184-215 (2015)
 DOI: 10.1080/00268976.2014.952696

 Q-Chem 5.2.0 for Intel X86 EM64T Linux

 Parts of Q-Chem use Armadillo 8.300.2 (Tropical Shenanigans).
 http://arma.sourceforge.net/

 Q-Chem begins on Sun Sep 26 12:56:16 2021  

Host: cori01
0

     Scratch files written to /tmp/qchem1012//Frg1//
 May1019 |scratch|qcdevops|jenkins|workspace|build_RNUM -1
Processing $rem in /global/common/cori/software/qchem/5.2/config/preferences:
	 MEM_TOTAL  96000 
NAlpha2: 44
NElect   44
Mult     1
Symmetry turned off for PCM/SM12/SMD calculation

Checking the input file for inconsistencies... 	...done.

--------------------------------------------------------------
User input:
--------------------------------------------------------------
$molecule
0 1
 6	-0.7044780861	3.9731962036	-2.2223363323
 6	-0.9094780861	1.7731962036	0.6596636677
 6	-0.4954780861	3.1881962036	-0.9623363323
 6	0.4805219139	3.3221962036	-0.0243363323
 7	-1.3844780861	2.2401962036	-0.4973363323
 7	0.2155219139	2.4181962036	0.9726636677
 1	-1.3624780861	0.9861962036	1.2516636677
 1	0.7955219139	2.2281962036	1.7826636677
 1	1.3115219139	4.0091962036	-0.0633363323
 1	0.0845219139	4.7201962036	-2.2813363323
 1	-1.6524780861	4.5061962036	-2.1433363323
 1	-0.6987480861	3.3816662036	-3.1497363323
$end
$rem
EDA2		1
METHOD		WB97X-V
BASIS		DEF2-TZVPD
XC_GRID		000099000590
NL_GRID		1
UNRESTRICTED		FALSE
MAX_SCF_CYCLES		200
SYMMETRY		FALSE
SYM_IGNORE		TRUE
BASIS_LIN_DEP_THRESH		6
THRESH		14
SCF_CONVERGENCE		8
SCF_PRINT_FRGM		TRUE
SOLVENT_METHOD		PCM
!required keywords
JOBTYPE		SP
SYM_IGNORE		TRUE
SUBSYSTEM		TRUE
GEN_SCFMAN		TRUE
CHILD_INSTRUCTION		2
SYM_IGNORE		TRUE
SCFMI		0
RI_K 0		
PARI_K 0		
MIN_PARI_K 0		
IARI_K 0		
OCC_RI_K 0		
PURECART		1111
MEM_STATIC		2000
MEM_TOTAL		96000
GUI		0
CHILD_MP		1
CHILD_MP_ORDERS		232
FRZ_RELAX		0
FRZ_RELAX_METHOD		0
EDA_CLS_ELEC		1
EDA_CLS_DISP		0
FRZ_ORTHO_DECOMP		1
EDA2		FALSE
FRGM_METHOD		FALSE
CIS_N_ROOTS  0
LOCAL_CIS    0
CIS_RLX_DNS  1
$end
$pcm
THEORY                  CPCM
METHOD                  SWIG
SOLVER                  INVERSION
RADII                   UFF
HPOINTS                 302
HEAVYPOINTS             302
PRINTLEVEL              0
$end
$solvent
DIELECTRIC              78.390000 ! water
$end
--------------------------------------------------------------
 ----------------------------------------------------------------
             Standard Nuclear Orientation (Angstroms)
    I     Atom           X                Y                Z
 ----------------------------------------------------------------
    1      C      -0.7044780861     3.9731962036    -2.2223363323
    2      C      -0.9094780861     1.7731962036     0.6596636677
    3      C      -0.4954780861     3.1881962036    -0.9623363323
    4      C       0.4805219139     3.3221962036    -0.0243363323
    5      N      -1.3844780861     2.2401962036    -0.4973363323
    6      N       0.2155219139     2.4181962036     0.9726636677
    7      H      -1.3624780861     0.9861962036     1.2516636677
    8      H       0.7955219139     2.2281962036     1.7826636677
    9      H       1.3115219139     4.0091962036    -0.0633363323
   10      H       0.0845219139     4.7201962036    -2.2813363323
   11      H      -1.6524780861     4.5061962036    -2.1433363323
   12      H      -0.6987480861     3.3816662036    -3.1497363323
 ----------------------------------------------------------------
 Nuclear Repulsion Energy =         224.49285624 hartrees
 There are       22 alpha and       22 beta electrons
 Requested basis set is def2-TZVPD
 There are 108 shells and 276 basis functions

 Total QAlloc Memory Limit  96000 MB
 Mega-Array Size      1956 MB
 MEM_STATIC part      2000 MB
 Discretize the solute cavity surface with Lebedev spheres
	Using 302 Lebedev grid points for each H atom
	Using 302 Lebedev grid points for other atoms
	Atomic van der Waals radii will be scaled by 1.20
 Remove points where switching function is < 1.0e-08
 Keep 1516 surface tesserae and discard 2108 interior tesserae
 Molecular Surface Area = 157.295 Angst**2

                       Distance Matrix (Angstroms)
             C (  1)   C (  2)   C (  3)   C (  4)   N (  5)   N (  6)
   C (  2)  3.631522
   C (  3)  1.499168  2.191918
   C (  4)  2.580548  2.190743  1.360285
   N (  5)  2.537974  1.335052  1.380308  2.207414
   N (  6)  3.670484  1.334024  2.200601  1.371660  2.180042
   H (  7)  4.628586  1.083994  3.240724  3.237549  2.152208  2.149081
   H (  8)  4.618988  2.091693  3.181714  2.135722  3.154512  1.014199
   H (  9)  2.954121  3.233460  2.178874  1.078912  3.253634  2.192212
   H ( 10)  1.088123  4.280459  2.103137  2.684263  3.389840  3.988092
   H ( 11)  1.090428  3.984739  2.114364  3.231363  2.813520  4.190301
   H ( 12)  1.100005  4.140424  2.205327  3.341009  2.967896  4.331091
             H (  7)   H (  8)   H (  9)   H ( 10)   H ( 11)
   H (  8)  2.545877
   H (  9)  4.244765  2.616473
   H ( 10)  5.340286  4.819925  2.632598
   H ( 11)  4.899033  5.157079  3.654956  1.755565
   H ( 12)  5.054813  5.281279  3.736421  1.777440  1.785220
 
 A cutoff of  1.0D-14 yielded   5738 shell pairs
 There are     38178 function pairs (     48960 Cartesian)
 Smallest overlap matrix eigenvalue = 1.82E-06

 Scale SEOQF with 1.000000e-01/1.000000e-01/1.000000e-01

 Standard Electronic Orientation quadrupole field applied
 Nucleus-field energy     =     0.0000000216 hartrees
 Guess from superposition of atomic densities
 Warning:  Energy on first SCF cycle will be non-variational
 SAD guess density has 43.559167 electrons

 -----------------------------------------------------------------------
  General SCF calculation program by
  Eric Jon Sundstrom, Paul Horn, Yuezhi Mao, Dmitri Zuev, Alec White,
  David Stuck, Shaama M.S., Shane Yost, Joonho Lee, David Small,
  Daniel Levine, Susi Lehtola, Hugh Burton, Evgeny Epifanovsky
 -----------------------------------------------------------------------
 Exchange:     0.1670 Hartree-Fock + 1.0000 wB97X-V + LR-HF
 Correlation:  1.0000 wB97X-V
 Using Euler-Maclaurin-Lebedev (99,590) quadrature formula
 Nonlocal Correlation:  VV10 with C = 0.0100 and b = 6.00 and scale = 1.00000
 Grid used for NLC:  SG-1 standard quadrature
Energy prior to optimization (guess energy) = -265.147701997356
Begin Timing: Total SCF Calculation
begin iterations for algorithm: DIIS         
the SCF tolerance is set to 1.00e-08
    1    -265.1477019974      7.18e-03     00000 
    2    -265.1086058589      7.33e-03     00000 
    3    -265.5600327970      7.34e-04     00000 
    4    -265.5637104170      4.17e-04     00000 
    5    -265.5651492369      8.58e-05     00000 
    6    -265.5652357841      3.04e-05     00000 
    7    -265.5652490316      9.44e-06     00000 
    8    -265.5652504907      3.07e-06     00000 
    9    -265.5652506806      1.37e-06     00000 
   10    -265.5652507246      3.72e-07     00000 
   11    -265.5652507294      9.32e-08     00000 
   12    -265.5652507297      5.34e-08     00000 
   13    -265.5652507297      1.06e-08     00000 
   14    -265.5652507297      4.16e-09     00000 Convergence criterion met
Timing for Total SCF: 963.00s (wall), 1909.19s (cpu)

************** Final PCM Free Energy Summary **************
 G_electrostatic  =      -0.01085626 hartree =      -6.81240655 kcal/mol
 G_cavitation     =       0.00000000 hartree =       0.00000000 kcal/mol
 G_dispersion     =       0.00000000 hartree =       0.00000000 kcal/mol
 G_repulsion      =       0.00000000 hartree =       0.00000000 kcal/mol
 --------------------------------------------------
 Non-electrostatic Free Energy =       0.00000000 hartree =       0.00000000 kcal/mol
 Total                         =      -0.01085626 hartree =      -6.81240655 kcal/mol
 --------------------------------------------------
 SCF Energy (H0 + V/2)                       =    -265.56525073 
 Solute Internal Energy (H0)                 =    -265.55439447 
 Total Free Energy (H0 + V/2 + non-elec)     =    -265.56525073 hartree
                                             = -166644.71000140 kcal/mol
***********************************************************

E_pcm = -0.0108562609
Multipole orders to be included
        2
        3
computing dipole RHS
computing quadrupole RHS
total number of RHS in solve_reponses: 8
RHS batch sizes
        8
Beginning Block Conjugate Gradient Iterations. Batch Number: 0
computing hessian-vector products by finite difference
              1      5.73e-01     00000 Conjugate Gradient Iteration
computing hessian-vector products by finite difference
              2      1.89e-01     00000 Conjugate Gradient Iteration
computing hessian-vector products by finite difference
              3      4.37e-02     00000 Conjugate Gradient Iteration
computing hessian-vector products by finite difference
              4      1.14e-02     00000 Conjugate Gradient Iteration
computing hessian-vector products by finite difference
              5      2.62e-03     00000 Conjugate Gradient Iteration
computing hessian-vector products by finite difference
              6      4.98e-04     00000 Conjugate Gradient Iteration
computing hessian-vector products by finite difference
              7      9.69e-05     00000 Conjugate Gradient Iteration
computing hessian-vector products by finite difference
              8      1.38e-05     00000 Conjugate Gradient Iteration
computing hessian-vector products by finite difference
              9      2.03e-06     00000 Conjugate Gradient Iteration
computing hessian-vector products by finite difference
             10      2.78e-07     00000 Conjugate Gradient Iteration
computing hessian-vector products by finite difference
             11      4.01e-08     00000 Conjugate Gradient Iteration
computing hessian-vector products by finite difference
             12      1.08e-08     00000 Conjugate Gradient Iteration
computing hessian-vector products by finite difference
             13      3.60e-09     00000 CG Converged
batch 0 complete
Done Calculating Responses
TESTING ORTHOGONALIZATION OF MULTIPOLE BASIS
Multipole virts passed orthogonality test
Virts Per Order
           66
          110
 
 --------------------------------------------------------------
 
                    Orbital Energies (a.u.)
 --------------------------------------------------------------
 
 Alpha MOs
 -- Occupied --
-14.4683 -14.3899 -10.3245 -10.2897 -10.2875 -10.2648  -1.1565  -0.9995
 -0.9003  -0.8285  -0.7318  -0.6883  -0.6710  -0.5667  -0.5599  -0.5431
 -0.5146  -0.5030  -0.4823  -0.3815  -0.3768  -0.3249
 -- Virtual --
  0.0640   0.0818   0.0930   0.1015   0.1139   0.1245   0.1299   0.1433
  0.1635   0.1692   0.1755   0.1813   0.1983   0.1991   0.2223   0.2338
  0.2420   0.2456   0.2593   0.2612   0.2685   0.2851   0.2962   0.3033
  0.3084   0.3106   0.3179   0.3191   0.3250   0.3338   0.3431   0.3549
  0.3574   0.3646   0.3739   0.3783   0.3931   0.3990   0.4047   0.4109
  0.4197   0.4223   0.4264   0.4454   0.4531   0.4637   0.4717   0.4787
  0.4859   0.4938   0.4980   0.5117   0.5324   0.5440   0.5481   0.5584
  0.5630   0.5694   0.5870   0.5952   0.6075   0.6094   0.6258   0.6308
  0.6428   0.6488   0.6689   0.6806   0.6877   0.6971   0.7053   0.7095
  0.7267   0.7420   0.7533   0.7705   0.7761   0.7803   0.7906   0.7996
  0.8067   0.8102   0.8236   0.8239   0.8570   0.8642   0.8791   0.8938
  0.9138   0.9390   0.9694   0.9826   0.9923   1.0079   1.0125   1.0252
  1.0669   1.0842   1.1084   1.1239   1.1246   1.1485   1.1806   1.2120
  1.2212   1.2382   1.2782   1.3251   1.3374   1.3541   1.3753   1.4148
  1.4374   1.4561   1.5392   1.5495   1.6027   1.6424   1.6478   1.6650
  1.6990   1.7322   1.7942   1.8274   1.8350   1.8514   1.8555   1.8835
  1.8971   1.9413   1.9466   1.9550   1.9661   1.9762   1.9897   2.0094
  2.0205   2.0630   2.0862   2.1342   2.1723   2.2331   2.2653   2.2800
  2.3133   2.3397   2.3711   2.3865   2.4299   2.4477   2.4525   2.4925
  2.5535   2.5947   2.5973   2.6178   2.6393   2.6500   2.6778   2.7206
  2.7428   2.7631   2.7826   2.8343   2.8613   2.8704   2.8968   2.9875
  3.0107   3.0369   3.0615   3.0630   3.0716   3.1219   3.1281   3.1547
  3.1823   3.1869   3.2074   3.2201   3.2663   3.2936   3.3001   3.3279
  3.3623   3.3679   3.3774   3.3963   3.4107   3.4497   3.4684   3.4921
  3.5113   3.5406   3.5802   3.5898   3.6219   3.6429   3.7088   3.7330
  3.7553   3.7861   3.8021   3.8442   3.8662   3.9315   3.9599   4.0321
  4.0853   4.1077   4.1364   4.2254   4.2888   4.4142   4.4424   4.5023
  4.5243   4.5676   4.5995   4.6849   4.7637   4.7891   4.8551   4.8626
  4.9460   4.9661   5.0032   5.0301   5.0384   5.0612   5.1535   5.1922
  5.2240   5.2945   5.3660   5.4396   5.4960   5.5246   5.5789   5.5909
  5.6611   5.6930   5.7474   5.7809   5.8634   6.0317   6.2365   6.2669
 22.6294  22.8699  23.1100  23.3684  32.6437  32.7694
 --------------------------------------------------------------
 
          Ground-State Mulliken Net Atomic Charges

     Atom                 Charge (a.u.)
  ----------------------------------------
      1 C                    -0.733741
      2 C                    -0.249462
      3 C                     0.567635
      4 C                    -0.521640
      5 N                    -0.479971
      6 N                     0.094139
      7 H                     0.284099
      8 H                     0.173973
      9 H                     0.257384
     10 H                     0.208179
     11 H                     0.189488
     12 H                     0.209918
  ----------------------------------------
  Sum of atomic charges =     0.000000

 -----------------------------------------------------------------
                    Cartesian Multipole Moments
 -----------------------------------------------------------------
    Charge (ESU x 10^10)
                -0.0000
    Dipole Moment (Debye)
         X       3.4336      Y       0.4845      Z       2.9626
       Tot       4.5609
    Quadrupole Moments (Debye-Ang)
        XX     -40.2200     XY       9.1856     YY     -31.8556
        XZ      -0.6307     YZ       2.7836     ZZ     -31.0176
    Octopole Moments (Debye-Ang^2)
       XXX      64.5914    XXY    -110.7163    XYY      41.7568
       YYY    -288.1754    XXZ      22.9583    XYZ       2.2546
       YYZ      11.2231    XZZ      20.1660    YZZ     -91.9511
       ZZZ      49.8254
    Hexadecapole Moments (Debye-Ang^3)
      XXXX    -225.7852   XXXY     157.8876   XXYY    -365.5394
      XYYY     199.7443   YYYY   -1878.3965   XXXZ     -58.4510
      XXYZ      82.1692   XYYZ      -5.7232   YYYZ     169.9079
      XXZZ     -95.6992   XYZZ      49.0056   YYZZ    -362.7438
      XZZZ     -41.3796   YZZZ     216.4061   ZZZZ    -351.2152
 -----------------------------------------------------------------
Archival summary:
1\1\nid00534\SP\ProcedureUnspecified\BasisUnspecified\246\meili\SunSep2617:28:182021SunSep2617:28:182021\0\\#,ProcedureUnspecified,BasisUnspecified,\\0,1\N\C,1,1.33505\H,2,1.08399,1,125.35\N,2,1.33402,1,109.527,3,179.587,0\H,4,1.0142,2,125.386,1,-177.4,0\C,4,1.37166,2,108.122,1,-0.614903,0\H,6,1.07891,4,126.494,2,179.049,0\C,6,1.36029,4,107.318,2,-1.30004,0\C,8,1.49917,6,128.903,4,177.32,0\H,9,1.08812,8,107.695,6,-0.388407,0\H,9,1.09043,8,108.437,6,-116.296,0\H,9,1.10001,8,115.232,6,121.031,0\\\@

 Total job time:  16325.01s(wall), 32357.47s(cpu) 
 Sun Sep 26 17:28:21 2021

        *************************************************************
        *                                                           *
        *  Thank you very much for using Q-Chem.  Have a nice day.  *
        *                                                           *
        *************************************************************


Done Job For Fragment 0
calling putenv with: QCSCRATCH=/global/cscratch1/sd/meili 
calling putenv with: QCLOCALSCR=/tmp 
calling putenv with: QCTHREADS=32 
Creating input file /tmp/qchem1012/Frg2.input
using default PutDataFrgm: nothing
calling putenv with: QCSCRATCH=/tmp/qchem1012/ 
calling putenv with: QCLOCALSCR=/tmp/qchem1012/ 
Spawning Job For Fragment 1
                  Welcome to Q-Chem
     A Quantum Leap Into The Future Of Chemistry


 Q-Chem 5.2, Q-Chem, Inc., Pleasanton, CA (2019)

 License issued to: National Energy Research Scientific Computing Center

 Yihan Shao,  Zhengting Gan,  E. Epifanovsky,  A. T. B. Gilbert,  M. Wormit,  
 J. Kussmann,  A. W. Lange,  A. Behn,  Jia Deng,  Xintian Feng,  D. Ghosh,  
 M. Goldey,  P. R. Horn,  L. D. Jacobson,  I. Kaliman,  T. Kus,  A. Landau,  
 Jie Liu,  E. I. Proynov,  R. M. Richard,  R. P. Steele,  E. J. Sundstrom,  
 H. L. Woodcock III,  P. M. Zimmerman,  D. Zuev,  B. Albrecht,  E. Alguire,  
 S. A. Baeppler,  D. Barton,  Z. Benda,  Y. A. Bernard,  E. J. Berquist,  
 K. B. Bravaya,  H. Burton,  D. Casanova,  Chun-Min Chang,  Yunqing Chen,  
 A. Chien,  K. D. Closser,  M. P. Coons,  S. Coriani,  S. Dasgupta,  
 A. L. Dempwolff,  M. Diedenhofen,  Hainam Do,  R. G. Edgar,  Po-Tung Fang,  
 S. Faraji,  S. Fatehi,  Qingguo Feng,  K. D. Fenk,  J. Fosso-Tande,  
 J. Gayvert,  Qinghui Ge,  A. Ghysels,  G. Gidofalvi,  J. Gomes,  
 J. Gonthier,  A. Gunina,  D. Hait,  M. W. D. Hanson-Heine,  
 P. H. P. Harbach,  A. W. Hauser,  M. F. Herbst,  J. E. Herr,  
 E. G. Hohenstein,  Z. C. Holden,  Kerwin Hui,  B. C. Huynh,  T.-C. Jagau,  
 Hyunjun Ji,  B. Kaduk,  K. Khistyaev,  Jaehoon Kim,  P. Klunzinger,  K. Koh,  
 D. Kosenkov,  L. Koulias,  T. Kowalczyk,  C. M. Krauter,  A. Kunitsa,  
 Ka Un Lao,  A. Laurent,  K. V. Lawler,  Joonho Lee,  D. Lefrancois,  
 S. Lehtola,  D. S. Levine,  Yi-Pei Li,  You-Sheng Lin,  Fenglai Liu,  
 E. Livshits,  A. Luenser,  P. Manohar,  E. Mansoor,  S. F. Manzer,  
 Shan-Ping Mao,  Yuezhi Mao,  N. Mardirossian,  A. V. Marenich,  
 T. Markovich,  L. A. Martinez-Martinez,  S. A. Maurer,  N. J. Mayhall,  
 S. C. McKenzie,  J.-M. Mewes,  P. Morgante,  A. F. Morrison,  
 J. W. Mullinax,  K. Nanda,  T. S. Nguyen-Beck,  R. Olivares-Amaya,  
 J. A. Parkhill,  Zheng Pei,  T. M. Perrine,  F. Plasser,  P. Pokhilko,  
 S. Prager,  A. Prociuk,  E. Ramos,  D. R. Rehn,  F. Rob,  M. Scheurer,  
 M. Schneider,  N. Sergueev,  S. M. Sharada,  S. Sharma,  D. W. Small,  
 T. Stauch,  T. Stein,  Yu-Chuan Su,  A. J. W. Thom,  A. Tkatchenko,  
 T. Tsuchimochi,  N. M. Tubman,  L. Vogt,  M. L. Vidal,  O. Vydrov,  
 M. A. Watson,  J. Wenzel,  M. de Wergifosse,  T. A. Wesolowski,  A. White,  
 J. Witte,  A. Yamada,  Jun Yang,  K. Yao,  S. Yeganeh,  S. R. Yost,  
 Zhi-Qiang You,  A. Zech,  Igor Ying Zhang,  Xing Zhang,  Yan Zhao,  
 Ying Zhu,  B. R. Brooks,  G. K. L. Chan,  C. J. Cramer,  M. S. Gordon,  
 W. J. Hehre,  A. Klamt,  M. W. Schmidt,  C. D. Sherrill,  D. G. Truhlar,  
 A. Aspuru-Guzik,  R. Baer,  A. T. Bell,  N. A. Besley,  Jeng-Da Chai,  
 A. E. DePrince, III,  R. A. DiStasio Jr.,  A. Dreuw,  B. D. Dunietz,  
 T. R. Furlani,  Chao-Ping Hsu,  Yousung Jung,  Jing Kong,  D. S. Lambrecht,  
 WanZhen Liang,  C. Ochsenfeld,  V. A. Rassolov,  L. V. Slipchenko,  
 J. E. Subotnik,  T. Van Voorhis,  J. M. Herbert,  A. I. Krylov,  
 P. M. W. Gill,  M. Head-Gordon

 Contributors to earlier versions of Q-Chem not listed above: 
 R. D. Adamson,  B. Austin,  J. Baker,  G. J. O. Beran,  K. Brandhorst,  
 S. T. Brown,  E. F. C. Byrd,  A. K. Chakraborty,  C.-L. Cheng,  
 Siu Hung Chien,  D. M. Chipman,  D. L. Crittenden,  H. Dachsel,  
 R. J. Doerksen,  A. D. Dutoi,  L. Fusti-Molnar,  W. A. Goddard III,  
 A. Golubeva-Zadorozhnaya,  S. R. Gwaltney,  G. Hawkins,  A. Heyden,  
 S. Hirata,  G. Kedziora,  F. J. Keil,  C. Kelley,  Jihan Kim,  R. A. King,  
 R. Z. Khaliullin,  P. P. Korambath,  W. Kurlancheek,  A. M. Lee,  M. S. Lee,  
 S. V. Levchenko,  Ching Yeh Lin,  D. Liotard,  R. C. Lochan,  I. Lotan,  
 P. E. Maslen,  N. Nair,  D. P. O'Neill,  D. Neuhauser,  E. Neuscamman,  
 C. M. Oana,  R. Olson,  B. Peters,  R. Peverati,  P. A. Pieniazek,  
 Y. M. Rhee,  J. Ritchie,  M. A. Rohrdanz,  E. Rosta,  N. J. Russ,  
 H. F. Schaefer III,  N. E. Schultz,  N. Shenvi,  A. C. Simmonett,  A. Sodt,  
 D. Stuck,  K. S. Thanthiriwatte,  V. Vanovschi,  Tao Wang,  A. Warshel,  
 C. F. Williams,  Q. Wu,  X. Xu,  W. Zhang

 Please cite Q-Chem as follows:
 Y. Shao et al., Mol. Phys. 113, 184-215 (2015)
 DOI: 10.1080/00268976.2014.952696

 Q-Chem 5.2.0 for Intel X86 EM64T Linux

 Parts of Q-Chem use Armadillo 8.300.2 (Tropical Shenanigans).
 http://arma.sourceforge.net/

 Q-Chem begins on Sun Sep 26 17:28:23 2021  

Host: cori01
0

     Scratch files written to /tmp/qchem1012//Frg2//
 May1019 |scratch|qcdevops|jenkins|workspace|build_RNUM -1
Processing $rem in /global/common/cori/software/qchem/5.2/config/preferences:
	 MEM_TOTAL  96000 
NAlpha2: 58
NElect   58
Mult     1
Symmetry turned off for PCM/SM12/SMD calculation

Checking the input file for inconsistencies... 	...done.

--------------------------------------------------------------
User input:
--------------------------------------------------------------
$molecule
0 1
 6	-0.2454780861	-3.7238037964	-2.1203363323
 6	0.6275219139	-1.4018037964	1.3696636677
 6	0.0185219139	-2.6448037964	1.4896636677
 6	0.9675219139	-0.9048037964	0.1266636677
 6	-0.2594780861	-3.3878037964	0.3516636677
 6	0.7005219139	-1.6718037964	-1.0123363323
 6	0.1035219139	-2.9208037964	-0.9003363323
 8	0.8555219139	-0.6768037964	2.5006636677
 1	-0.2604780861	-3.0158037964	2.4636636677
 1	0.5585219139	-1.1448037964	3.2886636677
 1	1.4255219139	0.0661962036	0.0466636677
 1	-0.7754780861	-4.3288037964	0.4586636677
 1	0.9485219139	-1.2788037964	-1.9883363323
 1	0.2145219139	-3.2758037964	-3.0023363323
 1	-1.3214780861	-3.6708037964	-2.2473363323
 1	0.0181619139	-4.7907337964	-2.0738563323
$end
$rem
EDA2		1
METHOD		WB97X-V
BASIS		DEF2-TZVPD
XC_GRID		000099000590
NL_GRID		1
UNRESTRICTED		FALSE
MAX_SCF_CYCLES		200
SYMMETRY		FALSE
SYM_IGNORE		TRUE
BASIS_LIN_DEP_THRESH		6
THRESH		14
SCF_CONVERGENCE		8
SCF_PRINT_FRGM		TRUE
SOLVENT_METHOD		PCM
!required keywords
JOBTYPE		SP
SYM_IGNORE		TRUE
SUBSYSTEM		TRUE
GEN_SCFMAN		TRUE
CHILD_INSTRUCTION		2
SYM_IGNORE		TRUE
SCFMI		0
RI_K 0		
PARI_K 0		
MIN_PARI_K 0		
IARI_K 0		
OCC_RI_K 0		
PURECART		1111
MEM_STATIC		2000
MEM_TOTAL		96000
GUI		0
CHILD_MP		1
CHILD_MP_ORDERS		232
FRZ_RELAX		0
FRZ_RELAX_METHOD		0
EDA_CLS_ELEC		1
EDA_CLS_DISP		0
FRZ_ORTHO_DECOMP		1
EDA2		FALSE
FRGM_METHOD		FALSE
CIS_N_ROOTS  0
LOCAL_CIS    0
CIS_RLX_DNS  1
$end
$pcm
THEORY                  CPCM
METHOD                  SWIG
SOLVER                  INVERSION
RADII                   UFF
HPOINTS                 302
HEAVYPOINTS             302
PRINTLEVEL              0
$end
$solvent
DIELECTRIC              78.390000 ! water
$end
--------------------------------------------------------------
 ----------------------------------------------------------------
             Standard Nuclear Orientation (Angstroms)
    I     Atom           X                Y                Z
 ----------------------------------------------------------------
    1      C      -0.2454780861    -3.7238037964    -2.1203363323
    2      C       0.6275219139    -1.4018037964     1.3696636677
    3      C       0.0185219139    -2.6448037964     1.4896636677
    4      C       0.9675219139    -0.9048037964     0.1266636677
    5      C      -0.2594780861    -3.3878037964     0.3516636677
    6      C       0.7005219139    -1.6718037964    -1.0123363323
    7      C       0.1035219139    -2.9208037964    -0.9003363323
    8      O       0.8555219139    -0.6768037964     2.5006636677
    9      H      -0.2604780861    -3.0158037964     2.4636636677
   10      H       0.5585219139    -1.1448037964     3.2886636677
   11      H       1.4255219139     0.0661962036     0.0466636677
   12      H      -0.7754780861    -4.3288037964     0.4586636677
   13      H       0.9485219139    -1.2788037964    -1.9883363323
   14      H       0.2145219139    -3.2758037964    -3.0023363323
   15      H      -1.3214780861    -3.6708037964    -2.2473363323
   16      H       0.0181619139    -4.7907337964    -2.0738563323
 ----------------------------------------------------------------
 Nuclear Repulsion Energy =         344.22479646 hartrees
 There are       29 alpha and       29 beta electrons
 Requested basis set is def2-TZVPD
 There are 145 shells and 371 basis functions

 Total QAlloc Memory Limit  96000 MB
 Mega-Array Size      1956 MB
 MEM_STATIC part      2000 MB
 Discretize the solute cavity surface with Lebedev spheres
	Using 302 Lebedev grid points for each H atom
	Using 302 Lebedev grid points for other atoms
	Atomic van der Waals radii will be scaled by 1.20
 Remove points where switching function is < 1.0e-08
 Keep 1850 surface tesserae and discard 2982 interior tesserae
 Molecular Surface Area = 189.589 Angst**2
 A cutoff of  1.0D-14 yielded  10052 shell pairs
 There are     67112 function pairs (     85814 Cartesian)
 Smallest overlap matrix eigenvalue = 5.39E-07
 Linear dependence detected in AO basis
 Tighter screening thresholds may be required for diffuse basis sets
 Use S2THRESH > 14 and THRESH = 14 in case of SCF convergence issues
 Number of orthogonalized atomic orbitals = 370
 Maximum deviation from orthogonality = 1.951E-10

 Scale SEOQF with 1.000000e-01/1.000000e-01/1.000000e-01

 Standard Electronic Orientation quadrupole field applied
 Nucleus-field energy     =     0.0000000102 hartrees
 Guess from superposition of atomic densities
 Warning:  Energy on first SCF cycle will be non-variational
 SAD guess density has 57.738434 electrons

 -----------------------------------------------------------------------
  General SCF calculation program by
  Eric Jon Sundstrom, Paul Horn, Yuezhi Mao, Dmitri Zuev, Alec White,
  David Stuck, Shaama M.S., Shane Yost, Joonho Lee, David Small,
  Daniel Levine, Susi Lehtola, Hugh Burton, Evgeny Epifanovsky
 -----------------------------------------------------------------------
 Exchange:     0.1670 Hartree-Fock + 1.0000 wB97X-V + LR-HF
 Correlation:  1.0000 wB97X-V
 Using Euler-Maclaurin-Lebedev (99,590) quadrature formula
 Nonlocal Correlation:  VV10 with C = 0.0100 and b = 6.00 and scale = 1.00000
 Grid used for NLC:  SG-1 standard quadrature
Energy prior to optimization (guess energy) = -346.494431042281
Begin Timing: Total SCF Calculation
begin iterations for algorithm: DIIS         
the SCF tolerance is set to 1.00e-08
    1    -346.4944310423      5.18e-03     00000 
    2    -346.4317542757      5.60e-03     00000 
    3    -346.8110079959      5.36e-04     00000 
    4    -346.8151279987      1.81e-04     00000 
    5    -346.8157370445      2.47e-05     00000 
    6    -346.8157562924      1.23e-05     00000 
    7    -346.8157594970      4.03e-06     00000 
    8    -346.8157599480      1.27e-06     00000 
    9    -346.8157600140      5.78e-07     00000 
   10    -346.8157600272      1.60e-07     00000 
   11    -346.8157600302      6.64e-08     00000 
   12    -346.8157600306      3.53e-08     00000 
   13    -346.8157600307      8.66e-09     00000 Convergence criterion met
Timing for Total SCF: 2128.00s (wall), 4135.86s (cpu)

************** Final PCM Free Energy Summary **************
 G_electrostatic  =      -0.00559080 hartree =      -3.50827850 kcal/mol
 G_cavitation     =       0.00000000 hartree =       0.00000000 kcal/mol
 G_dispersion     =       0.00000000 hartree =       0.00000000 kcal/mol
 G_repulsion      =       0.00000000 hartree =       0.00000000 kcal/mol
 --------------------------------------------------
 Non-electrostatic Free Energy =       0.00000000 hartree =       0.00000000 kcal/mol
 Total                         =      -0.00559080 hartree =      -3.50827850 kcal/mol
 --------------------------------------------------
 SCF Energy (H0 + V/2)                       =    -346.81576003 
 Solute Internal Energy (H0)                 =    -346.81016923 
 Total Free Energy (H0 + V/2 + non-elec)     =    -346.81576003 hartree
                                             = -217630.17411130 kcal/mol
***********************************************************

E_pcm = -0.0055907977
Multipole orders to be included
        2
        3
computing dipole RHS
computing quadrupole RHS
total number of RHS in solve_reponses: 8
RHS batch sizes
        8
Beginning Block Conjugate Gradient Iterations. Batch Number: 0
computing hessian-vector products by finite difference
              1      5.93e-01     00000 Conjugate Gradient Iteration
computing hessian-vector products by finite difference
              2      1.94e-01     00000 Conjugate Gradient Iteration
computing hessian-vector products by finite difference
              3      5.01e-02     00000 Conjugate Gradient Iteration
computing hessian-vector products by finite difference
              4      1.52e-02     00000 Conjugate Gradient Iteration
computing hessian-vector products by finite difference
              5      4.13e-03     00000 Conjugate Gradient Iteration
computing hessian-vector products by finite difference
              6      1.31e-03     00000 Conjugate Gradient Iteration
computing hessian-vector products by finite difference
              7      3.25e-04     00000 Conjugate Gradient Iteration
computing hessian-vector products by finite difference
              8      6.09e-05     00000 Conjugate Gradient Iteration
computing hessian-vector products by finite difference
              9      1.17e-05     00000 Conjugate Gradient Iteration
computing hessian-vector products by finite difference
             10      1.64e-06     00000 Conjugate Gradient Iteration
computing hessian-vector products by finite difference
             11      2.42e-07     00000 Conjugate Gradient Iteration
computing hessian-vector products by finite difference
             12      3.89e-08     00000 Conjugate Gradient Iteration
computing hessian-vector products by finite difference
             13      8.53e-09     00000 CG Converged
batch 0 complete
Done Calculating Responses
TESTING ORTHOGONALIZATION OF MULTIPOLE BASIS
Multipole virts passed orthogonality test
Virts Per Order
           87
          145
 
 --------------------------------------------------------------
 
                    Orbital Energies (a.u.)
 --------------------------------------------------------------
 
 Alpha MOs
 -- Occupied --
-19.2439 -10.3333 -10.2751 -10.2743 -10.2720 -10.2708 -10.2707 -10.2601
 -1.1952  -0.9982  -0.9039  -0.8853  -0.8112  -0.7504  -0.7153  -0.6673
 -0.6046  -0.5825  -0.5522  -0.5421  -0.5356  -0.5205  -0.5102  -0.4802
 -0.4555  -0.4439  -0.4416  -0.3531  -0.3136
 -- Virtual --
  0.0577   0.0589   0.0683   0.0799   0.0829   0.0943   0.1082   0.1096
  0.1144   0.1311   0.1434   0.1494   0.1560   0.1698   0.1785   0.1910
  0.1982   0.2029   0.2166   0.2284   0.2299   0.2403   0.2469   0.2527
  0.2618   0.2663   0.2685   0.2751   0.2820   0.2935   0.2963   0.3022
  0.3052   0.3093   0.3148   0.3227   0.3338   0.3398   0.3453   0.3508
  0.3555   0.3560   0.3645   0.3719   0.3737   0.3786   0.3816   0.3918
  0.3935   0.3976   0.3983   0.4070   0.4146   0.4220   0.4261   0.4320
  0.4356   0.4567   0.4586   0.4606   0.4715   0.4760   0.4827   0.4858
  0.4892   0.4943   0.4975   0.5032   0.5106   0.5145   0.5269   0.5359
  0.5423   0.5473   0.5497   0.5527   0.5604   0.5699   0.5765   0.5894
  0.6014   0.6100   0.6157   0.6283   0.6427   0.6569   0.6605   0.6678
  0.6788   0.6806   0.6931   0.6943   0.7006   0.7075   0.7144   0.7290
  0.7316   0.7393   0.7436   0.7491   0.7581   0.7743   0.7821   0.7850
  0.7859   0.7903   0.7937   0.8013   0.8038   0.8124   0.8241   0.8399
  0.8449   0.8524   0.8574   0.8599   0.8621   0.8728   0.8820   0.8906
  0.9008   0.9190   0.9310   0.9458   0.9571   0.9858   1.0033   1.0066
  1.0138   1.0409   1.0444   1.0520   1.0530   1.0674   1.0712   1.0882
  1.1010   1.1216   1.1358   1.1641   1.2054   1.2328   1.2724   1.3008
  1.3146   1.3163   1.3276   1.3573   1.3640   1.3826   1.4024   1.4348
  1.4533   1.4688   1.4782   1.4790   1.5312   1.5682   1.6057   1.6209
  1.6409   1.6497   1.6744   1.6827   1.7019   1.7215   1.7723   1.7981
  1.8209   1.8259   1.8352   1.8567   1.8621   1.8764   1.9154   1.9259
  1.9343   1.9614   1.9827   1.9889   1.9973   2.0278   2.0380   2.0505
  2.0584   2.0743   2.0862   2.1161   2.1183   2.1520   2.1985   2.2094
  2.2319   2.2437   2.2606   2.2843   2.3075   2.3225   2.3421   2.3713
  2.4035   2.4079   2.4383   2.4606   2.4811   2.4935   2.5131   2.5649
  2.5789   2.6127   2.6222   2.6478   2.6640   2.6721   2.6920   2.7461
  2.7607   2.7635   2.7728   2.8039   2.8237   2.8355   2.8649   2.8741
  2.9092   2.9220   2.9434   2.9482   2.9658   2.9748   2.9874   3.0050
  3.0217   3.0377   3.0647   3.0921   3.1079   3.1350   3.1512   3.1678
  3.1900   3.2053   3.2121   3.2165   3.2393   3.2585   3.2896   3.2938
  3.3219   3.3606   3.3849   3.3893   3.4049   3.4178   3.4418   3.4524
  3.4563   3.4748   3.4939   3.5152   3.5220   3.5306   3.5366   3.5446
  3.5558   3.5692   3.5788   3.5958   3.6044   3.6318   3.6457   3.6782
  3.6983   3.7092   3.7422   3.7580   3.7987   3.8206   3.8535   3.9271
  3.9415   3.9628   3.9752   4.0043   4.0471   4.0906   4.1527   4.1727
  4.2522   4.2752   4.2996   4.3044   4.3179   4.3461   4.3544   4.3753
  4.3890   4.4083   4.4353   4.4744   4.5025   4.5595   4.6137   4.6285
  4.7480   4.7822   4.8006   4.8119   4.8471   4.9277   5.0297   5.0682
  5.0930   5.1343   5.1689   5.3152   5.3555   5.3985   5.4561   5.5432
  5.6153   5.6558   5.7087   5.7678   5.9490   6.2129   6.4942   6.5989
  6.6293   6.8737   7.0227   7.3037   7.4574  22.6744  22.6956  22.9563
 22.9961  23.0526  23.2148  23.5387  44.4208
 --------------------------------------------------------------
 
          Ground-State Mulliken Net Atomic Charges

     Atom                 Charge (a.u.)
  ----------------------------------------
      1 C                    -1.033184
      2 C                     0.862810
      3 C                    -0.322403
      4 C                    -0.783769
      5 C                    -0.660275
      6 C                    -0.421439
      7 C                     0.568736
      8 O                    -0.489421
      9 H                     0.270468
     10 H                     0.289671
     11 H                     0.333590
     12 H                     0.337975
     13 H                     0.295400
     14 H                     0.265570
     15 H                     0.221897
     16 H                     0.264374
  ----------------------------------------
  Sum of atomic charges =     0.000000

 -----------------------------------------------------------------
                    Cartesian Multipole Moments
 -----------------------------------------------------------------
    Charge (ESU x 10^10)
                -0.0000
    Dipole Moment (Debye)
         X      -0.9629      Y      -1.5093      Z       0.4220
       Tot       1.8394
    Quadrupole Moments (Debye-Ang)
        XX     -51.0880     XY       3.4283     YY     -41.9585
        XZ      -2.3924     YZ      -3.9569     ZZ     -38.3812
    Octopole Moments (Debye-Ang^2)
       XXX     -51.1699    XXY     112.8620    XYY     -28.4866
       YYY     292.7315    XXZ     -11.9116    XYZ       0.7767
       YYZ      -1.7018    XZZ     -16.9944    YZZ      81.5264
       ZZZ       8.8114
    Hexadecapole Moments (Debye-Ang^3)
      XXXX    -175.0121   XXXY      29.2351   XXYY    -352.1150
      XYYY      72.4325   YYYY   -1735.8868   XXXZ     -50.8415
      XXYZ     -28.3546   XYYZ     -20.9461   YYYZ     -95.9230
      XXZZ    -163.0104   XYZZ       3.6979   YYZZ    -390.1911
      XZZZ     -55.4350   YZZZ    -161.8556   ZZZZ    -595.0713
 -----------------------------------------------------------------
Archival summary:
1\1\nid00534\SP\ProcedureUnspecified\BasisUnspecified\178\meili\MonSep2703:53:342021MonSep2703:53:342021\0\\#,ProcedureUnspecified,BasisUnspecified,\\0,1\C\O,1,1.36263\H,2,0.963419,1,111.644\C,1,1.38118,2,120.953,3,179.324,0\H,4,1.07657,1,119.746,2,0.416045,0\C,1,1.38936,2,118.533,3,0.630163,0\H,6,1.07896,1,119.93,2,-0.117779,0\C,6,1.38722,1,119.747,2,178.202,0\H,8,1.07851,6,118.803,1,-177.067,0\C,8,1.38469,6,120.568,1,2.08919,0\C,10,1.38887,8,119.268,6,-2.6807,0\H,11,1.08099,10,119.892,8,-177.327,0\C,10,1.50167,8,119.558,6,-178.154,0\H,13,1.08476,10,107.429,8,69.8821,0\H,13,1.09098,10,109.83,8,-173.285,0\H,13,1.1,10,115.381,8,-49.1597,0\\\@

 Total job time:  37512.31s(wall), 74262.85s(cpu) 
 Mon Sep 27 03:53:35 2021

        *************************************************************
        *                                                           *
        *  Thank you very much for using Q-Chem.  Have a nice day.  *
        *                                                           *
        *************************************************************


Done Job For Fragment 1
calling putenv with: QCSCRATCH=/global/cscratch1/sd/meili 
calling putenv with: QCLOCALSCR=/tmp 
calling putenv with: QCTHREADS=32 
Doing General SCFMI
 Exchange:     0.1670 Hartree-Fock + 1.0000 wB97X-V + LR-HF
 Correlation:  1.0000 wB97X-V
 Using Euler-Maclaurin-Lebedev (99,590) quadrature formula
 Nonlocal Correlation:  VV10 with C = 0.0100 and b = 6.00 and scale = 1.00000
 Grid used for NLC:  SG-1 standard quadrature
performing fock build before subrot guess so that all methods have access
Printing subrot_rss_gen Method Specification:
Occupied Subspace Method is 0
Virtual Subspace Method is 0
Energy of the unrelaxed supersystem initial determinant -612.369802082346
performing fock build before subrot guess so that all methods have access
Printing subrot_rss_gen Method Specification:
Occupied Subspace Method is 0
Virtual Subspace Method is 0
Energy of the unrelaxed supersystem initial determinant w/ solvent -612.384029559277
write pseudocanon occs and virts to disk
write pseudocanon orbital energies to disk
Tolerance of ortho_decomp_scf: 1.00e-06
GDM subspace size: 20
Beginning the Orthogonal Decomposition of the Initial Supersystem Wavefunction
    1    -612.3476836819      2.22e-02     ortho_decomp Preconditoned Steepest Descent
    2    -612.3497301504      5.82e-04     ortho_decomp BFGS Step
    3    -612.3497372350      4.19e-05     ortho_decomp BFGS Step
    4    -612.3497372455      1.68e-06     ortho_decomp BFGS Step
    5    -612.3497372455      6.01e-08     ortho_decomp 00000 Convergence criterion met
 Hartree-Fock
 Hartree-Fock
 Hartree-Fock
Doing General SCFMI
 Exchange:     0.1670 Hartree-Fock + 1.0000 wB97X-V + LR-HF
 Correlation:  1.0000 wB97X-V
 Using Euler-Maclaurin-Lebedev (99,590) quadrature formula
 Nonlocal Correlation:  VV10 with C = 0.0100 and b = 6.00 and scale = 1.00000
 Grid used for NLC:  SG-1 standard quadrature
performing fock build at end of subrot_r(subrot) constructor so that all methods have access
<S^2> of initial wavefunction before polarization iterations 0.0000000000
Beginning iterations for the determination of the polarized wavefunction
Energy prior to optimization (guess energy) = -612.384029559278
Begin Timing: Total SCF Calculation
begin iterations for algorithm: DIIS         
the SCF tolerance is set to 1.00e-08
    1    -612.3840295593      4.50e-05     00000 
    2    -612.3842582402      1.91e-05     00000 
    3    -612.3842826040      1.09e-05     00000 
    4    -612.3842914890      3.39e-06     00000 
    5    -612.3842925472      1.75e-06     00000 
    6    -612.3842928436      8.80e-07     00000 
    7    -612.3842928988      3.87e-07     00000 
    8    -612.3842929068      1.75e-07     00000 
    9    -612.3842929081      6.74e-08     00000 
   10    -612.3842929083      3.44e-08     00000 
   11    -612.3842929084      1.30e-08     00000 
   12    -612.3842929084      5.67e-09     00000 Convergence criterion met
write pseudocanon occs and virts to disk
write pseudocanon orbital energies to disk
Timing for Total SCF: 9220.00s (wall), 18359.10s (cpu)
<S^2> of polarized wavefunction after polarization iterations 0.0000000000
relaxing scfmi constraint to allow all rotations in the entire AO span
Doing General SCFMI
 Exchange:     0.1670 Hartree-Fock + 1.0000 wB97X-V + LR-HF
 Correlation:  1.0000 wB97X-V
 Using Euler-Maclaurin-Lebedev (99,590) quadrature formula
 Nonlocal Correlation:  VV10 with C = 0.0100 and b = 6.00 and scale = 1.00000
 Grid used for NLC:  SG-1 standard quadrature
performing fock build at end of subrot_r(subrot) constructor so that all methods have access
<S^2> of polarized wavefunction before ct-allowed iterations 0.0000000000
Beginning iterations for the determination of the CT-Allowed wavefunction
Energy prior to optimization (guess energy) = -612.384292908442
Begin Timing: Total SCF Calculation
begin iterations for algorithm: DIIS         
the SCF tolerance is set to 1.00e-08
    1    -612.3842929084      5.79e-05     00000 
    2    -612.3850363067      6.28e-06     00000 
    3    -612.3850647685      1.21e-06     00000 
    4    -612.3850660291      6.95e-07     00000 
    5    -612.3850661115      1.58e-07     00000 
    6    -612.3850661211      3.67e-08     00000 
    7    -612.3850661214      1.44e-08     00000 
    8    -612.3850661215      5.05e-09     00000 Convergence criterion met
write pseudocanon occs and virts to disk
write pseudocanon orbital energies to disk
Timing for Total SCF: 5922.00s (wall), 11725.95s (cpu)
<S^2> of ct_allowed wavefunction after ct-allowed iterations 0.0000000000

================================
        Results of EDA2         
================================
Basic EDA Quantities
--------------------
Fragment Energies (Ha):
1 -265.5652507297
2 -346.8157600307
--------------------
  E_prp (kJ/mol) = -0.0000
  E_sol (kJ/mol) = 5.8276
  E_frz (kJ/mol) = -13.7535
  E_pol (kJ/mol) = -0.6914
  E_vct (kJ/mol) = -2.0301
  E_int (kJ/mol) = -10.6475
--------------------


Initial Wavefunction Decomposition
--------------------
  --------------------
  Orthogonal Fragment Subspace Decomposition:
  --------------------
     E_elec   (ELEC)   (kJ/mol) = -27.3776
     E_pauli  (PAULI)  (kJ/mol) = 30.2224
     E_disp   (DISP)   (kJ/mol) = -16.5984
     --------------------
     Terms summing to E_pauli:
     --------------------
        E_kep_pauli       (kJ/mol) = 38.9273
        E_disp_free_pauli (kJ/mol) = -8.7049
  --------------------
  Classical Frozen Decomposition:
  --------------------
     E_cls_elec  (CLS ELEC)  (kJ/mol) = -14.2353
     E_cls_pauli (CLS PAULI) (kJ/mol) = 0.4817
    [E_mod_pauli (MOD PAULI) (kJ/mol) = 17.0801 (CLS PAULI - DISP from orthogonal decomposition) ]
  --------------------
--------------------

Simplified EDA Summary (kJ/mol)
--------------------
 PREPARATION     -0.0000
 SOLVATION       5.8276
 FROZEN          2.8449      (does not include dispersion)
[PAULI           30.2224]     (if this is negligible, then frozen describes electrostatics)
 DISPERSION      -16.5984
 POLARIZATION    -0.6914
 CHARGE TRANSFER -2.0301
 TOTAL           -10.6475     (PRP + SOL + FRZ + DISP + POL + CT)
--------------------
 
 --------------------------------------------------------------
 
                    Orbital Energies (a.u.)
 --------------------------------------------------------------
 
 Alpha MOs
 -- Occupied --
-19.2468 -14.4666 -14.3890 -10.3339 -10.3232 -10.2892 -10.2870 -10.2753
-10.2747 -10.2723 -10.2714 -10.2712 -10.2646 -10.2602  -1.1977  -1.1555
 -0.9987  -0.9985  -0.9045  -0.8996  -0.8857  -0.8279  -0.8117  -0.7513
 -0.7306  -0.7162  -0.6874  -0.6707  -0.6680  -0.6057  -0.5845  -0.5664
 -0.5599  -0.5524  -0.5441  -0.5405  -0.5355  -0.5215  -0.5139  -0.5116
 -0.5020  -0.4817  -0.4810  -0.4559  -0.4446  -0.4427  -0.3807  -0.3761
 -0.3540  -0.3243  -0.3133
 -- Virtual --
  0.0534   0.0581   0.0636   0.0700   0.0757   0.0860   0.0904   0.0930
  0.0961   0.1023   0.1082   0.1174   0.1187   0.1295   0.1340   0.1351
  0.1405   0.1443   0.1557   0.1573   0.1610   0.1657   0.1714   0.1741
  0.1874   0.1882   0.1958   0.2000   0.2025   0.2081   0.2144   0.2158
  0.2258   0.2282   0.2354   0.2377   0.2403   0.2447   0.2500   0.2548
  0.2556   0.2645   0.2664   0.2722   0.2758   0.2801   0.2819   0.2910
  0.2946   0.2986   0.3005   0.3020   0.3042   0.3102   0.3132   0.3160
  0.3171   0.3242   0.3257   0.3311   0.3340   0.3360   0.3382   0.3431
  0.3504   0.3516   0.3557   0.3589   0.3610   0.3614   0.3643   0.3669
  0.3706   0.3730   0.3741   0.3784   0.3804   0.3864   0.3905   0.3968
  0.4018   0.4037   0.4074   0.4121   0.4156   0.4209   0.4223   0.4246
  0.4286   0.4319   0.4336   0.4380   0.4400   0.4427   0.4502   0.4555
  0.4560   0.4606   0.4640   0.4679   0.4723   0.4761   0.4828   0.4856
  0.4875   0.4904   0.4922   0.4947   0.4961   0.5010   0.5031   0.5094
  0.5113   0.5165   0.5216   0.5267   0.5327   0.5365   0.5387   0.5456
  0.5510   0.5548   0.5569   0.5609   0.5634   0.5679   0.5733   0.5734
  0.5807   0.5895   0.5925   0.5974   0.6027   0.6061   0.6168   0.6193
  0.6200   0.6270   0.6299   0.6310   0.6379   0.6437   0.6500   0.6582
  0.6624   0.6707   0.6732   0.6771   0.6822   0.6846   0.6893   0.6936
  0.6956   0.7012   0.7070   0.7115   0.7161   0.7186   0.7274   0.7300
  0.7397   0.7415   0.7465   0.7474   0.7533   0.7570   0.7591   0.7625
  0.7641   0.7667   0.7714   0.7819   0.7833   0.7865   0.7893   0.7973
  0.8032   0.8063   0.8091   0.8139   0.8174   0.8195   0.8248   0.8276
  0.8328   0.8351   0.8404   0.8440   0.8512   0.8536   0.8635   0.8651
  0.8671   0.8725   0.8783   0.8798   0.8852   0.8923   0.9000   0.9014
  0.9037   0.9208   0.9276   0.9309   0.9419   0.9460   0.9515   0.9550
  0.9597   0.9651   0.9755   0.9830   0.9972   1.0058   1.0113   1.0177
  1.0308   1.0329   1.0369   1.0480   1.0530   1.0701   1.0721   1.0797
  1.0849   1.0918   1.0964   1.1038   1.1121   1.1175   1.1208   1.1353
  1.1439   1.1493   1.1556   1.1636   1.1791   1.1858   1.2044   1.2103
  1.2275   1.2400   1.2457   1.2504   1.2630   1.2774   1.2959   1.3141
  1.3202   1.3299   1.3316   1.3487   1.3610   1.3735   1.3895   1.3970
  1.3998   1.4092   1.4296   1.4445   1.4463   1.4593   1.4681   1.4776
  1.4831   1.4929   1.4973   1.5054   1.5246   1.5502   1.5680   1.5802
  1.6113   1.6270   1.6294   1.6444   1.6541   1.6633   1.6748   1.6912
  1.7089   1.7134   1.7262   1.7361   1.7513   1.7572   1.7726   1.7825
  1.8145   1.8208   1.8299   1.8480   1.8645   1.8769   1.8860   1.8928
  1.8999   1.9089   1.9251   1.9303   1.9370   1.9413   1.9516   1.9582
  1.9663   1.9776   1.9818   1.9842   1.9963   1.9981   2.0042   2.0263
  2.0304   2.0366   2.0454   2.0523   2.0533   2.0644   2.0878   2.0912
  2.1001   2.1114   2.1165   2.1264   2.1384   2.1440   2.1615   2.1686
  2.1998   2.2160   2.2353   2.2458   2.2535   2.2566   2.2690   2.2835
  2.2940   2.3074   2.3192   2.3272   2.3449   2.3487   2.3737   2.3829
  2.3890   2.4122   2.4197   2.4272   2.4306   2.4550   2.4671   2.4710
  2.4800   2.4896   2.5182   2.5381   2.5432   2.5623   2.5743   2.5983
  2.5998   2.6148   2.6190   2.6391   2.6420   2.6477   2.6560   2.6667
  2.6823   2.6859   2.7064   2.7196   2.7403   2.7486   2.7546   2.7694
  2.7730   2.7846   2.7955   2.8045   2.8104   2.8157   2.8374   2.8503
  2.8649   2.8762   2.8785   2.8864   2.9107   2.9174   2.9296   2.9474
  2.9609   2.9740   2.9863   2.9979   3.0090   3.0133   3.0317   3.0357
  3.0385   3.0571   3.0729   3.0759   3.0937   3.0996   3.1108   3.1245
  3.1320   3.1426   3.1476   3.1639   3.1769   3.1946   3.2001   3.2090
  3.2135   3.2166   3.2252   3.2307   3.2402   3.2475   3.2612   3.2720
  3.2898   3.2981   3.3085   3.3137   3.3233   3.3304   3.3582   3.3671
  3.3799   3.3901   3.3951   3.4067   3.4122   3.4176   3.4266   3.4344
  3.4449   3.4452   3.4506   3.4587   3.4715   3.4869   3.4903   3.5031
  3.5087   3.5228   3.5292   3.5367   3.5403   3.5524   3.5604   3.5681
  3.5737   3.5781   3.5809   3.5921   3.6072   3.6101   3.6291   3.6296
  3.6400   3.6514   3.6679   3.6822   3.6940   3.7079   3.7163   3.7295
  3.7346   3.7505   3.7663   3.7720   3.8058   3.8107   3.8341   3.8397
  3.8531   3.8636   3.8844   3.9338   3.9471   3.9531   3.9725   3.9795
  3.9928   4.0145   4.0572   4.0609   4.0963   4.1161   4.1199   4.1475
  4.1619   4.1798   4.2422   4.2658   4.2927   4.2989   4.3097   4.3190
  4.3241   4.3596   4.3708   4.3805   4.3990   4.4185   4.4280   4.4438
  4.4584   4.4812   4.5064   4.5198   4.5339   4.5688   4.5762   4.6134
  4.6193   4.6403   4.6969   4.7594   4.7739   4.7857   4.8005   4.8062
  4.8191   4.8514   4.8779   4.9060   4.9417   4.9666   4.9860   5.0139
  5.0391   5.0531   5.0671   5.0763   5.0845   5.1071   5.1384   5.1795
  5.1991   5.2231   5.2564   5.3194   5.3253   5.3595   5.3829   5.4070
  5.4582   5.4619   5.5139   5.5428   5.5655   5.6027   5.6125   5.6202
  5.6682   5.6842   5.7104   5.7361   5.7564   5.7927   5.8167   5.8990
  5.9561   6.0621   6.2204   6.2541   6.2781   6.4918   6.6087   6.6830
  6.8906   7.0404   7.3170   7.4721  22.6371  22.6990  22.7098  22.9119
 22.9929  23.0264  23.0700  23.1763  23.2329  23.3895  23.5509  32.7119
 32.8167  44.4707
 --------------------------------------------------------------
 
          Ground-State Mulliken Net Atomic Charges

     Atom                 Charge (a.u.)
  ----------------------------------------
      1 C                    -0.801600
      2 C                    -0.305527
      3 C                     0.669877
      4 C                    -0.552219
      5 N                    -0.461044
      6 N                     0.158003
      7 H                     0.258348
      8 H                     0.158995
      9 H                     0.244383
     10 H                     0.213331
     11 H                     0.204369
     12 H                     0.213170
     13 C                    -1.138085
     14 C                     0.592465
     15 C                    -0.404637
     16 C                    -0.396748
     17 C                    -0.476660
     18 C                    -0.562071
     19 C                     0.505581
     20 O                    -0.479459
     21 H                     0.296355
     22 H                     0.283363
     23 H                     0.318824
     24 H                     0.363285
     25 H                     0.323080
     26 H                     0.275740
     27 H                     0.224011
     28 H                     0.274870
  ----------------------------------------
  Sum of atomic charges =     0.000000

 -----------------------------------------------------------------
                    Cartesian Multipole Moments
 -----------------------------------------------------------------
    Charge (ESU x 10^10)
                -0.0000
    Dipole Moment (Debye)
         X       2.4546      Y      -1.1411      Z       3.3888
       Tot       4.3371
    Quadrupole Moments (Debye-Ang)
        XX     -91.4290     XY      12.5977     YY     -73.9648
        XZ      -3.0076     YZ      -1.1442     ZZ     -69.4384
    Octopole Moments (Debye-Ang^2)
       XXX      13.4704    XXY       1.8388    XYY      13.2744
       YYY       2.8745    XXZ      11.0915    XYZ       2.9789
       YYZ       9.6336    XZZ       3.2688    YZZ     -11.0033
       ZZZ      58.8311
    Hexadecapole Moments (Debye-Ang^3)
      XXXX    -401.8659   XXXY     187.4798   XXYY    -718.4695
      XYYY     272.4618   YYYY   -3616.8816   XXXZ    -109.1882
      XXYZ      53.8470   XYYZ     -26.5259   YYYZ      74.7349
      XXZZ    -258.8570   XYZZ      52.7116   YYZZ    -753.0566
      XZZZ     -96.5364   YZZZ      54.3141   ZZZZ    -946.0350
 -----------------------------------------------------------------
Archival summary:
1\1\nid00534\SP\ProcedureUnspecified\BasisUnspecified\121114\meili\MonSep2711:29:322021MonSep2711:29:322021\0\\#,ProcedureUnspecified,BasisUnspecified,\\0,1\O\H,1,0.963419\C,1,1.36263,2,111.644\C,3,1.38118,1,120.953,2,179.324,0\H,4,1.07657,3,119.746,1,0.416045,0\C,3,1.38936,1,118.533,2,0.630163,0\H,6,1.07896,3,119.93,1,-0.117779,0\C,6,1.38722,3,119.747,1,178.202,0\H,8,1.07851,6,118.803,3,-177.067,0\C,8,1.38469,6,120.568,3,2.08919,0\C,10,1.38887,8,119.268,6,-2.6807,0\H,11,1.08099,10,119.892,8,-177.327,0\C,10,1.50167,8,119.558,6,-178.154,0\H,13,1.08476,10,107.429,8,69.8821,0\H,13,1.09098,10,109.83,8,-173.285,0\H,13,1.1,10,115.381,8,-49.1597,0\N,5,2.80241,4,123.28,3,-58.9929,0\H,17,1.0142,5,81.9377,4,96.3769,0\C,17,1.33402,5,83.154,4,-30.929,0\H,19,1.08399,17,125.122,5,77.2043,0\N,19,1.33505,17,109.527,5,-102.384,0\C,17,1.37166,5,103.27,4,-138,0\H,22,1.07891,17,126.494,5,-93.9129,0\C,22,1.36029,17,107.318,5,85.7376,0\C,24,1.49917,22,128.903,17,177.32,0\H,25,1.08812,24,107.695,22,-0.388407,0\H,25,1.09043,24,108.437,22,-116.296,0\H,25,1.10001,24,115.232,22,121.031,0\\\@

 Total job time:  81203.80s(wall), 54437.02s(cpu) 
 Mon Sep 27 11:29:33 2021

        *************************************************************
        *                                                           *
        *  Thank you very much for using Q-Chem.  Have a nice day.  *
        *                                                           *
        *************************************************************


