
Running Job 1 of 1 SSI-102HIE-272GLN-1_SMD_TZVPD.in
qchem SSI-102HIE-272GLN-1_SMD_TZVPD.in_52189.0 /tmp/qchem52189/ 0
/global/common/cori/software/qchem/5.2/exe/qcprog.exe_s SSI-102HIE-272GLN-1_SMD_TZVPD.in_52189.0 /tmp/qchem52189/
                  Welcome to Q-Chem
     A Quantum Leap Into The Future Of Chemistry


 Q-Chem 5.2, Q-Chem, Inc., Pleasanton, CA (2019)

 License issued to: National Energy Research Scientific Computing Center

 Yihan Shao,  Zhengting Gan,  E. Epifanovsky,  A. T. B. Gilbert,  M. Wormit,  
 J. Kussmann,  A. W. Lange,  A. Behn,  Jia Deng,  Xintian Feng,  D. Ghosh,  
 M. Goldey,  P. R. Horn,  L. D. Jacobson,  I. Kaliman,  T. Kus,  A. Landau,  
 Jie Liu,  E. I. Proynov,  R. M. Richard,  R. P. Steele,  E. J. Sundstrom,  
 H. L. Woodcock III,  P. M. Zimmerman,  D. Zuev,  B. Albrecht,  E. Alguire,  
 S. A. Baeppler,  D. Barton,  Z. Benda,  Y. A. Bernard,  E. J. Berquist,  
 K. B. Bravaya,  H. Burton,  D. Casanova,  Chun-Min Chang,  Yunqing Chen,  
 A. Chien,  K. D. Closser,  M. P. Coons,  S. Coriani,  S. Dasgupta,  
 A. L. Dempwolff,  M. Diedenhofen,  Hainam Do,  R. G. Edgar,  Po-Tung Fang,  
 S. Faraji,  S. Fatehi,  Qingguo Feng,  K. D. Fenk,  J. Fosso-Tande,  
 J. Gayvert,  Qinghui Ge,  A. Ghysels,  G. Gidofalvi,  J. Gomes,  
 J. Gonthier,  A. Gunina,  D. Hait,  M. W. D. Hanson-Heine,  
 P. H. P. Harbach,  A. W. Hauser,  M. F. Herbst,  J. E. Herr,  
 E. G. Hohenstein,  Z. C. Holden,  Kerwin Hui,  B. C. Huynh,  T.-C. Jagau,  
 Hyunjun Ji,  B. Kaduk,  K. Khistyaev,  Jaehoon Kim,  P. Klunzinger,  K. Koh,  
 D. Kosenkov,  L. Koulias,  T. Kowalczyk,  C. M. Krauter,  A. Kunitsa,  
 Ka Un Lao,  A. Laurent,  K. V. Lawler,  Joonho Lee,  D. Lefrancois,  
 S. Lehtola,  D. S. Levine,  Yi-Pei Li,  You-Sheng Lin,  Fenglai Liu,  
 E. Livshits,  A. Luenser,  P. Manohar,  E. Mansoor,  S. F. Manzer,  
 Shan-Ping Mao,  Yuezhi Mao,  N. Mardirossian,  A. V. Marenich,  
 T. Markovich,  L. A. Martinez-Martinez,  S. A. Maurer,  N. J. Mayhall,  
 S. C. McKenzie,  J.-M. Mewes,  P. Morgante,  A. F. Morrison,  
 J. W. Mullinax,  K. Nanda,  T. S. Nguyen-Beck,  R. Olivares-Amaya,  
 J. A. Parkhill,  Zheng Pei,  T. M. Perrine,  F. Plasser,  P. Pokhilko,  
 S. Prager,  A. Prociuk,  E. Ramos,  D. R. Rehn,  F. Rob,  M. Scheurer,  
 M. Schneider,  N. Sergueev,  S. M. Sharada,  S. Sharma,  D. W. Small,  
 T. Stauch,  T. Stein,  Yu-Chuan Su,  A. J. W. Thom,  A. Tkatchenko,  
 T. Tsuchimochi,  N. M. Tubman,  L. Vogt,  M. L. Vidal,  O. Vydrov,  
 M. A. Watson,  J. Wenzel,  M. de Wergifosse,  T. A. Wesolowski,  A. White,  
 J. Witte,  A. Yamada,  Jun Yang,  K. Yao,  S. Yeganeh,  S. R. Yost,  
 Zhi-Qiang You,  A. Zech,  Igor Ying Zhang,  Xing Zhang,  Yan Zhao,  
 Ying Zhu,  B. R. Brooks,  G. K. L. Chan,  C. J. Cramer,  M. S. Gordon,  
 W. J. Hehre,  A. Klamt,  M. W. Schmidt,  C. D. Sherrill,  D. G. Truhlar,  
 A. Aspuru-Guzik,  R. Baer,  A. T. Bell,  N. A. Besley,  Jeng-Da Chai,  
 A. E. DePrince, III,  R. A. DiStasio Jr.,  A. Dreuw,  B. D. Dunietz,  
 T. R. Furlani,  Chao-Ping Hsu,  Yousung Jung,  Jing Kong,  D. S. Lambrecht,  
 WanZhen Liang,  C. Ochsenfeld,  V. A. Rassolov,  L. V. Slipchenko,  
 J. E. Subotnik,  T. Van Voorhis,  J. M. Herbert,  A. I. Krylov,  
 P. M. W. Gill,  M. Head-Gordon

 Contributors to earlier versions of Q-Chem not listed above: 
 R. D. Adamson,  B. Austin,  J. Baker,  G. J. O. Beran,  K. Brandhorst,  
 S. T. Brown,  E. F. C. Byrd,  A. K. Chakraborty,  C.-L. Cheng,  
 Siu Hung Chien,  D. M. Chipman,  D. L. Crittenden,  H. Dachsel,  
 R. J. Doerksen,  A. D. Dutoi,  L. Fusti-Molnar,  W. A. Goddard III,  
 A. Golubeva-Zadorozhnaya,  S. R. Gwaltney,  G. Hawkins,  A. Heyden,  
 S. Hirata,  G. Kedziora,  F. J. Keil,  C. Kelley,  Jihan Kim,  R. A. King,  
 R. Z. Khaliullin,  P. P. Korambath,  W. Kurlancheek,  A. M. Lee,  M. S. Lee,  
 S. V. Levchenko,  Ching Yeh Lin,  D. Liotard,  R. C. Lochan,  I. Lotan,  
 P. E. Maslen,  N. Nair,  D. P. O'Neill,  D. Neuhauser,  E. Neuscamman,  
 C. M. Oana,  R. Olson,  B. Peters,  R. Peverati,  P. A. Pieniazek,  
 Y. M. Rhee,  J. Ritchie,  M. A. Rohrdanz,  E. Rosta,  N. J. Russ,  
 H. F. Schaefer III,  N. E. Schultz,  N. Shenvi,  A. C. Simmonett,  A. Sodt,  
 D. Stuck,  K. S. Thanthiriwatte,  V. Vanovschi,  Tao Wang,  A. Warshel,  
 C. F. Williams,  Q. Wu,  X. Xu,  W. Zhang

 Please cite Q-Chem as follows:
 Y. Shao et al., Mol. Phys. 113, 184-215 (2015)
 DOI: 10.1080/00268976.2014.952696

 Q-Chem 5.2.0 for Intel X86 EM64T Linux

 Parts of Q-Chem use Armadillo 8.300.2 (Tropical Shenanigans).
 http://arma.sourceforge.net/

 Q-Chem begins on Sun Sep 26 13:00:23 2021  

Host: cori01
0

     Scratch files written to /tmp/qchem52189//
 May1019 |scratch|qcdevops|jenkins|workspace|build_RNUM -1
Processing $rem in /global/common/cori/software/qchem/5.2/config/preferences:
	 MEM_TOTAL  96000 
NAlpha2: 76
NElect   76
Mult     1
Symmetry turned off for PCM/SM12/SMD calculation

 Q-Chem warning in module libgen/rem_setup.C, line 2803:

 Neither GIA nor STOLL is specified by user. Use STOLL as the default


Checking the input file for inconsistencies... 	...done.

--------------------------------------------------------------
User input:
--------------------------------------------------------------
$comment
SSI-102HIE-272GLN-1.pdb
$end

$molecule
0 1
--
0 1
C   -0.384518322799    2.038052887321   -1.927186607850
C    0.716481677201    1.389052887320   -1.139186607850
C    2.116481677201   -0.188947112679   -0.529186607850
C    1.433481677201    1.845052887321   -0.074186607850
N    1.168481677201    0.111052887321   -1.407186607850
N    2.298481677201    0.850052887320    0.281813392150
H    2.615481677201   -1.149947112679   -0.537186607850
H   -1.285518322799    1.994052887321   -1.317186607850
H   -0.531518322799    1.424052887320   -2.822186607850
H    2.964481677201    0.901052887321    1.044813392150
H    1.399481677201    2.784052887321    0.447813392150
H   -0.189048322799    3.074122887321   -2.240796607850
--
0 1
C   -2.916518322799   -1.874947112679    1.734813392150
C   -1.610518322799   -1.421947112679    1.114813392150
O   -0.529518322799   -1.720947112679    1.625813392150
N   -1.714518322799   -0.689947112679    0.013813392150
H   -0.875518322799   -0.360947112679   -0.447186607850
H   -2.627518322799   -0.467947112679   -0.360186607850
H   -3.679518322799   -1.890947112680    0.955813392150
H   -3.202518322799   -1.153947112679    2.500813392150
H   -2.852318322799   -2.877867112679    2.182063392150
$end

$rem
JOBTYPE			EDA
EDA2			1
method			wB97X-V
BASIS			def2-TZVPD
XC_GRID			000099000590
NL_GRID			1
UNRESTRICTED		FALSE
MAX_SCF_CYCLES		200
SYMMETRY		FALSE
SYM_IGNORE		TRUE
MEM_STATIC		2000
BASIS_LIN_DEP_THRESH 	6
THRESH 			14
SCF_CONVERGENCE 	8
SCF_PRINT_FRGM 		TRUE
SOLVENT_METHOD          SMD
$end

$SMX
SOLVENT			WATER
$END
--------------------------------------------------------------
 ----------------------------------------------------------------
             Standard Nuclear Orientation (Angstroms)
    I     Atom           X                Y                Z
 ----------------------------------------------------------------
    1      C      -0.3845183228     2.0380528873    -1.9271866078
    2      C       0.7164816772     1.3890528873    -1.1391866078
    3      C       2.1164816772    -0.1889471127    -0.5291866079
    4      C       1.4334816772     1.8450528873    -0.0741866079
    5      N       1.1684816772     0.1110528873    -1.4071866078
    6      N       2.2984816772     0.8500528873     0.2818133922
    7      H       2.6154816772    -1.1499471127    -0.5371866079
    8      H      -1.2855183228     1.9940528873    -1.3171866079
    9      H      -0.5315183228     1.4240528873    -2.8221866078
   10      H       2.9644816772     0.9010528873     1.0448133922
   11      H       1.3994816772     2.7840528873     0.4478133921
   12      H      -0.1890483228     3.0741228873    -2.2407966079
   13      C      -2.9165183228    -1.8749471127     1.7348133921
   14      C      -1.6105183228    -1.4219471127     1.1148133922
   15      O      -0.5295183228    -1.7209471127     1.6258133921
   16      N      -1.7145183228    -0.6899471127     0.0138133921
   17      H      -0.8755183228    -0.3609471127    -0.4471866078
   18      H      -2.6275183228    -0.4679471127    -0.3601866079
   19      H      -3.6795183228    -1.8909471127     0.9558133922
   20      H      -3.2025183228    -1.1539471127     2.5008133921
   21      H      -2.8523183228    -2.8778671127     2.1820633921
 ----------------------------------------------------------------
 Nuclear Repulsion Energy =         513.14947911 hartrees
 There are       38 alpha and       38 beta electrons
 Requested basis set is def2-TZVPD
 There are 186 shells and 472 basis functions

 Total QAlloc Memory Limit  96000 MB
 Mega-Array Size      1956 MB
 MEM_STATIC part      2000 MB
 
 Citation of the SMD model:
 Marenich, A.V.; Cramer, C.J.; Truhlar, D.G.
 J. Phys. Chem. B 2009, 113, 6378-6396.
 iSolventCode=           1
 Solvent: water                                                           
 
 vradii
            1           2           3           4           5           6
    1   1.8500000   1.8500000   1.8500000   1.8500000   1.8900000   1.8900000
            7           8           9          10          11          12
    1   1.2000000   1.2000000   1.2000000   1.2000000   1.2000000   1.2000000
           13          14          15          16          17          18
    1   1.8500000   1.8500000   1.5200000   1.8900000   1.2000000   1.2000000
           19          20          21
    1   1.2000000   1.2000000   1.2000000
 Changing PCM_VDW_RADII to SMD_RADIUS
 Discretize the solute cavity surface with Lebedev spheres
	Using 110 Lebedev grid points for each H atom
	Using 194 Lebedev grid points for other atoms
	Atomic van der Waals radii will be scaled by 1.20
 Remove points where switching function is < 1.0e-08
 Keep 1578 surface tesserae and discard 1572 interior tesserae
 Molecular Surface Area = 196.031 Angst**2
 A cutoff of  1.0D-14 yielded  15577 shell pairs
 There are    101465 function pairs (    128494 Cartesian)
 Smallest overlap matrix eigenvalue = 1.33E-06

 Scale SEOQF with 1.000000e-01/1.000000e-01/1.000000e-01

 Standard Electronic Orientation quadrupole field applied
 Nucleus-field energy     =     0.0000000070 hartrees

 -----------------------------------------------------------------------
  General SCF calculation program by
  Eric Jon Sundstrom, Paul Horn, Yuezhi Mao, Dmitri Zuev, Alec White,
  David Stuck, Shaama M.S., Shane Yost, Joonho Lee, David Small,
  Daniel Levine, Susi Lehtola, Hugh Burton, Evgeny Epifanovsky
 -----------------------------------------------------------------------
================================================================
                 ALMO-EDA with the EDA2 driver                  
================================================================
 The second-generation ALMO-EDA (for DFT):                      
 P. R. Horn, Y. Mao and M. Head-Gordon, PCCP, 18, 23067 (2016)  
 Decomposition of the frozen energy:                            
 P. R. Horn, Y. Mao and M. Head-Gordon, JCP, 144, 114107 (2016) 
 FERF model for polarization:                                   
 P. R. Horn and M. Head-Gordon, JCP, 143, 114111 (2015)         
Using eda2 option set 1
Option set summary: Frozen orbital wavefunction, initial wavefunction decomposition, and nDQ polarization.
--------------------------------
Printing EDA Options
--------------------------------
eda_child_super_basis      0
fragmo_guess_mode          0
child_mp                   1
child_mp_orders            232
cls_elec                   1
cls_disp                   0
scfmi_mode                 1
scfmi_occs                 0
scfmi_virts                0
frz_relax                  0
frz_relax_method           0
dc_pen_start               0
dc_pen_conv                0
dc_pen_increment           0
dc_pen_steps               0
dc_pen_thresh_factor       0
dc_pen_pre_newton_thresh   0
frz_ortho_decomp           1
frz_ortho_decomp_conv      6
frgm_method                2
scfmi_freeze_ss            0
separate_rehyb             0
plot_diff_den              0
eda_nocv                   0
eda_vct_relax              1
disp_free_x                0
disp_free_c                0
eda_bsse                   0
eda_pct_a                  0
eda_covp                   0
--------------------------------
Attempting to make child job directory: /tmp/qchem52189//Frg1/
Attempting to make child job directory: /tmp/qchem52189//Frg2/
Creating input file /tmp/qchem52189/Frg1.input
using default PutDataFrgm: nothing
calling putenv with: QCSCRATCH=/tmp/qchem52189/ 
calling putenv with: QCLOCALSCR=/tmp/qchem52189/ 
Spawning Job For Fragment 0
                  Welcome to Q-Chem
     A Quantum Leap Into The Future Of Chemistry


 Q-Chem 5.2, Q-Chem, Inc., Pleasanton, CA (2019)

 License issued to: National Energy Research Scientific Computing Center

 Yihan Shao,  Zhengting Gan,  E. Epifanovsky,  A. T. B. Gilbert,  M. Wormit,  
 J. Kussmann,  A. W. Lange,  A. Behn,  Jia Deng,  Xintian Feng,  D. Ghosh,  
 M. Goldey,  P. R. Horn,  L. D. Jacobson,  I. Kaliman,  T. Kus,  A. Landau,  
 Jie Liu,  E. I. Proynov,  R. M. Richard,  R. P. Steele,  E. J. Sundstrom,  
 H. L. Woodcock III,  P. M. Zimmerman,  D. Zuev,  B. Albrecht,  E. Alguire,  
 S. A. Baeppler,  D. Barton,  Z. Benda,  Y. A. Bernard,  E. J. Berquist,  
 K. B. Bravaya,  H. Burton,  D. Casanova,  Chun-Min Chang,  Yunqing Chen,  
 A. Chien,  K. D. Closser,  M. P. Coons,  S. Coriani,  S. Dasgupta,  
 A. L. Dempwolff,  M. Diedenhofen,  Hainam Do,  R. G. Edgar,  Po-Tung Fang,  
 S. Faraji,  S. Fatehi,  Qingguo Feng,  K. D. Fenk,  J. Fosso-Tande,  
 J. Gayvert,  Qinghui Ge,  A. Ghysels,  G. Gidofalvi,  J. Gomes,  
 J. Gonthier,  A. Gunina,  D. Hait,  M. W. D. Hanson-Heine,  
 P. H. P. Harbach,  A. W. Hauser,  M. F. Herbst,  J. E. Herr,  
 E. G. Hohenstein,  Z. C. Holden,  Kerwin Hui,  B. C. Huynh,  T.-C. Jagau,  
 Hyunjun Ji,  B. Kaduk,  K. Khistyaev,  Jaehoon Kim,  P. Klunzinger,  K. Koh,  
 D. Kosenkov,  L. Koulias,  T. Kowalczyk,  C. M. Krauter,  A. Kunitsa,  
 Ka Un Lao,  A. Laurent,  K. V. Lawler,  Joonho Lee,  D. Lefrancois,  
 S. Lehtola,  D. S. Levine,  Yi-Pei Li,  You-Sheng Lin,  Fenglai Liu,  
 E. Livshits,  A. Luenser,  P. Manohar,  E. Mansoor,  S. F. Manzer,  
 Shan-Ping Mao,  Yuezhi Mao,  N. Mardirossian,  A. V. Marenich,  
 T. Markovich,  L. A. Martinez-Martinez,  S. A. Maurer,  N. J. Mayhall,  
 S. C. McKenzie,  J.-M. Mewes,  P. Morgante,  A. F. Morrison,  
 J. W. Mullinax,  K. Nanda,  T. S. Nguyen-Beck,  R. Olivares-Amaya,  
 J. A. Parkhill,  Zheng Pei,  T. M. Perrine,  F. Plasser,  P. Pokhilko,  
 S. Prager,  A. Prociuk,  E. Ramos,  D. R. Rehn,  F. Rob,  M. Scheurer,  
 M. Schneider,  N. Sergueev,  S. M. Sharada,  S. Sharma,  D. W. Small,  
 T. Stauch,  T. Stein,  Yu-Chuan Su,  A. J. W. Thom,  A. Tkatchenko,  
 T. Tsuchimochi,  N. M. Tubman,  L. Vogt,  M. L. Vidal,  O. Vydrov,  
 M. A. Watson,  J. Wenzel,  M. de Wergifosse,  T. A. Wesolowski,  A. White,  
 J. Witte,  A. Yamada,  Jun Yang,  K. Yao,  S. Yeganeh,  S. R. Yost,  
 Zhi-Qiang You,  A. Zech,  Igor Ying Zhang,  Xing Zhang,  Yan Zhao,  
 Ying Zhu,  B. R. Brooks,  G. K. L. Chan,  C. J. Cramer,  M. S. Gordon,  
 W. J. Hehre,  A. Klamt,  M. W. Schmidt,  C. D. Sherrill,  D. G. Truhlar,  
 A. Aspuru-Guzik,  R. Baer,  A. T. Bell,  N. A. Besley,  Jeng-Da Chai,  
 A. E. DePrince, III,  R. A. DiStasio Jr.,  A. Dreuw,  B. D. Dunietz,  
 T. R. Furlani,  Chao-Ping Hsu,  Yousung Jung,  Jing Kong,  D. S. Lambrecht,  
 WanZhen Liang,  C. Ochsenfeld,  V. A. Rassolov,  L. V. Slipchenko,  
 J. E. Subotnik,  T. Van Voorhis,  J. M. Herbert,  A. I. Krylov,  
 P. M. W. Gill,  M. Head-Gordon

 Contributors to earlier versions of Q-Chem not listed above: 
 R. D. Adamson,  B. Austin,  J. Baker,  G. J. O. Beran,  K. Brandhorst,  
 S. T. Brown,  E. F. C. Byrd,  A. K. Chakraborty,  C.-L. Cheng,  
 Siu Hung Chien,  D. M. Chipman,  D. L. Crittenden,  H. Dachsel,  
 R. J. Doerksen,  A. D. Dutoi,  L. Fusti-Molnar,  W. A. Goddard III,  
 A. Golubeva-Zadorozhnaya,  S. R. Gwaltney,  G. Hawkins,  A. Heyden,  
 S. Hirata,  G. Kedziora,  F. J. Keil,  C. Kelley,  Jihan Kim,  R. A. King,  
 R. Z. Khaliullin,  P. P. Korambath,  W. Kurlancheek,  A. M. Lee,  M. S. Lee,  
 S. V. Levchenko,  Ching Yeh Lin,  D. Liotard,  R. C. Lochan,  I. Lotan,  
 P. E. Maslen,  N. Nair,  D. P. O'Neill,  D. Neuhauser,  E. Neuscamman,  
 C. M. Oana,  R. Olson,  B. Peters,  R. Peverati,  P. A. Pieniazek,  
 Y. M. Rhee,  J. Ritchie,  M. A. Rohrdanz,  E. Rosta,  N. J. Russ,  
 H. F. Schaefer III,  N. E. Schultz,  N. Shenvi,  A. C. Simmonett,  A. Sodt,  
 D. Stuck,  K. S. Thanthiriwatte,  V. Vanovschi,  Tao Wang,  A. Warshel,  
 C. F. Williams,  Q. Wu,  X. Xu,  W. Zhang

 Please cite Q-Chem as follows:
 Y. Shao et al., Mol. Phys. 113, 184-215 (2015)
 DOI: 10.1080/00268976.2014.952696

 Q-Chem 5.2.0 for Intel X86 EM64T Linux

 Parts of Q-Chem use Armadillo 8.300.2 (Tropical Shenanigans).
 http://arma.sourceforge.net/

 Q-Chem begins on Sun Sep 26 13:00:26 2021  

Host: cori01
0

     Scratch files written to /tmp/qchem52189//Frg1//
 May1019 |scratch|qcdevops|jenkins|workspace|build_RNUM -1
Processing $rem in /global/common/cori/software/qchem/5.2/config/preferences:
	 MEM_TOTAL  96000 
NAlpha2: 44
NElect   44
Mult     1
Symmetry turned off for PCM/SM12/SMD calculation

Checking the input file for inconsistencies... 	...done.

--------------------------------------------------------------
User input:
--------------------------------------------------------------
$molecule
0 1
 6	-0.3845183228	2.0380528873	-1.9271866078
 6	0.7164816772	1.3890528873	-1.1391866078
 6	2.1164816772	-0.1889471127	-0.5291866079
 6	1.4334816772	1.8450528873	-0.0741866079
 7	1.1684816772	0.1110528873	-1.4071866078
 7	2.2984816772	0.8500528873	0.2818133922
 1	2.6154816772	-1.1499471127	-0.5371866079
 1	-1.2855183228	1.9940528873	-1.3171866079
 1	-0.5315183228	1.4240528873	-2.8221866078
 1	2.9644816772	0.9010528873	1.0448133922
 1	1.3994816772	2.7840528873	0.4478133921
 1	-0.1890483228	3.0741228873	-2.2407966079
$end
$rem
EDA2		1
METHOD		WB97X-V
BASIS		DEF2-TZVPD
XC_GRID		000099000590
NL_GRID		1
UNRESTRICTED		FALSE
MAX_SCF_CYCLES		200
SYMMETRY		FALSE
SYM_IGNORE		TRUE
BASIS_LIN_DEP_THRESH		6
THRESH		14
SCF_CONVERGENCE		8
SCF_PRINT_FRGM		TRUE
SOLVENT_METHOD		SMD
!required keywords
JOBTYPE		SP
SYM_IGNORE		TRUE
SUBSYSTEM		TRUE
GEN_SCFMAN		TRUE
CHILD_INSTRUCTION		2
SYM_IGNORE		TRUE
SCFMI		0
RI_K 0		
PARI_K 0		
MIN_PARI_K 0		
IARI_K 0		
OCC_RI_K 0		
PURECART		1111
MEM_STATIC		2000
MEM_TOTAL		96000
GUI		0
CHILD_MP		1
CHILD_MP_ORDERS		232
FRZ_RELAX		0
FRZ_RELAX_METHOD		0
EDA_CLS_ELEC		1
EDA_CLS_DISP		0
FRZ_ORTHO_DECOMP		1
EDA2		FALSE
FRGM_METHOD		FALSE
CIS_N_ROOTS  0
LOCAL_CIS    0
CIS_RLX_DNS  1
$end
$smx
SOLVENT			WATER
$end
--------------------------------------------------------------
 ----------------------------------------------------------------
             Standard Nuclear Orientation (Angstroms)
    I     Atom           X                Y                Z
 ----------------------------------------------------------------
    1      C      -0.3845183228     2.0380528873    -1.9271866078
    2      C       0.7164816772     1.3890528873    -1.1391866078
    3      C       2.1164816772    -0.1889471127    -0.5291866079
    4      C       1.4334816772     1.8450528873    -0.0741866079
    5      N       1.1684816772     0.1110528873    -1.4071866078
    6      N       2.2984816772     0.8500528873     0.2818133922
    7      H       2.6154816772    -1.1499471127    -0.5371866079
    8      H      -1.2855183228     1.9940528873    -1.3171866079
    9      H      -0.5315183228     1.4240528873    -2.8221866078
   10      H       2.9644816772     0.9010528873     1.0448133922
   11      H       1.3994816772     2.7840528873     0.4478133921
   12      H      -0.1890483228     3.0741228873    -2.2407966079
 ----------------------------------------------------------------
 Nuclear Repulsion Energy =         224.78975855 hartrees
 There are       22 alpha and       22 beta electrons
 Requested basis set is def2-TZVPD
 There are 108 shells and 276 basis functions

 Total QAlloc Memory Limit  96000 MB
 Mega-Array Size      1956 MB
 MEM_STATIC part      2000 MB
 
 Citation of the SMD model:
 Marenich, A.V.; Cramer, C.J.; Truhlar, D.G.
 J. Phys. Chem. B 2009, 113, 6378-6396.
 iSolventCode=           1
 Solvent: water                                                           
 
 vradii
            1           2           3           4           5           6
    1   1.8500000   1.8500000   1.8500000   1.8500000   1.8900000   1.8900000
            7           8           9          10          11          12
    1   1.2000000   1.2000000   1.2000000   1.2000000   1.2000000   1.2000000
 Changing PCM_VDW_RADII to SMD_RADIUS
 Discretize the solute cavity surface with Lebedev spheres
	Using 110 Lebedev grid points for each H atom
	Using 194 Lebedev grid points for other atoms
	Atomic van der Waals radii will be scaled by 1.20
 Remove points where switching function is < 1.0e-08
 Keep 883 surface tesserae and discard 941 interior tesserae
 Molecular Surface Area = 116.063 Angst**2

                       Distance Matrix (Angstroms)
             C (  1)   C (  2)   C (  3)   C (  4)   N (  5)   N (  6)
   C (  2)  1.501448
   C (  3)  3.628903  2.195947
   C (  4)  2.603072  1.362443  2.193324
   N (  5)  2.528940  1.381815  1.326495  2.203150
   N (  6)  3.672807  2.193738  1.330551  1.365645  2.162346
   H (  7)  4.592978  3.227247  1.082860  3.252925  2.107328  2.184319
   H (  8)  1.088961  2.098979  4.118257  2.993361  3.094496  4.087859
   H (  9)  1.095276  2.095523  3.856361  3.404404  2.572196  4.239480
   H ( 10)  4.619670  3.171987  2.093963  2.118315  3.140385  1.014064
   H ( 11)  3.062645  2.220604  3.210506  1.074877  3.261796  2.139185
   H ( 12)  1.100000  2.207485  4.346574  2.972779  3.364161  4.183044
             H (  7)   H (  8)   H (  9)   H ( 10)   H ( 11)
   H (  8)  5.070595
   H (  9)  4.663723  1.777200
   H ( 10)  2.613642  4.983592  5.239202
   H ( 11)  4.233821  3.308859  4.033765  2.520183
   H ( 12)  5.348873  1.794952  1.782703  5.046010  3.136270
 
 A cutoff of  1.0D-14 yielded   5734 shell pairs
 There are     38174 function pairs (     48953 Cartesian)
 Smallest overlap matrix eigenvalue = 1.49E-06

 Scale SEOQF with 1.000000e-01/1.000000e-01/1.000000e-01

 Standard Electronic Orientation quadrupole field applied
 Nucleus-field energy     =     0.0000000035 hartrees
 Guess from superposition of atomic densities
 Warning:  Energy on first SCF cycle will be non-variational
 SAD guess density has 43.559167 electrons

 -----------------------------------------------------------------------
  General SCF calculation program by
  Eric Jon Sundstrom, Paul Horn, Yuezhi Mao, Dmitri Zuev, Alec White,
  David Stuck, Shaama M.S., Shane Yost, Joonho Lee, David Small,
  Daniel Levine, Susi Lehtola, Hugh Burton, Evgeny Epifanovsky
 -----------------------------------------------------------------------
 Exchange:     0.1670 Hartree-Fock + 1.0000 wB97X-V + LR-HF
 Correlation:  1.0000 wB97X-V
 Using Euler-Maclaurin-Lebedev (99,590) quadrature formula
 Nonlocal Correlation:  VV10 with C = 0.0100 and b = 6.00 and scale = 1.00000
 Grid used for NLC:  SG-1 standard quadrature
Energy prior to optimization (guess energy) = -265.145778166924
Begin Timing: Total SCF Calculation
begin iterations for algorithm: DIIS         
the SCF tolerance is set to 1.00e-08
    1    -265.1457781669      7.20e-03     00000 
    2    -265.1096301425      7.33e-03     00000 
    3    -265.5666060393      7.19e-04     00000 
    4    -265.5712082210      3.74e-04     00000 
    5    -265.5725722028      1.11e-04     00000 
    6    -265.5727282319      4.15e-05     00000 
    7    -265.5727523859      1.17e-05     00000 
    8    -265.5727549917      3.45e-06     00000 
    9    -265.5727552895      1.68e-06     00000 
   10    -265.5727553432      4.13e-07     00000 
   11    -265.5727553488      8.39e-08     00000 
   12    -265.5727553491      4.54e-08     00000 
   13    -265.5727553491      1.21e-08     00000 
   14    -265.5727553491      4.94e-09     00000 Convergence criterion met
Timing for Total SCF: 859.00s (wall), 1708.20s (cpu)
(3)  G-ENP(liq) elect-nuc-pol free energy of system     -265.572755349 a.u.
(4)  G-CDS(liq) cavity-dispersion-solvent structure 
     free energy                                                2.1869 kcal/mol
(6)  G-S(liq) free energy of system                     -265.569270323 a.u.
E_pcm = -0.0221832282
E_cds = 0.0034850262
Multipole orders to be included
        2
        3
computing dipole RHS
computing quadrupole RHS
total number of RHS in solve_reponses: 8
RHS batch sizes
        8
Beginning Block Conjugate Gradient Iterations. Batch Number: 0
computing hessian-vector products by finite difference
              1      6.02e-01     00000 Conjugate Gradient Iteration
computing hessian-vector products by finite difference
              2      1.87e-01     00000 Conjugate Gradient Iteration
computing hessian-vector products by finite difference
              3      4.67e-02     00000 Conjugate Gradient Iteration
computing hessian-vector products by finite difference
              4      1.37e-02     00000 Conjugate Gradient Iteration
computing hessian-vector products by finite difference
              5      2.67e-03     00000 Conjugate Gradient Iteration
computing hessian-vector products by finite difference
              6      4.67e-04     00000 Conjugate Gradient Iteration
computing hessian-vector products by finite difference
              7      8.87e-05     00000 Conjugate Gradient Iteration
computing hessian-vector products by finite difference
              8      1.62e-05     00000 Conjugate Gradient Iteration
computing hessian-vector products by finite difference
              9      2.55e-06     00000 Conjugate Gradient Iteration
computing hessian-vector products by finite difference
             10      3.85e-07     00000 Conjugate Gradient Iteration
computing hessian-vector products by finite difference
             11      6.81e-08     00000 Conjugate Gradient Iteration
computing hessian-vector products by finite difference
             12      9.75e-09     00000 CG Converged
batch 0 complete
Done Calculating Responses
TESTING ORTHOGONALIZATION OF MULTIPOLE BASIS
Multipole virts passed orthogonality test
Virts Per Order
           66
          110
 
 --------------------------------------------------------------
 
                    Orbital Energies (a.u.)
 --------------------------------------------------------------
 
 Alpha MOs
 -- Occupied --
-14.4587 -14.3861 -10.3152 -10.2834 -10.2812 -10.2571  -1.1529  -0.9946
 -0.8941  -0.8216  -0.7215  -0.6873  -0.6591  -0.5629  -0.5524  -0.5375
 -0.5102  -0.4903  -0.4746  -0.3785  -0.3780  -0.3189
 -- Virtual --
  0.0693   0.0879   0.0974   0.1070   0.1185   0.1314   0.1374   0.1441
  0.1717   0.1748   0.1834   0.1882   0.1993   0.2039   0.2218   0.2460
  0.2500   0.2582   0.2595   0.2617   0.2680   0.2931   0.2986   0.3073
  0.3127   0.3182   0.3258   0.3282   0.3390   0.3444   0.3511   0.3569
  0.3594   0.3662   0.3819   0.3872   0.3949   0.4024   0.4124   0.4236
  0.4280   0.4284   0.4417   0.4485   0.4654   0.4711   0.4770   0.4804
  0.4890   0.4935   0.4968   0.5126   0.5136   0.5430   0.5560   0.5582
  0.5690   0.5767   0.5846   0.5948   0.6056   0.6123   0.6249   0.6287
  0.6508   0.6579   0.6683   0.6835   0.6984   0.7057   0.7146   0.7284
  0.7347   0.7460   0.7623   0.7769   0.7806   0.7846   0.7892   0.8023
  0.8123   0.8275   0.8379   0.8443   0.8697   0.8842   0.8982   0.9078
  0.9167   0.9366   0.9551   0.9779   0.9995   1.0190   1.0275   1.0396
  1.0552   1.0682   1.0801   1.0951   1.1240   1.1709   1.1877   1.2208
  1.2318   1.2523   1.2720   1.3275   1.3479   1.3633   1.4007   1.4366
  1.4510   1.4607   1.5312   1.5499   1.6051   1.6242   1.6673   1.6832
  1.6989   1.7426   1.8053   1.8323   1.8473   1.8666   1.8767   1.8812
  1.8994   1.9272   1.9435   1.9606   1.9772   1.9947   2.0054   2.0116
  2.0315   2.0615   2.0971   2.1455   2.2005   2.2287   2.2374   2.2754
  2.3043   2.3212   2.4026   2.4146   2.4229   2.4603   2.4707   2.5091
  2.5237   2.5660   2.5816   2.6196   2.6491   2.6735   2.6891   2.7217
  2.7676   2.7842   2.8053   2.8508   2.8627   2.8984   2.9093   2.9741
  3.0120   3.0284   3.0480   3.0722   3.0921   3.1055   3.1462   3.1750
  3.1836   3.2102   3.2242   3.2534   3.2868   3.3189   3.3255   3.3378
  3.3530   3.3728   3.3801   3.4023   3.4201   3.4424   3.4743   3.4950
  3.5097   3.5154   3.5886   3.6078   3.6299   3.6546   3.6772   3.7316
  3.7502   3.7924   3.8224   3.8713   3.9159   3.9451   3.9704   4.0402
  4.0834   4.1174   4.1297   4.2631   4.2935   4.3628   4.4208   4.4609
  4.5092   4.5993   4.6176   4.7377   4.7787   4.8267   4.8324   4.8772
  4.9386   4.9665   5.0393   5.0424   5.0548   5.1059   5.1688   5.1999
  5.2337   5.3053   5.3776   5.4550   5.4877   5.5377   5.5866   5.6070
  5.6713   5.6971   5.7562   5.7947   5.8770   6.0437   6.2492   6.2845
 22.6182  22.8984  23.1363  23.3820  32.6442  32.7583
 --------------------------------------------------------------
 
          Ground-State Mulliken Net Atomic Charges

     Atom                 Charge (a.u.)
  ----------------------------------------
      1 C                    -0.813440
      2 C                     0.523922
      3 C                    -0.265797
      4 C                    -0.597669
      5 N                    -0.517995
      6 N                     0.076230
      7 H                     0.346706
      8 H                     0.212034
      9 H                     0.243628
     10 H                     0.199410
     11 H                     0.318263
     12 H                     0.274707
  ----------------------------------------
  Sum of atomic charges =     0.000000

 -----------------------------------------------------------------
                    Cartesian Multipole Moments
 -----------------------------------------------------------------
    Charge (ESU x 10^10)
                 0.0000
    Dipole Moment (Debye)
         X       2.5005      Y       1.8226      Z       3.9630
       Tot       5.0279
    Quadrupole Moments (Debye-Ang)
        XX     -25.2464     XY       0.6297     YY     -30.6422
        XZ       8.2524     YZ       0.3319     ZZ     -40.0916
    Octopole Moments (Debye-Ang^2)
       XXX     -90.5885    XXY     -37.2562    XYY     -35.1017
       YYY    -101.1125    XXZ      49.4109    XYZ       7.6246
       YYZ      31.2131    XZZ     -45.3691    YZZ     -31.9744
       ZZZ     103.6868
    Hexadecapole Moments (Debye-Ang^3)
      XXXX    -441.5681   XXXY     -65.8188   XXYY    -156.7681
      XYYY     -62.7577   YYYY    -421.1931   XXXZ      77.3298
      XXYZ      59.5575   XYYZ      19.1119   YYYZ     109.8660
      XXZZ    -147.0666   XYZZ     -18.1216   YYZZ    -128.3966
      XZZZ      53.4580   YZZZ     102.7601   ZZZZ    -370.5350
 -----------------------------------------------------------------
Archival summary:
1\1\nid00552\SP\ProcedureUnspecified\BasisUnspecified\246\meili\SunSep2617:03:062021SunSep2617:03:062021\0\\#,ProcedureUnspecified,BasisUnspecified,\\0,1\N\C,1,1.32649\H,2,1.08286,1,121.678\N,2,1.33055,1,108.941,3,-179.987,0\H,4,1.01406,2,125.996,1,-179.688,0\C,4,1.36564,2,108.869,1,0.623338,0\H,6,1.07488,4,122.001,2,179.788,0\C,6,1.36244,4,107.053,2,-0.406301,0\C,8,1.50145,6,130.653,4,178.862,0\H,9,1.08896,8,107.173,6,-75.5164,0\H,9,1.09528,8,106.557,6,168.015,0\H,9,1.1,8,115.242,6,47.4865,0\\\@

 Total job time:  14560.66s(wall), 28563.63s(cpu) 
 Sun Sep 26 17:03:07 2021

        *************************************************************
        *                                                           *
        *  Thank you very much for using Q-Chem.  Have a nice day.  *
        *                                                           *
        *************************************************************


Done Job For Fragment 0
calling putenv with: QCSCRATCH=/global/cscratch1/sd/meili 
calling putenv with: QCLOCALSCR=/tmp 
calling putenv with: QCTHREADS=32 
Creating input file /tmp/qchem52189/Frg2.input
using default PutDataFrgm: nothing
calling putenv with: QCSCRATCH=/tmp/qchem52189/ 
calling putenv with: QCLOCALSCR=/tmp/qchem52189/ 
Spawning Job For Fragment 1
                  Welcome to Q-Chem
     A Quantum Leap Into The Future Of Chemistry


 Q-Chem 5.2, Q-Chem, Inc., Pleasanton, CA (2019)

 License issued to: National Energy Research Scientific Computing Center

 Yihan Shao,  Zhengting Gan,  E. Epifanovsky,  A. T. B. Gilbert,  M. Wormit,  
 J. Kussmann,  A. W. Lange,  A. Behn,  Jia Deng,  Xintian Feng,  D. Ghosh,  
 M. Goldey,  P. R. Horn,  L. D. Jacobson,  I. Kaliman,  T. Kus,  A. Landau,  
 Jie Liu,  E. I. Proynov,  R. M. Richard,  R. P. Steele,  E. J. Sundstrom,  
 H. L. Woodcock III,  P. M. Zimmerman,  D. Zuev,  B. Albrecht,  E. Alguire,  
 S. A. Baeppler,  D. Barton,  Z. Benda,  Y. A. Bernard,  E. J. Berquist,  
 K. B. Bravaya,  H. Burton,  D. Casanova,  Chun-Min Chang,  Yunqing Chen,  
 A. Chien,  K. D. Closser,  M. P. Coons,  S. Coriani,  S. Dasgupta,  
 A. L. Dempwolff,  M. Diedenhofen,  Hainam Do,  R. G. Edgar,  Po-Tung Fang,  
 S. Faraji,  S. Fatehi,  Qingguo Feng,  K. D. Fenk,  J. Fosso-Tande,  
 J. Gayvert,  Qinghui Ge,  A. Ghysels,  G. Gidofalvi,  J. Gomes,  
 J. Gonthier,  A. Gunina,  D. Hait,  M. W. D. Hanson-Heine,  
 P. H. P. Harbach,  A. W. Hauser,  M. F. Herbst,  J. E. Herr,  
 E. G. Hohenstein,  Z. C. Holden,  Kerwin Hui,  B. C. Huynh,  T.-C. Jagau,  
 Hyunjun Ji,  B. Kaduk,  K. Khistyaev,  Jaehoon Kim,  P. Klunzinger,  K. Koh,  
 D. Kosenkov,  L. Koulias,  T. Kowalczyk,  C. M. Krauter,  A. Kunitsa,  
 Ka Un Lao,  A. Laurent,  K. V. Lawler,  Joonho Lee,  D. Lefrancois,  
 S. Lehtola,  D. S. Levine,  Yi-Pei Li,  You-Sheng Lin,  Fenglai Liu,  
 E. Livshits,  A. Luenser,  P. Manohar,  E. Mansoor,  S. F. Manzer,  
 Shan-Ping Mao,  Yuezhi Mao,  N. Mardirossian,  A. V. Marenich,  
 T. Markovich,  L. A. Martinez-Martinez,  S. A. Maurer,  N. J. Mayhall,  
 S. C. McKenzie,  J.-M. Mewes,  P. Morgante,  A. F. Morrison,  
 J. W. Mullinax,  K. Nanda,  T. S. Nguyen-Beck,  R. Olivares-Amaya,  
 J. A. Parkhill,  Zheng Pei,  T. M. Perrine,  F. Plasser,  P. Pokhilko,  
 S. Prager,  A. Prociuk,  E. Ramos,  D. R. Rehn,  F. Rob,  M. Scheurer,  
 M. Schneider,  N. Sergueev,  S. M. Sharada,  S. Sharma,  D. W. Small,  
 T. Stauch,  T. Stein,  Yu-Chuan Su,  A. J. W. Thom,  A. Tkatchenko,  
 T. Tsuchimochi,  N. M. Tubman,  L. Vogt,  M. L. Vidal,  O. Vydrov,  
 M. A. Watson,  J. Wenzel,  M. de Wergifosse,  T. A. Wesolowski,  A. White,  
 J. Witte,  A. Yamada,  Jun Yang,  K. Yao,  S. Yeganeh,  S. R. Yost,  
 Zhi-Qiang You,  A. Zech,  Igor Ying Zhang,  Xing Zhang,  Yan Zhao,  
 Ying Zhu,  B. R. Brooks,  G. K. L. Chan,  C. J. Cramer,  M. S. Gordon,  
 W. J. Hehre,  A. Klamt,  M. W. Schmidt,  C. D. Sherrill,  D. G. Truhlar,  
 A. Aspuru-Guzik,  R. Baer,  A. T. Bell,  N. A. Besley,  Jeng-Da Chai,  
 A. E. DePrince, III,  R. A. DiStasio Jr.,  A. Dreuw,  B. D. Dunietz,  
 T. R. Furlani,  Chao-Ping Hsu,  Yousung Jung,  Jing Kong,  D. S. Lambrecht,  
 WanZhen Liang,  C. Ochsenfeld,  V. A. Rassolov,  L. V. Slipchenko,  
 J. E. Subotnik,  T. Van Voorhis,  J. M. Herbert,  A. I. Krylov,  
 P. M. W. Gill,  M. Head-Gordon

 Contributors to earlier versions of Q-Chem not listed above: 
 R. D. Adamson,  B. Austin,  J. Baker,  G. J. O. Beran,  K. Brandhorst,  
 S. T. Brown,  E. F. C. Byrd,  A. K. Chakraborty,  C.-L. Cheng,  
 Siu Hung Chien,  D. M. Chipman,  D. L. Crittenden,  H. Dachsel,  
 R. J. Doerksen,  A. D. Dutoi,  L. Fusti-Molnar,  W. A. Goddard III,  
 A. Golubeva-Zadorozhnaya,  S. R. Gwaltney,  G. Hawkins,  A. Heyden,  
 S. Hirata,  G. Kedziora,  F. J. Keil,  C. Kelley,  Jihan Kim,  R. A. King,  
 R. Z. Khaliullin,  P. P. Korambath,  W. Kurlancheek,  A. M. Lee,  M. S. Lee,  
 S. V. Levchenko,  Ching Yeh Lin,  D. Liotard,  R. C. Lochan,  I. Lotan,  
 P. E. Maslen,  N. Nair,  D. P. O'Neill,  D. Neuhauser,  E. Neuscamman,  
 C. M. Oana,  R. Olson,  B. Peters,  R. Peverati,  P. A. Pieniazek,  
 Y. M. Rhee,  J. Ritchie,  M. A. Rohrdanz,  E. Rosta,  N. J. Russ,  
 H. F. Schaefer III,  N. E. Schultz,  N. Shenvi,  A. C. Simmonett,  A. Sodt,  
 D. Stuck,  K. S. Thanthiriwatte,  V. Vanovschi,  Tao Wang,  A. Warshel,  
 C. F. Williams,  Q. Wu,  X. Xu,  W. Zhang

 Please cite Q-Chem as follows:
 Y. Shao et al., Mol. Phys. 113, 184-215 (2015)
 DOI: 10.1080/00268976.2014.952696

 Q-Chem 5.2.0 for Intel X86 EM64T Linux

 Parts of Q-Chem use Armadillo 8.300.2 (Tropical Shenanigans).
 http://arma.sourceforge.net/

 Q-Chem begins on Sun Sep 26 17:03:09 2021  

Host: cori01
0

     Scratch files written to /tmp/qchem52189//Frg2//
 May1019 |scratch|qcdevops|jenkins|workspace|build_RNUM -1
Processing $rem in /global/common/cori/software/qchem/5.2/config/preferences:
	 MEM_TOTAL  96000 
NAlpha2: 32
NElect   32
Mult     1
Symmetry turned off for PCM/SM12/SMD calculation

Checking the input file for inconsistencies... 	...done.

--------------------------------------------------------------
User input:
--------------------------------------------------------------
$molecule
0 1
 6	-2.9165183228	-1.8749471127	1.7348133921
 6	-1.6105183228	-1.4219471127	1.1148133922
 8	-0.5295183228	-1.7209471127	1.6258133921
 7	-1.7145183228	-0.6899471127	0.0138133921
 1	-0.8755183228	-0.3609471127	-0.4471866078
 1	-2.6275183228	-0.4679471127	-0.3601866079
 1	-3.6795183228	-1.8909471127	0.9558133922
 1	-3.2025183228	-1.1539471127	2.5008133921
 1	-2.8523183228	-2.8778671127	2.1820633921
$end
$rem
EDA2		1
METHOD		WB97X-V
BASIS		DEF2-TZVPD
XC_GRID		000099000590
NL_GRID		1
UNRESTRICTED		FALSE
MAX_SCF_CYCLES		200
SYMMETRY		FALSE
SYM_IGNORE		TRUE
BASIS_LIN_DEP_THRESH		6
THRESH		14
SCF_CONVERGENCE		8
SCF_PRINT_FRGM		TRUE
SOLVENT_METHOD		SMD
!required keywords
JOBTYPE		SP
SYM_IGNORE		TRUE
SUBSYSTEM		TRUE
GEN_SCFMAN		TRUE
CHILD_INSTRUCTION		2
SYM_IGNORE		TRUE
SCFMI		0
RI_K 0		
PARI_K 0		
MIN_PARI_K 0		
IARI_K 0		
OCC_RI_K 0		
PURECART		1111
MEM_STATIC		2000
MEM_TOTAL		96000
GUI		0
CHILD_MP		1
CHILD_MP_ORDERS		232
FRZ_RELAX		0
FRZ_RELAX_METHOD		0
EDA_CLS_ELEC		1
EDA_CLS_DISP		0
FRZ_ORTHO_DECOMP		1
EDA2		FALSE
FRGM_METHOD		FALSE
CIS_N_ROOTS  0
LOCAL_CIS    0
CIS_RLX_DNS  1
$end
$smx
SOLVENT			WATER
$end
--------------------------------------------------------------
 ----------------------------------------------------------------
             Standard Nuclear Orientation (Angstroms)
    I     Atom           X                Y                Z
 ----------------------------------------------------------------
    1      C      -2.9165183228    -1.8749471127     1.7348133921
    2      C      -1.6105183228    -1.4219471127     1.1148133922
    3      O      -0.5295183228    -1.7209471127     1.6258133921
    4      N      -1.7145183228    -0.6899471127     0.0138133921
    5      H      -0.8755183228    -0.3609471127    -0.4471866078
    6      H      -2.6275183228    -0.4679471127    -0.3601866079
    7      H      -3.6795183228    -1.8909471127     0.9558133922
    8      H      -3.2025183228    -1.1539471127     2.5008133921
    9      H      -2.8523183228    -2.8778671127     2.1820633921
 ----------------------------------------------------------------
 Nuclear Repulsion Energy =         122.20650870 hartrees
 There are       16 alpha and       16 beta electrons
 Requested basis set is def2-TZVPD
 There are 78 shells and 196 basis functions

 Total QAlloc Memory Limit  96000 MB
 Mega-Array Size      1956 MB
 MEM_STATIC part      2000 MB
 
 Citation of the SMD model:
 Marenich, A.V.; Cramer, C.J.; Truhlar, D.G.
 J. Phys. Chem. B 2009, 113, 6378-6396.
 iSolventCode=           1
 Solvent: water                                                           
 
 vradii
            1           2           3           4           5           6
    1   1.8500000   1.8500000   1.5200000   1.8900000   1.2000000   1.2000000
            7           8           9
    1   1.2000000   1.2000000   1.2000000
 Changing PCM_VDW_RADII to SMD_RADIUS
 Discretize the solute cavity surface with Lebedev spheres
	Using 110 Lebedev grid points for each H atom
	Using 194 Lebedev grid points for other atoms
	Atomic van der Waals radii will be scaled by 1.20
 Remove points where switching function is < 1.0e-08
 Keep 731 surface tesserae and discard 595 interior tesserae
 Molecular Surface Area = 89.894 Angst**2

                       Distance Matrix (Angstroms)
             C (  1)   C (  2)   O (  3)   N (  4)   H (  5)   H (  6)
   C (  2)  1.515007
   O (  3)  2.394445  1.232511
   N (  4)  2.410575  1.326213  2.250718
   H (  5)  3.349478  2.026275  2.503327  1.012266
   H (  6)  2.540117  2.029786  3.148938  1.011301  1.757419
   H (  7)  1.090535  2.127440  3.224950  2.488170  3.488800  2.205332
   H (  8)  1.090134  2.127742  2.869154  2.935065  3.838552  2.997756
   H (  9)  1.100001  2.191071  2.653917  3.283731  4.141930  3.510169
             H (  7)   H (  8)
   H (  8)  1.776998
   H (  9)  1.778190  1.787776
 
 A cutoff of  1.0D-14 yielded   3054 shell pairs
 There are     19544 function pairs (     24702 Cartesian)
 Smallest overlap matrix eigenvalue = 1.16E-05

 Scale SEOQF with 1.000000e-01/1.000000e-01/1.000000e-01

 Standard Electronic Orientation quadrupole field applied
 Nucleus-field energy     =     0.0000000036 hartrees
 Guess from superposition of atomic densities
 Warning:  Energy on first SCF cycle will be non-variational
 SAD guess density has 31.604610 electrons

 -----------------------------------------------------------------------
  General SCF calculation program by
  Eric Jon Sundstrom, Paul Horn, Yuezhi Mao, Dmitri Zuev, Alec White,
  David Stuck, Shaama M.S., Shane Yost, Joonho Lee, David Small,
  Daniel Levine, Susi Lehtola, Hugh Burton, Evgeny Epifanovsky
 -----------------------------------------------------------------------
 Exchange:     0.1670 Hartree-Fock + 1.0000 wB97X-V + LR-HF
 Correlation:  1.0000 wB97X-V
 Using Euler-Maclaurin-Lebedev (99,590) quadrature formula
 Nonlocal Correlation:  VV10 with C = 0.0100 and b = 6.00 and scale = 1.00000
 Grid used for NLC:  SG-1 standard quadrature
Energy prior to optimization (guess energy) = -208.703934291880
Begin Timing: Total SCF Calculation
begin iterations for algorithm: DIIS         
the SCF tolerance is set to 1.00e-08
    1    -208.7039342919      1.26e-02     00000 
    2    -208.3268219335      1.54e-02     00000 
    3    -209.2366300732      2.37e-03     00000 
    4    -209.2554347148      7.73e-04     00000 
    5    -209.2585446671      2.02e-04     00000 
    6    -209.2588249771      6.84e-05     00000 
    7    -209.2588677115      2.08e-05     00000 
    8    -209.2588730722      6.03e-06     00000 
    9    -209.2588738615      2.03e-06     00000 
   10    -209.2588739127      3.57e-07     00000 
   11    -209.2588739140      1.49e-07     00000 
   12    -209.2588739142      2.09e-08     00000 
   13    -209.2588739142      4.77e-09     00000 Convergence criterion met
Timing for Total SCF: 327.00s (wall), 645.77s (cpu)
(3)  G-ENP(liq) elect-nuc-pol free energy of system     -209.258873914 a.u.
(4)  G-CDS(liq) cavity-dispersion-solvent structure 
     free energy                                                3.5274 kcal/mol
(6)  G-S(liq) free energy of system                     -209.253252593 a.u.
E_pcm = -0.0306157384
E_cds = 0.0056213211
Multipole orders to be included
        2
        3
computing dipole RHS
computing quadrupole RHS
total number of RHS in solve_reponses: 8
RHS batch sizes
        8
Beginning Block Conjugate Gradient Iterations. Batch Number: 0
computing hessian-vector products by finite difference
              1      6.10e-01     00000 Conjugate Gradient Iteration
computing hessian-vector products by finite difference
              2      1.97e-01     00000 Conjugate Gradient Iteration
computing hessian-vector products by finite difference
              3      4.90e-02     00000 Conjugate Gradient Iteration
computing hessian-vector products by finite difference
              4      1.22e-02     00000 Conjugate Gradient Iteration
computing hessian-vector products by finite difference
              5      1.78e-03     00000 Conjugate Gradient Iteration
computing hessian-vector products by finite difference
              6      3.76e-04     00000 Conjugate Gradient Iteration
computing hessian-vector products by finite difference
              7      5.35e-05     00000 Conjugate Gradient Iteration
computing hessian-vector products by finite difference
              8      5.97e-06     00000 Conjugate Gradient Iteration
computing hessian-vector products by finite difference
              9      8.50e-07     00000 Conjugate Gradient Iteration
computing hessian-vector products by finite difference
             10      9.86e-08     00000 Conjugate Gradient Iteration
computing hessian-vector products by finite difference
             11      1.20e-08     00000 Conjugate Gradient Iteration
computing hessian-vector products by finite difference
             12      2.61e-09     00000 CG Converged
batch 0 complete
Done Calculating Responses
TESTING ORTHOGONALIZATION OF MULTIPOLE BASIS
Multipole virts passed orthogonality test
Virts Per Order
        48
        80
 
 --------------------------------------------------------------
 
                    Orbital Energies (a.u.)
 --------------------------------------------------------------
 
 Alpha MOs
 -- Occupied --
-19.1836 -14.4285 -10.3785 -10.2625  -1.1743  -1.0429  -0.8627  -0.7083
 -0.6516  -0.5908  -0.5650  -0.5195  -0.4983  -0.4779  -0.3845  -0.3747
 -- Virtual --
  0.0645   0.0960   0.0965   0.1031   0.1305   0.1338   0.1408   0.1492
  0.1796   0.1871   0.1982   0.2190   0.2291   0.2458   0.2506   0.2651
  0.2692   0.2785   0.2988   0.3154   0.3365   0.3389   0.3476   0.3521
  0.3617   0.3668   0.3743   0.3780   0.3982   0.4055   0.4182   0.4190
  0.4377   0.4588   0.4620   0.4758   0.4839   0.4952   0.4990   0.5047
  0.5258   0.5340   0.5446   0.5748   0.5823   0.5972   0.6194   0.6364
  0.6388   0.6543   0.6742   0.6962   0.7097   0.7230   0.7276   0.7713
  0.7741   0.7846   0.8002   0.8171   0.8187   0.8386   0.8531   0.8699
  0.9110   0.9533   0.9852   0.9876   1.0093   1.0368   1.0618   1.0879
  1.1054   1.1868   1.2270   1.2462   1.2870   1.3275   1.3341   1.3821
  1.4831   1.4923   1.5100   1.6226   1.6717   1.7344   1.7438   1.8124
  1.8559   1.8673   1.9073   1.9203   1.9276   1.9581   1.9802   2.0386
  2.0516   2.0903   2.1482   2.1655   2.2082   2.2436   2.2992   2.3736
  2.4066   2.4196   2.4473   2.4758   2.5574   2.5794   2.5883   2.6138
  2.6896   2.7053   2.7783   2.8012   2.8396   2.8875   2.9640   2.9926
  3.0552   3.0998   3.1386   3.1639   3.2053   3.2349   3.2714   3.2822
  3.3206   3.3419   3.3712   3.4017   3.4555   3.5043   3.5533   3.5714
  3.6346   3.6551   3.6584   3.7838   3.8760   3.9525   4.0182   4.0510
  4.0760   4.1954   4.3191   4.4105   4.4979   4.5977   4.6279   4.6733
  4.7718   4.8903   4.8965   4.9421   5.1406   5.1783   5.2561   5.3493
  5.3881   5.3896   5.4065   5.4837   5.5356   5.7652   5.9051   6.1421
  6.2442   6.5171   6.6340   6.7316   6.8192   6.9681   7.2124   7.3120
 22.5846  23.5666  32.4116  44.3105
 --------------------------------------------------------------
 
          Ground-State Mulliken Net Atomic Charges

     Atom                 Charge (a.u.)
  ----------------------------------------
      1 C                    -0.651124
      2 C                     0.449136
      3 O                    -0.697369
      4 N                    -0.298960
      5 H                     0.249964
      6 H                     0.240830
      7 H                     0.240219
      8 H                     0.215949
      9 H                     0.251355
  ----------------------------------------
  Sum of atomic charges =     0.000000

 -----------------------------------------------------------------
                    Cartesian Multipole Moments
 -----------------------------------------------------------------
    Charge (ESU x 10^10)
                -0.0000
    Dipole Moment (Debye)
         X      -4.6082      Y       2.0775      Z      -3.3087
       Tot       6.0414
    Quadrupole Moments (Debye-Ang)
        XX     -10.6455     XY       4.6527     YY     -29.2907
        XZ      -2.1237     YZ       4.5215     ZZ     -28.8461
    Octopole Moments (Debye-Ang^2)
       XXX      91.5068    XXY      19.7274    XYY      36.8607
       YYY     113.0386    XXZ     -19.4032    XYZ       5.6969
       YYZ     -35.1183    XZZ      37.0085    YZZ      44.7731
       ZZZ     -92.0853
    Hexadecapole Moments (Debye-Ang^3)
      XXXX    -513.0794   XXXY    -152.6136   XXYY    -141.5194
      XYYY    -177.8970   YYYY    -379.1348   XXXZ     136.4604
      XXYZ      29.7391   XYYZ      38.4121   YYYZ     155.8325
      XXZZ    -129.5119   XYZZ     -57.2114   YYZZ    -127.7395
      XZZZ     142.2702   YZZZ     165.8966   ZZZZ    -318.5027
 -----------------------------------------------------------------
Archival summary:
1\1\nid00552\SP\ProcedureUnspecified\BasisUnspecified\1125\meili\SunSep2618:35:572021SunSep2618:35:572021\0\\#,ProcedureUnspecified,BasisUnspecified,\\0,1\C\O,1,1.23251\N,1,1.32621,2,123.153\H,3,1.0113,1,119.932,2,-179.567,0\H,3,1.01227,1,119.503,2,0.665186,0\C,1,1.51501,2,120.922,3,-179.523,0\H,6,1.09013,1,108.419,2,85.5512,0\H,6,1.09053,1,108.372,2,-156.092,0\H,6,1.1,1,112.874,2,-35.8483,0\\\@

 Total job time:  5568.43s(wall), 10980.56s(cpu) 
 Sun Sep 26 18:35:57 2021

        *************************************************************
        *                                                           *
        *  Thank you very much for using Q-Chem.  Have a nice day.  *
        *                                                           *
        *************************************************************


Done Job For Fragment 1
calling putenv with: QCSCRATCH=/global/cscratch1/sd/meili 
calling putenv with: QCLOCALSCR=/tmp 
calling putenv with: QCTHREADS=32 
Doing General SCFMI
 Exchange:     0.1670 Hartree-Fock + 1.0000 wB97X-V + LR-HF
 Correlation:  1.0000 wB97X-V
 Using Euler-Maclaurin-Lebedev (99,590) quadrature formula
 Nonlocal Correlation:  VV10 with C = 0.0100 and b = 6.00 and scale = 1.00000
 Grid used for NLC:  SG-1 standard quadrature
performing fock build before subrot guess so that all methods have access
Printing subrot_rss_gen Method Specification:
Occupied Subspace Method is 0
Virtual Subspace Method is 0
Energy of the unrelaxed supersystem initial determinant -474.787565013750
performing fock build before subrot guess so that all methods have access
Printing subrot_rss_gen Method Specification:
Occupied Subspace Method is 0
Virtual Subspace Method is 0
Energy of the unrelaxed supersystem initial determinant w/ solvent -474.832850399103
write pseudocanon occs and virts to disk
write pseudocanon orbital energies to disk
Tolerance of ortho_decomp_scf: 1.00e-06
GDM subspace size: 20
Beginning the Orthogonal Decomposition of the Initial Supersystem Wavefunction
    1    -474.7554175120      3.77e-02     ortho_decomp Preconditoned Steepest Descent
    2    -474.7582283902      8.68e-04     ortho_decomp BFGS Step
    3    -474.7582359313      5.85e-05     ortho_decomp BFGS Step
    4    -474.7582359418      2.17e-06     ortho_decomp BFGS Step
    5    -474.7582359419      7.73e-08     ortho_decomp 00000 Convergence criterion met
 Hartree-Fock
 Hartree-Fock
 Hartree-Fock
Doing General SCFMI
 Exchange:     0.1670 Hartree-Fock + 1.0000 wB97X-V + LR-HF
 Correlation:  1.0000 wB97X-V
 Using Euler-Maclaurin-Lebedev (99,590) quadrature formula
 Nonlocal Correlation:  VV10 with C = 0.0100 and b = 6.00 and scale = 1.00000
 Grid used for NLC:  SG-1 standard quadrature
performing fock build at end of subrot_r(subrot) constructor so that all methods have access
<S^2> of initial wavefunction before polarization iterations 0.0000000000
Beginning iterations for the determination of the polarized wavefunction
Energy prior to optimization (guess energy) = -474.832850399104
Begin Timing: Total SCF Calculation
begin iterations for algorithm: DIIS         
the SCF tolerance is set to 1.00e-08
    1    -474.8328503991      1.03e-04     00000 
    2    -474.8334761444      4.43e-05     00000 
    3    -474.8335344167      2.53e-05     00000 
    4    -474.8335567026      7.74e-06     00000 
    5    -474.8335593926      3.37e-06     00000 
    6    -474.8335600235      1.74e-06     00000 
    7    -474.8335602094      6.12e-07     00000 
    8    -474.8335602280      3.39e-07     00000 
    9    -474.8335602314      1.83e-07     00000 
   10    -474.8335602321      1.14e-07     00000 
   11    -474.8335602324      3.90e-08     00000 
   12    -474.8335602325      1.97e-08     00000 
   13    -474.8335602325      8.23e-09     00000 Convergence criterion met
write pseudocanon occs and virts to disk
write pseudocanon orbital energies to disk
Timing for Total SCF: 3519.00s (wall), 7008.60s (cpu)
<S^2> of polarized wavefunction after polarization iterations 0.0000000000
relaxing scfmi constraint to allow all rotations in the entire AO span
Doing General SCFMI
 Exchange:     0.1670 Hartree-Fock + 1.0000 wB97X-V + LR-HF
 Correlation:  1.0000 wB97X-V
 Using Euler-Maclaurin-Lebedev (99,590) quadrature formula
 Nonlocal Correlation:  VV10 with C = 0.0100 and b = 6.00 and scale = 1.00000
 Grid used for NLC:  SG-1 standard quadrature
performing fock build at end of subrot_r(subrot) constructor so that all methods have access
<S^2> of polarized wavefunction before ct-allowed iterations 0.0000000000
Beginning iterations for the determination of the CT-Allowed wavefunction
Energy prior to optimization (guess energy) = -474.833560232508
Begin Timing: Total SCF Calculation
begin iterations for algorithm: DIIS         
the SCF tolerance is set to 1.00e-08
    1    -474.8335602325      1.16e-04     00000 
    2    -474.8353182254      1.53e-05     00000 
    3    -474.8353816404      3.84e-06     00000 
    4    -474.8353837082      3.19e-06     00000 
    5    -474.8353847231      4.88e-07     00000 
    6    -474.8353847636      2.66e-07     00000 
    7    -474.8353847739      6.46e-08     00000 
    8    -474.8353847746      2.64e-08     00000 
    9    -474.8353847747      9.72e-09     00000 Convergence criterion met
write pseudocanon occs and virts to disk
write pseudocanon orbital energies to disk
Timing for Total SCF: 2368.00s (wall), 4715.07s (cpu)
<S^2> of ct_allowed wavefunction after ct-allowed iterations 0.0000000000

================================
        Results of EDA2         
================================
Basic EDA Quantities
--------------------
Fragment Energies (Ha):
1 -265.5692703230
2 -209.2532525931
--------------------
  E_prp (kJ/mol) = 0.0000
  E_sol (kJ/mol) = 17.7150
  E_frz (kJ/mol) = -22.9333
  E_pol (kJ/mol) = -1.8637
  E_vct (kJ/mol) = -4.7904
  E_int (kJ/mol) = -11.8724
--------------------


Initial Wavefunction Decomposition
--------------------
  --------------------
  Orthogonal Fragment Subspace Decomposition:
  --------------------
     E_elec   (ELEC)   (kJ/mol) = -49.2516
     E_pauli  (PAULI)  (kJ/mol) = 42.6523
     E_disp   (DISP)   (kJ/mol) = -16.3340
     --------------------
     Terms summing to E_pauli:
     --------------------
        E_kep_pauli       (kJ/mol) = 54.0711
        E_disp_free_pauli (kJ/mol) = -11.4188
  --------------------
  Classical Frozen Decomposition:
  --------------------
     E_cls_elec  (CLS ELEC)  (kJ/mol) = -30.8744
     E_cls_pauli (CLS PAULI) (kJ/mol) = 7.9411
    [E_mod_pauli (MOD PAULI) (kJ/mol) = 24.2751 (CLS PAULI - DISP from orthogonal decomposition) ]
  --------------------
--------------------

Simplified EDA Summary (kJ/mol)
--------------------
 PREPARATION     0.0000
 SOLVATION       17.7150
 FROZEN          -6.5993      (does not include dispersion)
[PAULI           42.6523]     (if this is negligible, then frozen describes electrostatics)
 DISPERSION      -16.3340
 POLARIZATION    -1.8637
 CHARGE TRANSFER -4.7904
 TOTAL           -11.8724     (PRP + SOL + FRZ + DISP + POL + CT)
--------------------
 
 --------------------------------------------------------------
 
                    Orbital Energies (a.u.)
 --------------------------------------------------------------
 
 Alpha MOs
 -- Occupied --
-19.1832 -14.4614 -14.4257 -14.3894 -10.3776 -10.3182 -10.2860 -10.2840
-10.2619 -10.2588  -1.1737  -1.1560  -1.0416  -0.9982  -0.8968  -0.8621
 -0.8237  -0.7249  -0.7073  -0.6898  -0.6614  -0.6515  -0.5906  -0.5664
 -0.5636  -0.5549  -0.5395  -0.5184  -0.5124  -0.4976  -0.4925  -0.4773
 -0.4765  -0.3849  -0.3831  -0.3806  -0.3727  -0.3213
 -- Virtual --
  0.0612   0.0809   0.0835   0.0889   0.0972   0.1050   0.1111   0.1134
  0.1177   0.1266   0.1342   0.1404   0.1426   0.1488   0.1552   0.1699
  0.1722   0.1792   0.1834   0.1862   0.1943   0.2057   0.2139   0.2189
  0.2292   0.2375   0.2409   0.2454   0.2534   0.2567   0.2638   0.2657
  0.2703   0.2808   0.2856   0.2889   0.2956   0.3001   0.3084   0.3123
  0.3218   0.3239   0.3267   0.3281   0.3348   0.3362   0.3401   0.3440
  0.3521   0.3547   0.3571   0.3600   0.3631   0.3648   0.3720   0.3746
  0.3829   0.3902   0.3911   0.3939   0.3985   0.4032   0.4094   0.4123
  0.4155   0.4225   0.4339   0.4391   0.4414   0.4429   0.4506   0.4551
  0.4624   0.4691   0.4717   0.4765   0.4774   0.4832   0.4877   0.4937
  0.4966   0.4999   0.5069   0.5094   0.5156   0.5207   0.5349   0.5379
  0.5455   0.5475   0.5571   0.5610   0.5681   0.5713   0.5765   0.5869
  0.5951   0.5987   0.6018   0.6059   0.6070   0.6194   0.6247   0.6276
  0.6372   0.6449   0.6486   0.6551   0.6716   0.6804   0.6838   0.6880
  0.6916   0.7037   0.7074   0.7096   0.7228   0.7296   0.7331   0.7420
  0.7467   0.7555   0.7572   0.7618   0.7674   0.7743   0.7788   0.7860
  0.7957   0.7987   0.8053   0.8070   0.8119   0.8224   0.8275   0.8372
  0.8393   0.8485   0.8530   0.8609   0.8636   0.8737   0.8800   0.8917
  0.9050   0.9085   0.9112   0.9209   0.9353   0.9407   0.9550   0.9656
  0.9813   0.9898   0.9979   1.0191   1.0236   1.0315   1.0377   1.0427
  1.0476   1.0574   1.0772   1.0831   1.0975   1.1017   1.1112   1.1256
  1.1391   1.1576   1.1651   1.1786   1.1898   1.2083   1.2142   1.2386
  1.2401   1.2579   1.2849   1.2907   1.2953   1.3215   1.3361   1.3454
  1.3563   1.3699   1.3743   1.3800   1.3879   1.4189   1.4346   1.4663
  1.4799   1.4983   1.5249   1.5380   1.5568   1.5913   1.6136   1.6286
  1.6726   1.6836   1.6988   1.7052   1.7202   1.7428   1.7559   1.7866
  1.8070   1.8416   1.8559   1.8661   1.8815   1.8853   1.8977   1.9078
  1.9130   1.9319   1.9428   1.9439   1.9583   1.9721   1.9778   1.9802
  1.9908   2.0042   2.0201   2.0242   2.0398   2.0463   2.0681   2.0727
  2.1007   2.1103   2.1182   2.1435   2.1533   2.1596   2.1880   2.2088
  2.2433   2.2460   2.2744   2.2940   2.3029   2.3115   2.3368   2.3507
  2.3717   2.4189   2.4223   2.4320   2.4406   2.4652   2.4664   2.4961
  2.5035   2.5291   2.5394   2.5522   2.5818   2.6022   2.6061   2.6207
  2.6306   2.6427   2.6474   2.6758   2.6829   2.6961   2.7232   2.7362
  2.7514   2.7733   2.7841   2.8145   2.8195   2.8561   2.8745   2.8814
  2.8890   2.8959   2.9189   2.9401   2.9585   2.9780   3.0017   3.0100
  3.0477   3.0645   3.0709   3.1029   3.1160   3.1238   3.1247   3.1465
  3.1716   3.1757   3.1878   3.1925   3.2120   3.2299   3.2355   3.2551
  3.2730   3.2904   3.3016   3.3067   3.3195   3.3391   3.3441   3.3529
  3.3682   3.3724   3.3828   3.3853   3.4085   3.4200   3.4241   3.4315
  3.4599   3.4843   3.4929   3.5105   3.5175   3.5306   3.5468   3.5559
  3.5861   3.6024   3.6088   3.6282   3.6441   3.6588   3.6724   3.6820
  3.6936   3.7005   3.7549   3.7662   3.8003   3.8266   3.8370   3.8893
  3.8995   3.9418   3.9551   3.9779   3.9929   4.0344   4.0636   4.0776
  4.0958   4.1203   4.1315   4.1547   4.2043   4.2758   4.3039   4.3493
  4.3756   4.4339   4.4435   4.4702   4.5167   4.5357   4.6059   4.6209
  4.6255   4.6468   4.6900   4.7537   4.7885   4.8018   4.8311   4.8385
  4.8884   4.9167   4.9519   4.9691   4.9908   4.9947   5.0454   5.0596
  5.0754   5.1176   5.1762   5.1944   5.1992   5.2285   5.2613   5.2781
  5.3386   5.3784   5.3859   5.3971   5.4220   5.4752   5.4857   5.5046
  5.5456   5.5538   5.5628   5.5946   5.6197   5.6791   5.7189   5.7707
  5.7955   5.8274   5.8913   5.9309   6.0631   6.1877   6.2500   6.2530
  6.2913   6.5367   6.6710   6.7641   6.8313   6.9803   7.2573   7.3239
 22.6018  22.6482  22.9332  23.1537  23.4004  23.5982  32.5730  32.6700
 32.8085  44.3392
 --------------------------------------------------------------
 
          Ground-State Mulliken Net Atomic Charges

     Atom                 Charge (a.u.)
  ----------------------------------------
      1 C                    -0.873996
      2 C                     0.630343
      3 C                    -0.297236
      4 C                    -0.666544
      5 N                    -0.520895
      6 N                     0.088410
      7 H                     0.337279
      8 H                     0.242008
      9 H                     0.250368
     10 H                     0.191649
     11 H                     0.338719
     12 H                     0.290263
     13 C                    -0.769194
     14 C                     0.547362
     15 O                    -0.691603
     16 N                    -0.131818
     17 H                     0.065049
     18 H                     0.229653
     19 H                     0.249713
     20 H                     0.219349
     21 H                     0.271122
  ----------------------------------------
  Sum of atomic charges =     0.000000

 -----------------------------------------------------------------
                    Cartesian Multipole Moments
 -----------------------------------------------------------------
    Charge (ESU x 10^10)
                -0.0000
    Dipole Moment (Debye)
         X      -1.8034      Y       4.0519      Z       0.5991
       Tot       4.4754
    Quadrupole Moments (Debye-Ang)
        XX     -35.5086     XY       5.3371     YY     -59.5631
        XZ       6.1327     YZ       4.8393     ZZ     -68.7915
    Octopole Moments (Debye-Ang^2)
       XXX       3.2360    XXY     -16.8871    XYY       2.4839
       YYY      13.3921    XXZ      29.6403    XYZ      13.3090
       YYZ      -4.5133    XZZ      -7.8661    YZZ      13.3839
       ZZZ      10.6837
    Hexadecapole Moments (Debye-Ang^3)
      XXXX    -952.1970   XXXY    -218.5738   XXYY    -297.4691
      XYYY    -240.3113   YYYY    -797.0379   XXXZ     214.2142
      XXYZ      89.7013   XYYZ      57.8738   YYYZ     264.9751
      XXZZ    -276.2598   XYZZ     -75.6538   YYZZ    -255.2214
      XZZZ     195.9165   YZZZ     268.2506   ZZZZ    -687.5175
 -----------------------------------------------------------------
Archival summary:
1\1\nid00552\SP\ProcedureUnspecified\BasisUnspecified\13611\meili\SunSep2621:28:522021SunSep2621:28:522021\0\\#,ProcedureUnspecified,BasisUnspecified,\\0,1\N\C,1,1.32649\H,2,1.08286,1,121.678\N,2,1.33055,1,108.941,3,-179.987,0\H,4,1.01406,2,125.996,1,-179.688,0\C,4,1.36564,2,108.869,1,0.623338,0\H,6,1.07488,4,122.001,2,179.788,0\C,6,1.36244,4,107.053,2,-0.406301,0\C,8,1.50145,6,130.653,4,178.862,0\H,9,1.08896,8,107.173,6,-75.5164,0\H,9,1.09528,8,106.557,6,168.015,0\H,9,1.1,8,115.242,6,47.4865,0\H,1,2.30702,2,108.149,3,94.6962,0\N,13,1.01227,1,172.031,2,-46.2577,0\H,14,1.0113,13,120.564,1,-144.747,0\C,14,1.32621,13,119.503,1,35.0192,0\O,16,1.23251,14,123.153,13,0.665186,0\C,16,1.51501,14,115.924,13,-179.79,0\H,18,1.09013,16,108.419,14,-94.0043,0\H,18,1.09053,16,108.372,14,24.353,0\H,18,1.1,16,112.874,14,144.596,0\\\@

 Total job time:  30509.93s(wall), 20676.84s(cpu) 
 Sun Sep 26 21:28:53 2021

        *************************************************************
        *                                                           *
        *  Thank you very much for using Q-Chem.  Have a nice day.  *
        *                                                           *
        *************************************************************


