
Running Job 1 of 1 SSI-090TYR-112GLU-1_PCM_TZVPD.in
qchem SSI-090TYR-112GLU-1_PCM_TZVPD.in_21379.0 /tmp/qchem21379/ 0
/global/common/cori/software/qchem/5.2/exe/qcprog.exe_s SSI-090TYR-112GLU-1_PCM_TZVPD.in_21379.0 /tmp/qchem21379/
                  Welcome to Q-Chem
     A Quantum Leap Into The Future Of Chemistry


 Q-Chem 5.2, Q-Chem, Inc., Pleasanton, CA (2019)

 License issued to: National Energy Research Scientific Computing Center

 Yihan Shao,  Zhengting Gan,  E. Epifanovsky,  A. T. B. Gilbert,  M. Wormit,  
 J. Kussmann,  A. W. Lange,  A. Behn,  Jia Deng,  Xintian Feng,  D. Ghosh,  
 M. Goldey,  P. R. Horn,  L. D. Jacobson,  I. Kaliman,  T. Kus,  A. Landau,  
 Jie Liu,  E. I. Proynov,  R. M. Richard,  R. P. Steele,  E. J. Sundstrom,  
 H. L. Woodcock III,  P. M. Zimmerman,  D. Zuev,  B. Albrecht,  E. Alguire,  
 S. A. Baeppler,  D. Barton,  Z. Benda,  Y. A. Bernard,  E. J. Berquist,  
 K. B. Bravaya,  H. Burton,  D. Casanova,  Chun-Min Chang,  Yunqing Chen,  
 A. Chien,  K. D. Closser,  M. P. Coons,  S. Coriani,  S. Dasgupta,  
 A. L. Dempwolff,  M. Diedenhofen,  Hainam Do,  R. G. Edgar,  Po-Tung Fang,  
 S. Faraji,  S. Fatehi,  Qingguo Feng,  K. D. Fenk,  J. Fosso-Tande,  
 J. Gayvert,  Qinghui Ge,  A. Ghysels,  G. Gidofalvi,  J. Gomes,  
 J. Gonthier,  A. Gunina,  D. Hait,  M. W. D. Hanson-Heine,  
 P. H. P. Harbach,  A. W. Hauser,  M. F. Herbst,  J. E. Herr,  
 E. G. Hohenstein,  Z. C. Holden,  Kerwin Hui,  B. C. Huynh,  T.-C. Jagau,  
 Hyunjun Ji,  B. Kaduk,  K. Khistyaev,  Jaehoon Kim,  P. Klunzinger,  K. Koh,  
 D. Kosenkov,  L. Koulias,  T. Kowalczyk,  C. M. Krauter,  A. Kunitsa,  
 Ka Un Lao,  A. Laurent,  K. V. Lawler,  Joonho Lee,  D. Lefrancois,  
 S. Lehtola,  D. S. Levine,  Yi-Pei Li,  You-Sheng Lin,  Fenglai Liu,  
 E. Livshits,  A. Luenser,  P. Manohar,  E. Mansoor,  S. F. Manzer,  
 Shan-Ping Mao,  Yuezhi Mao,  N. Mardirossian,  A. V. Marenich,  
 T. Markovich,  L. A. Martinez-Martinez,  S. A. Maurer,  N. J. Mayhall,  
 S. C. McKenzie,  J.-M. Mewes,  P. Morgante,  A. F. Morrison,  
 J. W. Mullinax,  K. Nanda,  T. S. Nguyen-Beck,  R. Olivares-Amaya,  
 J. A. Parkhill,  Zheng Pei,  T. M. Perrine,  F. Plasser,  P. Pokhilko,  
 S. Prager,  A. Prociuk,  E. Ramos,  D. R. Rehn,  F. Rob,  M. Scheurer,  
 M. Schneider,  N. Sergueev,  S. M. Sharada,  S. Sharma,  D. W. Small,  
 T. Stauch,  T. Stein,  Yu-Chuan Su,  A. J. W. Thom,  A. Tkatchenko,  
 T. Tsuchimochi,  N. M. Tubman,  L. Vogt,  M. L. Vidal,  O. Vydrov,  
 M. A. Watson,  J. Wenzel,  M. de Wergifosse,  T. A. Wesolowski,  A. White,  
 J. Witte,  A. Yamada,  Jun Yang,  K. Yao,  S. Yeganeh,  S. R. Yost,  
 Zhi-Qiang You,  A. Zech,  Igor Ying Zhang,  Xing Zhang,  Yan Zhao,  
 Ying Zhu,  B. R. Brooks,  G. K. L. Chan,  C. J. Cramer,  M. S. Gordon,  
 W. J. Hehre,  A. Klamt,  M. W. Schmidt,  C. D. Sherrill,  D. G. Truhlar,  
 A. Aspuru-Guzik,  R. Baer,  A. T. Bell,  N. A. Besley,  Jeng-Da Chai,  
 A. E. DePrince, III,  R. A. DiStasio Jr.,  A. Dreuw,  B. D. Dunietz,  
 T. R. Furlani,  Chao-Ping Hsu,  Yousung Jung,  Jing Kong,  D. S. Lambrecht,  
 WanZhen Liang,  C. Ochsenfeld,  V. A. Rassolov,  L. V. Slipchenko,  
 J. E. Subotnik,  T. Van Voorhis,  J. M. Herbert,  A. I. Krylov,  
 P. M. W. Gill,  M. Head-Gordon

 Contributors to earlier versions of Q-Chem not listed above: 
 R. D. Adamson,  B. Austin,  J. Baker,  G. J. O. Beran,  K. Brandhorst,  
 S. T. Brown,  E. F. C. Byrd,  A. K. Chakraborty,  C.-L. Cheng,  
 Siu Hung Chien,  D. M. Chipman,  D. L. Crittenden,  H. Dachsel,  
 R. J. Doerksen,  A. D. Dutoi,  L. Fusti-Molnar,  W. A. Goddard III,  
 A. Golubeva-Zadorozhnaya,  S. R. Gwaltney,  G. Hawkins,  A. Heyden,  
 S. Hirata,  G. Kedziora,  F. J. Keil,  C. Kelley,  Jihan Kim,  R. A. King,  
 R. Z. Khaliullin,  P. P. Korambath,  W. Kurlancheek,  A. M. Lee,  M. S. Lee,  
 S. V. Levchenko,  Ching Yeh Lin,  D. Liotard,  R. C. Lochan,  I. Lotan,  
 P. E. Maslen,  N. Nair,  D. P. O'Neill,  D. Neuhauser,  E. Neuscamman,  
 C. M. Oana,  R. Olson,  B. Peters,  R. Peverati,  P. A. Pieniazek,  
 Y. M. Rhee,  J. Ritchie,  M. A. Rohrdanz,  E. Rosta,  N. J. Russ,  
 H. F. Schaefer III,  N. E. Schultz,  N. Shenvi,  A. C. Simmonett,  A. Sodt,  
 D. Stuck,  K. S. Thanthiriwatte,  V. Vanovschi,  Tao Wang,  A. Warshel,  
 C. F. Williams,  Q. Wu,  X. Xu,  W. Zhang

 Please cite Q-Chem as follows:
 Y. Shao et al., Mol. Phys. 113, 184-215 (2015)
 DOI: 10.1080/00268976.2014.952696

 Q-Chem 5.2.0 for Intel X86 EM64T Linux

 Parts of Q-Chem use Armadillo 8.300.2 (Tropical Shenanigans).
 http://arma.sourceforge.net/

 Q-Chem begins on Sun Sep 26 12:24:55 2021  

Host: cori01
0

     Scratch files written to /tmp/qchem21379//
 May1019 |scratch|qcdevops|jenkins|workspace|build_RNUM -1
Processing $rem in /global/common/cori/software/qchem/5.2/config/preferences:
	 MEM_TOTAL  96000 
NAlpha2: 98
NElect   98
Mult     1
Symmetry turned off for PCM/SM12/SMD calculation

 Q-Chem warning in module libgen/rem_setup.C, line 2803:

 Neither GIA nor STOLL is specified by user. Use STOLL as the default


Checking the input file for inconsistencies... 	...done.

--------------------------------------------------------------
User input:
--------------------------------------------------------------
$comment
SSI-090TYR-112GLU-1.pdb
$end

$molecule
-1 1
--
0 1
C    4.598385747087   -1.370536585870   -0.675610058505
C    0.904385747087    0.786463414130   -0.143610058505
C    2.034385747087    1.445463414130   -0.602610058505
C    0.958385747087   -0.580536585870    0.135389941495
C    3.222385747087    0.739463414130   -0.789610058505
C    2.159385747087   -1.278536585870   -0.038610058505
C    3.297385747087   -0.625536585870   -0.509610058505
O   -0.237614252913    1.497463414130    0.021389941495
H   -0.105614252913    2.433463414130   -0.133610058505
H    1.995385747087    2.504463414130   -0.805610058505
H    0.074385747087   -1.086536585870    0.491389941495
H    4.107385747087    1.260463414130   -1.127610058505
H    2.201385747087   -2.334536585870    0.189389941495
H    5.074385747087   -1.067536585870   -1.603610058505
H    4.376385747087   -2.434536585870   -0.770610058505
H    5.285415747087   -1.236848585870    0.172989941495
--
-1 1
C   -3.225614252913    0.363463414130   -0.466610058505
C   -3.359614252913   -0.886536585870   -1.321610058505
C   -3.001614252913    0.018463414130    0.995389941495
O   -3.887614252913   -0.640536585870    1.585389941495
O   -1.961614252913    0.413463414130    1.558389941495
H   -2.434614252913    1.003463414130   -0.836610058505
H   -4.153614252913    0.935463414130   -0.554610058505
H   -4.205614252913   -1.481536585870   -0.975610058505
H   -2.450614252913   -1.478536585870   -1.207610058505
H   -3.509366252913   -0.648229585870   -2.384990058505
$end

$rem
JOBTYPE			EDA
EDA2			1
method			wB97X-V
BASIS			def2-TZVPD
XC_GRID			000099000590
NL_GRID			1
UNRESTRICTED		FALSE
MAX_SCF_CYCLES		200
SYMMETRY		FALSE
SYM_IGNORE		TRUE
MEM_STATIC		2000
BASIS_LIN_DEP_THRESH 	6
THRESH 			14
SCF_CONVERGENCE 	8
SCF_PRINT_FRGM 		TRUE
SOLVENT_METHOD          PCM
$end

$PCM
THEORY                  CPCM
METHOD                  SWIG
SOLVER                  INVERSION
RADII                   UFF
HPOINTS                 302
HEAVYPOINTS             302
PRINTLEVEL              0
$END

$SOLVENT
DIELECTRIC              78.390000 ! water
$END
--------------------------------------------------------------
 ----------------------------------------------------------------
             Standard Nuclear Orientation (Angstroms)
    I     Atom           X                Y                Z
 ----------------------------------------------------------------
    1      C       4.5983857471    -1.3705365859    -0.6756100585
    2      C       0.9043857471     0.7864634141    -0.1436100585
    3      C       2.0343857471     1.4454634141    -0.6026100585
    4      C       0.9583857471    -0.5805365859     0.1353899415
    5      C       3.2223857471     0.7394634141    -0.7896100585
    6      C       2.1593857471    -1.2785365859    -0.0386100585
    7      C       3.2973857471    -0.6255365859    -0.5096100585
    8      O      -0.2376142529     1.4974634141     0.0213899415
    9      H      -0.1056142529     2.4334634141    -0.1336100585
   10      H       1.9953857471     2.5044634141    -0.8056100585
   11      H       0.0743857471    -1.0865365859     0.4913899415
   12      H       4.1073857471     1.2604634141    -1.1276100585
   13      H       2.2013857471    -2.3345365859     0.1893899415
   14      H       5.0743857471    -1.0675365859    -1.6036100585
   15      H       4.3763857471    -2.4345365859    -0.7706100585
   16      H       5.2854157471    -1.2368485859     0.1729899415
   17      C      -3.2256142529     0.3634634141    -0.4666100585
   18      C      -3.3596142529    -0.8865365859    -1.3216100585
   19      C      -3.0016142529     0.0184634141     0.9953899415
   20      O      -3.8876142529    -0.6405365859     1.5853899415
   21      O      -1.9616142529     0.4134634141     1.5583899415
   22      H      -2.4346142529     1.0034634141    -0.8366100585
   23      H      -4.1536142529     0.9354634141    -0.5546100585
   24      H      -4.2056142529    -1.4815365859    -0.9756100585
   25      H      -2.4506142529    -1.4785365859    -1.2076100585
   26      H      -3.5093662529    -0.6482295859    -2.3849900585
 ----------------------------------------------------------------
 Nuclear Repulsion Energy =         745.24139733 hartrees
 There are       49 alpha and       49 beta electrons
 Requested basis set is def2-TZVPD
 There are 237 shells and 607 basis functions

 Total QAlloc Memory Limit  96000 MB
 Mega-Array Size      1956 MB
 MEM_STATIC part      2000 MB
 Discretize the solute cavity surface with Lebedev spheres
	Using 302 Lebedev grid points for each H atom
	Using 302 Lebedev grid points for other atoms
	Atomic van der Waals radii will be scaled by 1.20
 Remove points where switching function is < 1.0e-08
 Keep 2926 surface tesserae and discard 4926 interior tesserae
 Molecular Surface Area = 292.789 Angst**2
 A cutoff of  1.0D-14 yielded  23930 shell pairs
 There are    157872 function pairs (    199684 Cartesian)
 Smallest overlap matrix eigenvalue = 4.77E-07
 Linear dependence detected in AO basis
 Tighter screening thresholds may be required for diffuse basis sets
 Use S2THRESH > 14 and THRESH = 14 in case of SCF convergence issues
 Number of orthogonalized atomic orbitals = 605
 Maximum deviation from orthogonality = 2.429E-10

 Scale SEOQF with 1.000000e-02/1.000000e-01/1.000000e-01

 Standard Electronic Orientation quadrupole field applied
 Nucleus-field energy     =     0.0000000019 hartrees

 -----------------------------------------------------------------------
  General SCF calculation program by
  Eric Jon Sundstrom, Paul Horn, Yuezhi Mao, Dmitri Zuev, Alec White,
  David Stuck, Shaama M.S., Shane Yost, Joonho Lee, David Small,
  Daniel Levine, Susi Lehtola, Hugh Burton, Evgeny Epifanovsky
 -----------------------------------------------------------------------
================================================================
                 ALMO-EDA with the EDA2 driver                  
================================================================
 The second-generation ALMO-EDA (for DFT):                      
 P. R. Horn, Y. Mao and M. Head-Gordon, PCCP, 18, 23067 (2016)  
 Decomposition of the frozen energy:                            
 P. R. Horn, Y. Mao and M. Head-Gordon, JCP, 144, 114107 (2016) 
 FERF model for polarization:                                   
 P. R. Horn and M. Head-Gordon, JCP, 143, 114111 (2015)         
Using eda2 option set 1
Option set summary: Frozen orbital wavefunction, initial wavefunction decomposition, and nDQ polarization.
--------------------------------
Printing EDA Options
--------------------------------
eda_child_super_basis      0
fragmo_guess_mode          0
child_mp                   1
child_mp_orders            232
cls_elec                   1
cls_disp                   0
scfmi_mode                 1
scfmi_occs                 0
scfmi_virts                0
frz_relax                  0
frz_relax_method           0
dc_pen_start               0
dc_pen_conv                0
dc_pen_increment           0
dc_pen_steps               0
dc_pen_thresh_factor       0
dc_pen_pre_newton_thresh   0
frz_ortho_decomp           1
frz_ortho_decomp_conv      6
frgm_method                2
scfmi_freeze_ss            0
separate_rehyb             0
plot_diff_den              0
eda_nocv                   0
eda_vct_relax              1
disp_free_x                0
disp_free_c                0
eda_bsse                   0
eda_pct_a                  0
eda_covp                   0
--------------------------------
Attempting to make child job directory: /tmp/qchem21379//Frg1/
Attempting to make child job directory: /tmp/qchem21379//Frg2/
Creating input file /tmp/qchem21379/Frg1.input
using default PutDataFrgm: nothing
calling putenv with: QCSCRATCH=/tmp/qchem21379/ 
calling putenv with: QCLOCALSCR=/tmp/qchem21379/ 
Spawning Job For Fragment 0
                  Welcome to Q-Chem
     A Quantum Leap Into The Future Of Chemistry


 Q-Chem 5.2, Q-Chem, Inc., Pleasanton, CA (2019)

 License issued to: National Energy Research Scientific Computing Center

 Yihan Shao,  Zhengting Gan,  E. Epifanovsky,  A. T. B. Gilbert,  M. Wormit,  
 J. Kussmann,  A. W. Lange,  A. Behn,  Jia Deng,  Xintian Feng,  D. Ghosh,  
 M. Goldey,  P. R. Horn,  L. D. Jacobson,  I. Kaliman,  T. Kus,  A. Landau,  
 Jie Liu,  E. I. Proynov,  R. M. Richard,  R. P. Steele,  E. J. Sundstrom,  
 H. L. Woodcock III,  P. M. Zimmerman,  D. Zuev,  B. Albrecht,  E. Alguire,  
 S. A. Baeppler,  D. Barton,  Z. Benda,  Y. A. Bernard,  E. J. Berquist,  
 K. B. Bravaya,  H. Burton,  D. Casanova,  Chun-Min Chang,  Yunqing Chen,  
 A. Chien,  K. D. Closser,  M. P. Coons,  S. Coriani,  S. Dasgupta,  
 A. L. Dempwolff,  M. Diedenhofen,  Hainam Do,  R. G. Edgar,  Po-Tung Fang,  
 S. Faraji,  S. Fatehi,  Qingguo Feng,  K. D. Fenk,  J. Fosso-Tande,  
 J. Gayvert,  Qinghui Ge,  A. Ghysels,  G. Gidofalvi,  J. Gomes,  
 J. Gonthier,  A. Gunina,  D. Hait,  M. W. D. Hanson-Heine,  
 P. H. P. Harbach,  A. W. Hauser,  M. F. Herbst,  J. E. Herr,  
 E. G. Hohenstein,  Z. C. Holden,  Kerwin Hui,  B. C. Huynh,  T.-C. Jagau,  
 Hyunjun Ji,  B. Kaduk,  K. Khistyaev,  Jaehoon Kim,  P. Klunzinger,  K. Koh,  
 D. Kosenkov,  L. Koulias,  T. Kowalczyk,  C. M. Krauter,  A. Kunitsa,  
 Ka Un Lao,  A. Laurent,  K. V. Lawler,  Joonho Lee,  D. Lefrancois,  
 S. Lehtola,  D. S. Levine,  Yi-Pei Li,  You-Sheng Lin,  Fenglai Liu,  
 E. Livshits,  A. Luenser,  P. Manohar,  E. Mansoor,  S. F. Manzer,  
 Shan-Ping Mao,  Yuezhi Mao,  N. Mardirossian,  A. V. Marenich,  
 T. Markovich,  L. A. Martinez-Martinez,  S. A. Maurer,  N. J. Mayhall,  
 S. C. McKenzie,  J.-M. Mewes,  P. Morgante,  A. F. Morrison,  
 J. W. Mullinax,  K. Nanda,  T. S. Nguyen-Beck,  R. Olivares-Amaya,  
 J. A. Parkhill,  Zheng Pei,  T. M. Perrine,  F. Plasser,  P. Pokhilko,  
 S. Prager,  A. Prociuk,  E. Ramos,  D. R. Rehn,  F. Rob,  M. Scheurer,  
 M. Schneider,  N. Sergueev,  S. M. Sharada,  S. Sharma,  D. W. Small,  
 T. Stauch,  T. Stein,  Yu-Chuan Su,  A. J. W. Thom,  A. Tkatchenko,  
 T. Tsuchimochi,  N. M. Tubman,  L. Vogt,  M. L. Vidal,  O. Vydrov,  
 M. A. Watson,  J. Wenzel,  M. de Wergifosse,  T. A. Wesolowski,  A. White,  
 J. Witte,  A. Yamada,  Jun Yang,  K. Yao,  S. Yeganeh,  S. R. Yost,  
 Zhi-Qiang You,  A. Zech,  Igor Ying Zhang,  Xing Zhang,  Yan Zhao,  
 Ying Zhu,  B. R. Brooks,  G. K. L. Chan,  C. J. Cramer,  M. S. Gordon,  
 W. J. Hehre,  A. Klamt,  M. W. Schmidt,  C. D. Sherrill,  D. G. Truhlar,  
 A. Aspuru-Guzik,  R. Baer,  A. T. Bell,  N. A. Besley,  Jeng-Da Chai,  
 A. E. DePrince, III,  R. A. DiStasio Jr.,  A. Dreuw,  B. D. Dunietz,  
 T. R. Furlani,  Chao-Ping Hsu,  Yousung Jung,  Jing Kong,  D. S. Lambrecht,  
 WanZhen Liang,  C. Ochsenfeld,  V. A. Rassolov,  L. V. Slipchenko,  
 J. E. Subotnik,  T. Van Voorhis,  J. M. Herbert,  A. I. Krylov,  
 P. M. W. Gill,  M. Head-Gordon

 Contributors to earlier versions of Q-Chem not listed above: 
 R. D. Adamson,  B. Austin,  J. Baker,  G. J. O. Beran,  K. Brandhorst,  
 S. T. Brown,  E. F. C. Byrd,  A. K. Chakraborty,  C.-L. Cheng,  
 Siu Hung Chien,  D. M. Chipman,  D. L. Crittenden,  H. Dachsel,  
 R. J. Doerksen,  A. D. Dutoi,  L. Fusti-Molnar,  W. A. Goddard III,  
 A. Golubeva-Zadorozhnaya,  S. R. Gwaltney,  G. Hawkins,  A. Heyden,  
 S. Hirata,  G. Kedziora,  F. J. Keil,  C. Kelley,  Jihan Kim,  R. A. King,  
 R. Z. Khaliullin,  P. P. Korambath,  W. Kurlancheek,  A. M. Lee,  M. S. Lee,  
 S. V. Levchenko,  Ching Yeh Lin,  D. Liotard,  R. C. Lochan,  I. Lotan,  
 P. E. Maslen,  N. Nair,  D. P. O'Neill,  D. Neuhauser,  E. Neuscamman,  
 C. M. Oana,  R. Olson,  B. Peters,  R. Peverati,  P. A. Pieniazek,  
 Y. M. Rhee,  J. Ritchie,  M. A. Rohrdanz,  E. Rosta,  N. J. Russ,  
 H. F. Schaefer III,  N. E. Schultz,  N. Shenvi,  A. C. Simmonett,  A. Sodt,  
 D. Stuck,  K. S. Thanthiriwatte,  V. Vanovschi,  Tao Wang,  A. Warshel,  
 C. F. Williams,  Q. Wu,  X. Xu,  W. Zhang

 Please cite Q-Chem as follows:
 Y. Shao et al., Mol. Phys. 113, 184-215 (2015)
 DOI: 10.1080/00268976.2014.952696

 Q-Chem 5.2.0 for Intel X86 EM64T Linux

 Parts of Q-Chem use Armadillo 8.300.2 (Tropical Shenanigans).
 http://arma.sourceforge.net/

 Q-Chem begins on Sun Sep 26 12:25:03 2021  

Host: cori01
0

     Scratch files written to /tmp/qchem21379//Frg1//
 May1019 |scratch|qcdevops|jenkins|workspace|build_RNUM -1
Processing $rem in /global/common/cori/software/qchem/5.2/config/preferences:
	 MEM_TOTAL  96000 
NAlpha2: 58
NElect   58
Mult     1
Symmetry turned off for PCM/SM12/SMD calculation

Checking the input file for inconsistencies... 	...done.

--------------------------------------------------------------
User input:
--------------------------------------------------------------
$molecule
0 1
 6	4.5983857471	-1.3705365859	-0.6756100585
 6	0.9043857471	0.7864634141	-0.1436100585
 6	2.0343857471	1.4454634141	-0.6026100585
 6	0.9583857471	-0.5805365859	0.1353899415
 6	3.2223857471	0.7394634141	-0.7896100585
 6	2.1593857471	-1.2785365859	-0.0386100585
 6	3.2973857471	-0.6255365859	-0.5096100585
 8	-0.2376142529	1.4974634141	0.0213899415
 1	-0.1056142529	2.4334634141	-0.1336100585
 1	1.9953857471	2.5044634141	-0.8056100585
 1	0.0743857471	-1.0865365859	0.4913899415
 1	4.1073857471	1.2604634141	-1.1276100585
 1	2.2013857471	-2.3345365859	0.1893899415
 1	5.0743857471	-1.0675365859	-1.6036100585
 1	4.3763857471	-2.4345365859	-0.7706100585
 1	5.2854157471	-1.2368485859	0.1729899415
$end
$rem
EDA2		1
METHOD		WB97X-V
BASIS		DEF2-TZVPD
XC_GRID		000099000590
NL_GRID		1
UNRESTRICTED		FALSE
MAX_SCF_CYCLES		200
SYMMETRY		FALSE
SYM_IGNORE		TRUE
BASIS_LIN_DEP_THRESH		6
THRESH		14
SCF_CONVERGENCE		8
SCF_PRINT_FRGM		TRUE
SOLVENT_METHOD		PCM
!required keywords
JOBTYPE		SP
SYM_IGNORE		TRUE
SUBSYSTEM		TRUE
GEN_SCFMAN		TRUE
CHILD_INSTRUCTION		2
SYM_IGNORE		TRUE
SCFMI		0
RI_K 0		
PARI_K 0		
MIN_PARI_K 0		
IARI_K 0		
OCC_RI_K 0		
PURECART		1111
MEM_STATIC		2000
MEM_TOTAL		96000
GUI		0
CHILD_MP		1
CHILD_MP_ORDERS		232
FRZ_RELAX		0
FRZ_RELAX_METHOD		0
EDA_CLS_ELEC		1
EDA_CLS_DISP		0
FRZ_ORTHO_DECOMP		1
EDA2		FALSE
FRGM_METHOD		FALSE
CIS_N_ROOTS  0
LOCAL_CIS    0
CIS_RLX_DNS  1
$end
$pcm
THEORY                  CPCM
METHOD                  SWIG
SOLVER                  INVERSION
RADII                   UFF
HPOINTS                 302
HEAVYPOINTS             302
PRINTLEVEL              0
$end
$solvent
DIELECTRIC              78.390000 ! water
$end
--------------------------------------------------------------
 ----------------------------------------------------------------
             Standard Nuclear Orientation (Angstroms)
    I     Atom           X                Y                Z
 ----------------------------------------------------------------
    1      C       4.5983857471    -1.3705365859    -0.6756100585
    2      C       0.9043857471     0.7864634141    -0.1436100585
    3      C       2.0343857471     1.4454634141    -0.6026100585
    4      C       0.9583857471    -0.5805365859     0.1353899415
    5      C       3.2223857471     0.7394634141    -0.7896100585
    6      C       2.1593857471    -1.2785365859    -0.0386100585
    7      C       3.2973857471    -0.6255365859    -0.5096100585
    8      O      -0.2376142529     1.4974634141     0.0213899415
    9      H      -0.1056142529     2.4334634141    -0.1336100585
   10      H       1.9953857471     2.5044634141    -0.8056100585
   11      H       0.0743857471    -1.0865365859     0.4913899415
   12      H       4.1073857471     1.2604634141    -1.1276100585
   13      H       2.2013857471    -2.3345365859     0.1893899415
   14      H       5.0743857471    -1.0675365859    -1.6036100585
   15      H       4.3763857471    -2.4345365859    -0.7706100585
   16      H       5.2854157471    -1.2368485859     0.1729899415
 ----------------------------------------------------------------
 Nuclear Repulsion Energy =         343.20197781 hartrees
 There are       29 alpha and       29 beta electrons
 Requested basis set is def2-TZVPD
 There are 145 shells and 371 basis functions

 Total QAlloc Memory Limit  96000 MB
 Mega-Array Size      1956 MB
 MEM_STATIC part      2000 MB
 Discretize the solute cavity surface with Lebedev spheres
	Using 302 Lebedev grid points for each H atom
	Using 302 Lebedev grid points for other atoms
	Atomic van der Waals radii will be scaled by 1.20
 Remove points where switching function is < 1.0e-08
 Keep 1874 surface tesserae and discard 2958 interior tesserae
 Molecular Surface Area = 190.262 Angst**2
 A cutoff of  1.0D-14 yielded  10046 shell pairs
 There are     67096 function pairs (     85798 Cartesian)
 Smallest overlap matrix eigenvalue = 5.56E-07
 Linear dependence detected in AO basis
 Tighter screening thresholds may be required for diffuse basis sets
 Use S2THRESH > 14 and THRESH = 14 in case of SCF convergence issues
 Number of orthogonalized atomic orbitals = 370
 Maximum deviation from orthogonality = 2.422E-10

 Scale SEOQF with 1.000000e-02/1.000000e-01/1.000000e-01

 Standard Electronic Orientation quadrupole field applied
 Nucleus-field energy     =     0.0000000064 hartrees
 Guess from superposition of atomic densities
 Warning:  Energy on first SCF cycle will be non-variational
 SAD guess density has 57.738434 electrons

 -----------------------------------------------------------------------
  General SCF calculation program by
  Eric Jon Sundstrom, Paul Horn, Yuezhi Mao, Dmitri Zuev, Alec White,
  David Stuck, Shaama M.S., Shane Yost, Joonho Lee, David Small,
  Daniel Levine, Susi Lehtola, Hugh Burton, Evgeny Epifanovsky
 -----------------------------------------------------------------------
 Exchange:     0.1670 Hartree-Fock + 1.0000 wB97X-V + LR-HF
 Correlation:  1.0000 wB97X-V
 Using Euler-Maclaurin-Lebedev (99,590) quadrature formula
 Nonlocal Correlation:  VV10 with C = 0.0100 and b = 6.00 and scale = 1.00000
 Grid used for NLC:  SG-1 standard quadrature
Energy prior to optimization (guess energy) = -346.498122376983
Begin Timing: Total SCF Calculation
begin iterations for algorithm: DIIS         
the SCF tolerance is set to 1.00e-08
    1    -346.4981223770      5.16e-03     00000 
    2    -346.4396637780      5.55e-03     00000 
    3    -346.8114236169      5.28e-04     00000 
    4    -346.8154394012      1.79e-04     00000 
    5    -346.8160379915      2.47e-05     00000 
    6    -346.8160569105      1.25e-05     00000 
    7    -346.8160601480      3.90e-06     00000 
    8    -346.8160605797      1.27e-06     00000 
    9    -346.8160606427      5.80e-07     00000 
   10    -346.8160606549      1.55e-07     00000 
   11    -346.8160606574      6.80e-08     00000 
   12    -346.8160606577      3.48e-08     00000 
   13    -346.8160606578      7.63e-09     00000 Convergence criterion met
Timing for Total SCF: 2073.00s (wall), 4114.91s (cpu)

************** Final PCM Free Energy Summary **************
 G_electrostatic  =      -0.00559124 hartree =      -3.50855747 kcal/mol
 G_cavitation     =       0.00000000 hartree =       0.00000000 kcal/mol
 G_dispersion     =       0.00000000 hartree =       0.00000000 kcal/mol
 G_repulsion      =       0.00000000 hartree =       0.00000000 kcal/mol
 --------------------------------------------------
 Non-electrostatic Free Energy =       0.00000000 hartree =       0.00000000 kcal/mol
 Total                         =      -0.00559124 hartree =      -3.50855747 kcal/mol
 --------------------------------------------------
 SCF Energy (H0 + V/2)                       =    -346.81606066 
 Solute Internal Energy (H0)                 =    -346.81046942 
 Total Free Energy (H0 + V/2 + non-elec)     =    -346.81606066 hartree
                                             = -217630.36275765 kcal/mol
***********************************************************

E_pcm = -0.0055912423
Multipole orders to be included
        2
        3
computing dipole RHS
computing quadrupole RHS
total number of RHS in solve_reponses: 8
RHS batch sizes
        8
Beginning Block Conjugate Gradient Iterations. Batch Number: 0
computing hessian-vector products by finite difference
              1      6.22e-01     00000 Conjugate Gradient Iteration
computing hessian-vector products by finite difference
              2      1.94e-01     00000 Conjugate Gradient Iteration
computing hessian-vector products by finite difference
              3      5.09e-02     00000 Conjugate Gradient Iteration
computing hessian-vector products by finite difference
              4      1.51e-02     00000 Conjugate Gradient Iteration
computing hessian-vector products by finite difference
              5      4.38e-03     00000 Conjugate Gradient Iteration
computing hessian-vector products by finite difference
              6      1.58e-03     00000 Conjugate Gradient Iteration
computing hessian-vector products by finite difference
              7      3.89e-04     00000 Conjugate Gradient Iteration
computing hessian-vector products by finite difference
              8      7.17e-05     00000 Conjugate Gradient Iteration
computing hessian-vector products by finite difference
              9      1.26e-05     00000 Conjugate Gradient Iteration
computing hessian-vector products by finite difference
             10      1.59e-06     00000 Conjugate Gradient Iteration
computing hessian-vector products by finite difference
             11      2.41e-07     00000 Conjugate Gradient Iteration
computing hessian-vector products by finite difference
             12      4.21e-08     00000 Conjugate Gradient Iteration
computing hessian-vector products by finite difference
             13      8.54e-09     00000 CG Converged
batch 0 complete
Done Calculating Responses
TESTING ORTHOGONALIZATION OF MULTIPOLE BASIS
Multipole virts passed orthogonality test
Virts Per Order
           87
          145
 
 --------------------------------------------------------------
 
                    Orbital Energies (a.u.)
 --------------------------------------------------------------
 
 Alpha MOs
 -- Occupied --
-19.2449 -10.3356 -10.2762 -10.2756 -10.2745 -10.2730 -10.2712 -10.2610
 -1.1995  -0.9949  -0.9020  -0.8836  -0.8111  -0.7499  -0.7160  -0.6680
 -0.6041  -0.5816  -0.5515  -0.5431  -0.5339  -0.5236  -0.5103  -0.4766
 -0.4557  -0.4440  -0.4404  -0.3523  -0.3134
 -- Virtual --
  0.0575   0.0582   0.0683   0.0783   0.0831   0.0944   0.1084   0.1102
  0.1138   0.1311   0.1442   0.1516   0.1538   0.1693   0.1753   0.1917
  0.2006   0.2035   0.2163   0.2237   0.2340   0.2398   0.2496   0.2516
  0.2631   0.2660   0.2721   0.2730   0.2813   0.2952   0.2955   0.3013
  0.3040   0.3087   0.3111   0.3233   0.3324   0.3400   0.3440   0.3491
  0.3541   0.3562   0.3613   0.3714   0.3752   0.3787   0.3816   0.3927
  0.3932   0.3951   0.3976   0.4074   0.4142   0.4208   0.4242   0.4313
  0.4352   0.4532   0.4556   0.4579   0.4713   0.4725   0.4761   0.4807
  0.4874   0.4930   0.4973   0.5032   0.5119   0.5141   0.5253   0.5360
  0.5400   0.5482   0.5492   0.5569   0.5620   0.5670   0.5818   0.5954
  0.5974   0.6074   0.6150   0.6298   0.6367   0.6568   0.6658   0.6702
  0.6751   0.6826   0.6897   0.6939   0.6991   0.7008   0.7160   0.7284
  0.7306   0.7403   0.7445   0.7494   0.7571   0.7730   0.7812   0.7844
  0.7871   0.7904   0.7938   0.7982   0.8049   0.8103   0.8291   0.8371
  0.8422   0.8471   0.8532   0.8555   0.8651   0.8747   0.8823   0.8901
  0.9006   0.9112   0.9278   0.9490   0.9594   0.9753   0.9912   1.0121
  1.0174   1.0366   1.0399   1.0489   1.0551   1.0737   1.0749   1.0861
  1.1001   1.1186   1.1364   1.1683   1.1961   1.2320   1.2639   1.2936
  1.3035   1.3142   1.3278   1.3541   1.3649   1.3868   1.3898   1.4294
  1.4564   1.4690   1.4701   1.4818   1.5276   1.5635   1.6037   1.6187
  1.6289   1.6386   1.6812   1.6834   1.7031   1.7239   1.7833   1.7993
  1.8169   1.8294   1.8327   1.8610   1.8653   1.8812   1.9180   1.9274
  1.9384   1.9527   1.9707   1.9892   1.9954   2.0296   2.0339   2.0518
  2.0575   2.0717   2.0897   2.1044   2.1165   2.1521   2.1940   2.2088
  2.2191   2.2339   2.2749   2.2802   2.3070   2.3137   2.3451   2.3643
  2.3984   2.4071   2.4353   2.4666   2.4824   2.4922   2.5224   2.5562
  2.5771   2.6035   2.6120   2.6400   2.6489   2.6732   2.6859   2.7438
  2.7510   2.7607   2.7738   2.7991   2.8197   2.8324   2.8614   2.8777
  2.9066   2.9187   2.9395   2.9500   2.9622   2.9749   2.9769   3.0089
  3.0147   3.0397   3.0711   3.0820   3.1014   3.1241   3.1444   3.1672
  3.1796   3.2018   3.2198   3.2218   3.2443   3.2561   3.2804   3.2913
  3.3209   3.3552   3.3808   3.3851   3.3929   3.4142   3.4478   3.4574
  3.4644   3.4734   3.4895   3.5137   3.5205   3.5285   3.5365   3.5444
  3.5519   3.5699   3.5786   3.5885   3.5972   3.6229   3.6502   3.6699
  3.6844   3.7051   3.7368   3.7523   3.8005   3.8224   3.8451   3.8894
  3.9360   3.9587   3.9774   3.9906   4.0395   4.0839   4.1392   4.1769
  4.2464   4.2668   4.2837   4.3048   4.3161   4.3256   4.3352   4.3593
  4.3697   4.3968   4.4287   4.4524   4.4952   4.5372   4.5946   4.6066
  4.7325   4.7415   4.7864   4.8155   4.8660   4.9225   5.0268   5.0560
  5.0846   5.1262   5.1612   5.2994   5.3307   5.4037   5.4474   5.5380
  5.6161   5.6499   5.7162   5.7601   5.9607   6.2239   6.5068   6.5964
  6.6430   6.8776   7.0222   7.2993   7.4608  22.6669  22.6804  22.9374
 22.9828  23.0269  23.1927  23.5172  44.4245
 --------------------------------------------------------------
 
          Ground-State Mulliken Net Atomic Charges

     Atom                 Charge (a.u.)
  ----------------------------------------
      1 C                    -1.030591
      2 C                     0.833679
      3 C                    -0.349496
      4 C                    -0.783288
      5 C                    -0.636533
      6 C                    -0.411769
      7 C                     0.563310
      8 O                    -0.483514
      9 H                     0.288935
     10 H                     0.276214
     11 H                     0.333018
     12 H                     0.331597
     13 H                     0.307295
     14 H                     0.272563
     15 H                     0.276063
     16 H                     0.212513
  ----------------------------------------
  Sum of atomic charges =     0.000000

 -----------------------------------------------------------------
                    Cartesian Multipole Moments
 -----------------------------------------------------------------
    Charge (ESU x 10^10)
                -0.0000
    Dipole Moment (Debye)
         X       1.2746      Y       1.1378      Z      -0.3837
       Tot       1.7511
    Quadrupole Moments (Debye-Ang)
        XX     -43.3240     XY       0.5447     YY     -37.5724
        XZ      -1.8720     YZ      -2.4205     ZZ     -50.6652
    Octopole Moments (Debye-Ang^2)
       XXX    -287.7277    XXY      -3.6518    XYY     -95.9519
       YYY      15.8306    XXZ       7.2394    XYZ      -3.2277
       YYZ      12.6414    XZZ    -108.3840    YZZ      -1.2375
       ZZZ      50.8432
    Hexadecapole Moments (Debye-Ang^3)
      XXXX   -2014.9019   XXXY     135.1820   XXYY    -416.2023
      XYYY     132.4745   YYYY    -385.4232   XXXZ     133.8151
      XXYZ      -9.4296   XYYZ      50.5320   YYYZ      -6.2405
      XXZZ    -378.3572   XYZZ      47.7237   YYZZ    -105.0225
      XZZZ     174.7903   YZZZ       8.9968   ZZZZ    -140.2049
 -----------------------------------------------------------------
Archival summary:
1\1\nid00556\SP\ProcedureUnspecified\BasisUnspecified\178\meili\SunSep2623:24:392021SunSep2623:24:392021\0\\#,ProcedureUnspecified,BasisUnspecified,\\0,1\C\O,1,1.35533\H,2,0.957886,1,112.135\C,1,1.38631,2,118.539,3,-5.18531,0\H,4,1.07899,1,119.959,2,0.921521,0\C,4,1.39454,1,119.876,2,-179.64,0\H,6,1.08116,4,119.689,1,-178.705,0\C,6,1.39544,4,120.937,1,-0.578246,0\C,8,1.39402,6,118.825,4,0.0834397,0\H,9,1.08115,8,119.806,6,-179.61,0\C,1,1.39623,2,121.458,3,174.933,0\H,11,1.07899,1,119.563,2,-0.0609026,0\C,8,1.50837,6,120.492,4,-178.135,0\H,13,1.08608,8,109.528,6,-43.3671,0\H,13,1.09106,8,108.406,6,-159.393,0\H,13,1.1,8,113.19,6,80.5296,0\\\@

 Total job time:  39579.85s(wall), 78630.14s(cpu) 
 Sun Sep 26 23:24:42 2021

        *************************************************************
        *                                                           *
        *  Thank you very much for using Q-Chem.  Have a nice day.  *
        *                                                           *
        *************************************************************


Done Job For Fragment 0
calling putenv with: QCSCRATCH=/global/cscratch1/sd/meili 
calling putenv with: QCLOCALSCR=/tmp 
calling putenv with: QCTHREADS=32 
Creating input file /tmp/qchem21379/Frg2.input
using default PutDataFrgm: nothing
calling putenv with: QCSCRATCH=/tmp/qchem21379/ 
calling putenv with: QCLOCALSCR=/tmp/qchem21379/ 
Spawning Job For Fragment 1
                  Welcome to Q-Chem
     A Quantum Leap Into The Future Of Chemistry


 Q-Chem 5.2, Q-Chem, Inc., Pleasanton, CA (2019)

 License issued to: National Energy Research Scientific Computing Center

 Yihan Shao,  Zhengting Gan,  E. Epifanovsky,  A. T. B. Gilbert,  M. Wormit,  
 J. Kussmann,  A. W. Lange,  A. Behn,  Jia Deng,  Xintian Feng,  D. Ghosh,  
 M. Goldey,  P. R. Horn,  L. D. Jacobson,  I. Kaliman,  T. Kus,  A. Landau,  
 Jie Liu,  E. I. Proynov,  R. M. Richard,  R. P. Steele,  E. J. Sundstrom,  
 H. L. Woodcock III,  P. M. Zimmerman,  D. Zuev,  B. Albrecht,  E. Alguire,  
 S. A. Baeppler,  D. Barton,  Z. Benda,  Y. A. Bernard,  E. J. Berquist,  
 K. B. Bravaya,  H. Burton,  D. Casanova,  Chun-Min Chang,  Yunqing Chen,  
 A. Chien,  K. D. Closser,  M. P. Coons,  S. Coriani,  S. Dasgupta,  
 A. L. Dempwolff,  M. Diedenhofen,  Hainam Do,  R. G. Edgar,  Po-Tung Fang,  
 S. Faraji,  S. Fatehi,  Qingguo Feng,  K. D. Fenk,  J. Fosso-Tande,  
 J. Gayvert,  Qinghui Ge,  A. Ghysels,  G. Gidofalvi,  J. Gomes,  
 J. Gonthier,  A. Gunina,  D. Hait,  M. W. D. Hanson-Heine,  
 P. H. P. Harbach,  A. W. Hauser,  M. F. Herbst,  J. E. Herr,  
 E. G. Hohenstein,  Z. C. Holden,  Kerwin Hui,  B. C. Huynh,  T.-C. Jagau,  
 Hyunjun Ji,  B. Kaduk,  K. Khistyaev,  Jaehoon Kim,  P. Klunzinger,  K. Koh,  
 D. Kosenkov,  L. Koulias,  T. Kowalczyk,  C. M. Krauter,  A. Kunitsa,  
 Ka Un Lao,  A. Laurent,  K. V. Lawler,  Joonho Lee,  D. Lefrancois,  
 S. Lehtola,  D. S. Levine,  Yi-Pei Li,  You-Sheng Lin,  Fenglai Liu,  
 E. Livshits,  A. Luenser,  P. Manohar,  E. Mansoor,  S. F. Manzer,  
 Shan-Ping Mao,  Yuezhi Mao,  N. Mardirossian,  A. V. Marenich,  
 T. Markovich,  L. A. Martinez-Martinez,  S. A. Maurer,  N. J. Mayhall,  
 S. C. McKenzie,  J.-M. Mewes,  P. Morgante,  A. F. Morrison,  
 J. W. Mullinax,  K. Nanda,  T. S. Nguyen-Beck,  R. Olivares-Amaya,  
 J. A. Parkhill,  Zheng Pei,  T. M. Perrine,  F. Plasser,  P. Pokhilko,  
 S. Prager,  A. Prociuk,  E. Ramos,  D. R. Rehn,  F. Rob,  M. Scheurer,  
 M. Schneider,  N. Sergueev,  S. M. Sharada,  S. Sharma,  D. W. Small,  
 T. Stauch,  T. Stein,  Yu-Chuan Su,  A. J. W. Thom,  A. Tkatchenko,  
 T. Tsuchimochi,  N. M. Tubman,  L. Vogt,  M. L. Vidal,  O. Vydrov,  
 M. A. Watson,  J. Wenzel,  M. de Wergifosse,  T. A. Wesolowski,  A. White,  
 J. Witte,  A. Yamada,  Jun Yang,  K. Yao,  S. Yeganeh,  S. R. Yost,  
 Zhi-Qiang You,  A. Zech,  Igor Ying Zhang,  Xing Zhang,  Yan Zhao,  
 Ying Zhu,  B. R. Brooks,  G. K. L. Chan,  C. J. Cramer,  M. S. Gordon,  
 W. J. Hehre,  A. Klamt,  M. W. Schmidt,  C. D. Sherrill,  D. G. Truhlar,  
 A. Aspuru-Guzik,  R. Baer,  A. T. Bell,  N. A. Besley,  Jeng-Da Chai,  
 A. E. DePrince, III,  R. A. DiStasio Jr.,  A. Dreuw,  B. D. Dunietz,  
 T. R. Furlani,  Chao-Ping Hsu,  Yousung Jung,  Jing Kong,  D. S. Lambrecht,  
 WanZhen Liang,  C. Ochsenfeld,  V. A. Rassolov,  L. V. Slipchenko,  
 J. E. Subotnik,  T. Van Voorhis,  J. M. Herbert,  A. I. Krylov,  
 P. M. W. Gill,  M. Head-Gordon

 Contributors to earlier versions of Q-Chem not listed above: 
 R. D. Adamson,  B. Austin,  J. Baker,  G. J. O. Beran,  K. Brandhorst,  
 S. T. Brown,  E. F. C. Byrd,  A. K. Chakraborty,  C.-L. Cheng,  
 Siu Hung Chien,  D. M. Chipman,  D. L. Crittenden,  H. Dachsel,  
 R. J. Doerksen,  A. D. Dutoi,  L. Fusti-Molnar,  W. A. Goddard III,  
 A. Golubeva-Zadorozhnaya,  S. R. Gwaltney,  G. Hawkins,  A. Heyden,  
 S. Hirata,  G. Kedziora,  F. J. Keil,  C. Kelley,  Jihan Kim,  R. A. King,  
 R. Z. Khaliullin,  P. P. Korambath,  W. Kurlancheek,  A. M. Lee,  M. S. Lee,  
 S. V. Levchenko,  Ching Yeh Lin,  D. Liotard,  R. C. Lochan,  I. Lotan,  
 P. E. Maslen,  N. Nair,  D. P. O'Neill,  D. Neuhauser,  E. Neuscamman,  
 C. M. Oana,  R. Olson,  B. Peters,  R. Peverati,  P. A. Pieniazek,  
 Y. M. Rhee,  J. Ritchie,  M. A. Rohrdanz,  E. Rosta,  N. J. Russ,  
 H. F. Schaefer III,  N. E. Schultz,  N. Shenvi,  A. C. Simmonett,  A. Sodt,  
 D. Stuck,  K. S. Thanthiriwatte,  V. Vanovschi,  Tao Wang,  A. Warshel,  
 C. F. Williams,  Q. Wu,  X. Xu,  W. Zhang

 Please cite Q-Chem as follows:
 Y. Shao et al., Mol. Phys. 113, 184-215 (2015)
 DOI: 10.1080/00268976.2014.952696

 Q-Chem 5.2.0 for Intel X86 EM64T Linux

 Parts of Q-Chem use Armadillo 8.300.2 (Tropical Shenanigans).
 http://arma.sourceforge.net/

 Q-Chem begins on Sun Sep 26 23:24:47 2021  

Host: cori01
0

     Scratch files written to /tmp/qchem21379//Frg2//
 May1019 |scratch|qcdevops|jenkins|workspace|build_RNUM -1
Processing $rem in /global/common/cori/software/qchem/5.2/config/preferences:
	 MEM_TOTAL  96000 
NAlpha2: 40
NElect   40
Mult     1
Symmetry turned off for PCM/SM12/SMD calculation

Checking the input file for inconsistencies... 	...done.

--------------------------------------------------------------
User input:
--------------------------------------------------------------
$molecule
-1 1
 6	-3.2256142529	0.3634634141	-0.4666100585
 6	-3.3596142529	-0.8865365859	-1.3216100585
 6	-3.0016142529	0.0184634141	0.9953899415
 8	-3.8876142529	-0.6405365859	1.5853899415
 8	-1.9616142529	0.4134634141	1.5583899415
 1	-2.4346142529	1.0034634141	-0.8366100585
 1	-4.1536142529	0.9354634141	-0.5546100585
 1	-4.2056142529	-1.4815365859	-0.9756100585
 1	-2.4506142529	-1.4785365859	-1.2076100585
 1	-3.5093662529	-0.6482295859	-2.3849900585
$end
$rem
EDA2		1
METHOD		WB97X-V
BASIS		DEF2-TZVPD
XC_GRID		000099000590
NL_GRID		1
UNRESTRICTED		FALSE
MAX_SCF_CYCLES		200
SYMMETRY		FALSE
SYM_IGNORE		TRUE
BASIS_LIN_DEP_THRESH		6
THRESH		14
SCF_CONVERGENCE		8
SCF_PRINT_FRGM		TRUE
SOLVENT_METHOD		PCM
!required keywords
JOBTYPE		SP
SYM_IGNORE		TRUE
SUBSYSTEM		TRUE
GEN_SCFMAN		TRUE
CHILD_INSTRUCTION		2
SYM_IGNORE		TRUE
SCFMI		0
RI_K 0		
PARI_K 0		
MIN_PARI_K 0		
IARI_K 0		
OCC_RI_K 0		
PURECART		1111
MEM_STATIC		2000
MEM_TOTAL		96000
GUI		0
CHILD_MP		1
CHILD_MP_ORDERS		232
FRZ_RELAX		0
FRZ_RELAX_METHOD		0
EDA_CLS_ELEC		1
EDA_CLS_DISP		0
FRZ_ORTHO_DECOMP		1
EDA2		FALSE
FRGM_METHOD		FALSE
CIS_N_ROOTS  0
LOCAL_CIS    0
CIS_RLX_DNS  1
$end
$pcm
THEORY                  CPCM
METHOD                  SWIG
SOLVER                  INVERSION
RADII                   UFF
HPOINTS                 302
HEAVYPOINTS             302
PRINTLEVEL              0
$end
$solvent
DIELECTRIC              78.390000 ! water
$end
--------------------------------------------------------------
 ----------------------------------------------------------------
             Standard Nuclear Orientation (Angstroms)
    I     Atom           X                Y                Z
 ----------------------------------------------------------------
    1      C      -3.2256142529     0.3634634141    -0.4666100585
    2      C      -3.3596142529    -0.8865365859    -1.3216100585
    3      C      -3.0016142529     0.0184634141     0.9953899415
    4      O      -3.8876142529    -0.6405365859     1.5853899415
    5      O      -1.9616142529     0.4134634141     1.5583899415
    6      H      -2.4346142529     1.0034634141    -0.8366100585
    7      H      -4.1536142529     0.9354634141    -0.5546100585
    8      H      -4.2056142529    -1.4815365859    -0.9756100585
    9      H      -2.4506142529    -1.4785365859    -1.2076100585
   10      H      -3.5093662529    -0.6482295859    -2.3849900585
 ----------------------------------------------------------------
 Nuclear Repulsion Energy =         169.65182325 hartrees
 There are       20 alpha and       20 beta electrons
 Requested basis set is def2-TZVPD
 There are 92 shells and 236 basis functions

 Total QAlloc Memory Limit  96000 MB
 Mega-Array Size      1956 MB
 MEM_STATIC part      2000 MB
 Discretize the solute cavity surface with Lebedev spheres
	Using 302 Lebedev grid points for each H atom
	Using 302 Lebedev grid points for other atoms
	Atomic van der Waals radii will be scaled by 1.20
 Remove points where switching function is < 1.0e-08
 Keep 1307 surface tesserae and discard 1713 interior tesserae
 Molecular Surface Area = 143.430 Angst**2

                       Distance Matrix (Angstroms)
             C (  1)   C (  2)   C (  3)   O (  4)   O (  5)   H (  6)
   C (  2)  1.520356
   C (  3)  1.518764  2.513101
   O (  4)  2.378437  2.964785  1.251949
   O (  5)  2.387639  3.455257  1.246834  2.195705
   H (  6)  1.082673  2.159386  2.155908  3.268031  2.511544
   H (  7)  1.093669  2.130354  2.137871  2.670980  3.089032  1.743304
   H (  8)  2.150234  1.090622  2.753989  2.714245  3.879139  3.054666
   H (  9)  2.131354  1.090752  2.719893  3.250856  3.386671  2.509626
   H ( 10)  2.187286  1.099997  3.482709  3.988364  4.367262  2.506125
             H (  7)   H (  8)   H (  9)
   H (  8)  2.453943
   H (  9)  3.025560  1.770271
   H ( 10)  2.504682  1.779189  1.787901
 
 A cutoff of  1.0D-14 yielded   4195 shell pairs
 There are     28063 function pairs (     35760 Cartesian)
 Smallest overlap matrix eigenvalue = 1.05E-05

 Scale SEOQF with 1.000000e-01/1.000000e-01/1.000000e-01

 Standard Electronic Orientation quadrupole field applied
 Nucleus-field energy     =     0.0000000082 hartrees
 Guess from superposition of atomic densities
 Warning:  Energy on first SCF cycle will be non-variational
 SAD guess density has 38.612942 electrons

 -----------------------------------------------------------------------
  General SCF calculation program by
  Eric Jon Sundstrom, Paul Horn, Yuezhi Mao, Dmitri Zuev, Alec White,
  David Stuck, Shaama M.S., Shane Yost, Joonho Lee, David Small,
  Daniel Levine, Susi Lehtola, Hugh Burton, Evgeny Epifanovsky
 -----------------------------------------------------------------------
 Exchange:     0.1670 Hartree-Fock + 1.0000 wB97X-V + LR-HF
 Correlation:  1.0000 wB97X-V
 Using Euler-Maclaurin-Lebedev (99,590) quadrature formula
 Nonlocal Correlation:  VV10 with C = 0.0100 and b = 6.00 and scale = 1.00000
 Grid used for NLC:  SG-1 standard quadrature
Energy prior to optimization (guess energy) = -267.077329293445
Begin Timing: Total SCF Calculation
begin iterations for algorithm: DIIS         
the SCF tolerance is set to 1.00e-08
    1    -267.0773292934      1.27e-02     00000 
    2    -263.0952793324      2.08e-02     00000 
    3    -267.7962893301      5.00e-03     00000 
    4    -267.9300284862      2.17e-03     00000 
    5    -267.9565612928      3.28e-04     00000 
    6    -267.9576510506      1.38e-04     00000 
    7    -267.9577290803      7.55e-05     00000 
    8    -267.9577575456      1.66e-05     00000 
    9    -267.9577595946      6.16e-06     00000 
   10    -267.9577599126      2.11e-06     00000 
   11    -267.9577599742      3.32e-07     00000 
   12    -267.9577599777      1.14e-07     00000 
   13    -267.9577599779      4.74e-08     00000 
   14    -267.9577599779      1.29e-08     00000 
   15    -267.9577599779      2.12e-09     00000 Convergence criterion met
Timing for Total SCF: 642.00s (wall), 1273.34s (cpu)

************** Final PCM Free Energy Summary **************
 G_electrostatic  =      -0.10073036 hartree =     -63.20925348 kcal/mol
 G_cavitation     =       0.00000000 hartree =       0.00000000 kcal/mol
 G_dispersion     =       0.00000000 hartree =       0.00000000 kcal/mol
 G_repulsion      =       0.00000000 hartree =       0.00000000 kcal/mol
 --------------------------------------------------
 Non-electrostatic Free Energy =       0.00000000 hartree =       0.00000000 kcal/mol
 Total                         =      -0.10073036 hartree =     -63.20925348 kcal/mol
 --------------------------------------------------
 SCF Energy (H0 + V/2)                       =    -267.95775998 
 Solute Internal Energy (H0)                 =    -267.85702962 
 Total Free Energy (H0 + V/2 + non-elec)     =    -267.95775998 hartree
                                             = -168146.03221410 kcal/mol
***********************************************************

E_pcm = -0.1007303577
Multipole orders to be included
        2
        3
computing dipole RHS
computing quadrupole RHS
total number of RHS in solve_reponses: 8
RHS batch sizes
        8
Beginning Block Conjugate Gradient Iterations. Batch Number: 0
computing hessian-vector products by finite difference
              1      6.48e-01     00000 Conjugate Gradient Iteration
computing hessian-vector products by finite difference
              2      2.21e-01     00000 Conjugate Gradient Iteration
computing hessian-vector products by finite difference
              3      5.93e-02     00000 Conjugate Gradient Iteration
computing hessian-vector products by finite difference
              4      1.60e-02     00000 Conjugate Gradient Iteration
computing hessian-vector products by finite difference
              5      2.90e-03     00000 Conjugate Gradient Iteration
computing hessian-vector products by finite difference
              6      6.37e-04     00000 Conjugate Gradient Iteration
computing hessian-vector products by finite difference
              7      1.03e-04     00000 Conjugate Gradient Iteration
computing hessian-vector products by finite difference
              8      1.89e-05     00000 Conjugate Gradient Iteration
computing hessian-vector products by finite difference
              9      3.21e-06     00000 Conjugate Gradient Iteration
computing hessian-vector products by finite difference
             10      4.99e-07     00000 Conjugate Gradient Iteration
computing hessian-vector products by finite difference
             11      9.91e-08     00000 Conjugate Gradient Iteration
computing hessian-vector products by finite difference
             12      1.81e-08     00000 Conjugate Gradient Iteration
computing hessian-vector products by finite difference
             13      2.23e-09     00000 CG Converged
batch 0 complete
Done Calculating Responses
TESTING ORTHOGONALIZATION OF MULTIPOLE BASIS
Multipole virts passed orthogonality test
Virts Per Order
           60
          100
 
 --------------------------------------------------------------
 
                    Orbital Energies (a.u.)
 --------------------------------------------------------------
 
 Alpha MOs
 -- Occupied --
-19.1219 -19.1195 -10.3201 -10.2455 -10.2405  -1.1325  -1.0312  -0.8841
 -0.7431  -0.5980  -0.5500  -0.5344  -0.5046  -0.4850  -0.4659  -0.4398
 -0.4244  -0.3280  -0.3220  -0.3082
 -- Virtual --
  0.0638   0.0867   0.0921   0.0972   0.1223   0.1302   0.1384   0.1441
  0.1464   0.1728   0.1844   0.1954   0.1995   0.2043   0.2234   0.2319
  0.2490   0.2633   0.2743   0.2951   0.2991   0.3003   0.3207   0.3315
  0.3417   0.3507   0.3562   0.3629   0.3736   0.3754   0.3810   0.3887
  0.4120   0.4140   0.4215   0.4246   0.4301   0.4490   0.4584   0.4663
  0.4828   0.4940   0.5017   0.5073   0.5190   0.5291   0.5427   0.5438
  0.5485   0.5622   0.5694   0.5896   0.6136   0.6291   0.6441   0.6563
  0.6651   0.6840   0.6890   0.7022   0.7191   0.7333   0.7416   0.7481
  0.7634   0.7738   0.7794   0.7947   0.8015   0.8073   0.8169   0.8234
  0.8463   0.8642   0.8741   0.8862   0.9150   0.9309   0.9855   1.0060
  1.0201   1.0548   1.0764   1.0945   1.1278   1.1540   1.1874   1.2201
  1.2425   1.2842   1.2966   1.3271   1.3328   1.3617   1.4221   1.4387
  1.4419   1.4880   1.5255   1.6207   1.6510   1.7621   1.8598   1.8785
  1.9047   1.9165   1.9279   1.9410   1.9607   1.9737   1.9882   1.9945
  2.0554   2.0585   2.0761   2.1303   2.1782   2.1999   2.2075   2.2632
  2.2959   2.3451   2.3886   2.4263   2.4738   2.4922   2.4999   2.5453
  2.5577   2.6146   2.6219   2.6414   2.6618   2.7201   2.7798   2.7987
  2.8254   2.8547   2.8857   2.9267   2.9467   2.9832   3.0310   3.0771
  3.1282   3.1574   3.2248   3.2565   3.2762   3.3229   3.3395   3.3570
  3.3779   3.3871   3.4467   3.4792   3.5114   3.5133   3.5657   3.6077
  3.6223   3.6280   3.6685   3.6832   3.6894   3.7370   3.7483   3.7870
  3.8320   3.8790   3.9761   4.0599   4.1159   4.1319   4.1972   4.2656
  4.2875   4.4673   4.5222   4.6119   4.6984   4.7614   4.7862   4.8364
  4.9083   5.0389   5.0989   5.3400   5.3689   5.3818   5.3845   5.5150
  5.7337   5.7832   5.8334   6.0385   6.2575   6.3605   6.3695   6.6382
  6.6453   6.7299   6.7693   6.7837   6.9886   6.9999   7.0692   7.2683
  7.3820   7.4056   7.4278  22.6491  22.7791  23.7957  44.2758  44.4239
 --------------------------------------------------------------
 
          Ground-State Mulliken Net Atomic Charges

     Atom                 Charge (a.u.)
  ----------------------------------------
      1 C                     0.175059
      2 C                    -0.766702
      3 C                     0.147834
      4 O                    -0.690824
      5 O                    -0.677249
      6 H                     0.128525
      7 H                     0.116459
      8 H                     0.166168
      9 H                     0.202609
     10 H                     0.198120
  ----------------------------------------
  Sum of atomic charges =    -1.000000

 -----------------------------------------------------------------
                    Cartesian Multipole Moments
 -----------------------------------------------------------------
    Charge (ESU x 10^10)
                -4.8032
    Dipole Moment (Debye)
         X      13.7811      Y       0.9770      Z      -9.0773
       Tot      16.5309
    Quadrupole Moments (Debye-Ang)
        XX     -79.7362     XY      -7.2685     YY     -35.3572
        XZ      26.3441     YZ       1.3051     ZZ     -49.8116
    Octopole Moments (Debye-Ang^2)
       XXX     483.6269    XXY      40.5541    XYY     110.2116
       YYY      18.1922    XXZ    -100.3590    XYZ     -10.1826
       YYZ     -14.8131    XZZ     151.4382    YZZ       9.8873
       ZZZ     -66.1844
    Hexadecapole Moments (Debye-Ang^3)
      XXXX   -2743.4849   XXXY    -226.0651   XXYY    -387.2223
      XYYY     -83.1887   YYYY    -126.4090   XXXZ     416.5828
      XXYZ      43.8984   XYYZ      38.6348   YYYZ     -17.0408
      XXZZ    -564.8280   XYZZ     -48.2766   YYZZ     -91.5730
      XZZZ     178.5829   YZZZ     -12.6084   ZZZZ    -431.4906
 -----------------------------------------------------------------
Archival summary:
1\1\nid00556\SP\ProcedureUnspecified\BasisUnspecified\235(1-,1)\meili\MonSep2702:10:362021MonSep2702:10:362021\0\\#,ProcedureUnspecified,BasisUnspecified,\\-1,1\C\O,1,1.24683\O,1,1.25195,2,122.974\C,1,1.51876,2,119.06,3,179.052,0\H,4,1.08267,1,110.824,2,-3.98706,0\H,4,1.09367,1,108.748,2,-120.675,0\C,4,1.52036,1,111.567,2,120.238,0\H,7,1.09062,4,109.786,1,59.8639,0\H,7,1.09075,4,108.301,1,-58.4321,0\H,7,1.1,4,112.181,1,-179.266,0\\\@

 Total job time:  9952.86s(wall), 19738.39s(cpu) 
 Mon Sep 27 02:10:39 2021

        *************************************************************
        *                                                           *
        *  Thank you very much for using Q-Chem.  Have a nice day.  *
        *                                                           *
        *************************************************************


Done Job For Fragment 1
calling putenv with: QCSCRATCH=/global/cscratch1/sd/meili 
calling putenv with: QCLOCALSCR=/tmp 
calling putenv with: QCTHREADS=32 
Doing General SCFMI
 Exchange:     0.1670 Hartree-Fock + 1.0000 wB97X-V + LR-HF
 Correlation:  1.0000 wB97X-V
 Using Euler-Maclaurin-Lebedev (99,590) quadrature formula
 Nonlocal Correlation:  VV10 with C = 0.0100 and b = 6.00 and scale = 1.00000
 Grid used for NLC:  SG-1 standard quadrature
performing fock build before subrot guess so that all methods have access
Printing subrot_rss_gen Method Specification:
Occupied Subspace Method is 0
Virtual Subspace Method is 0
Energy of the unrelaxed supersystem initial determinant -614.645809951400
performing fock build before subrot guess so that all methods have access
Printing subrot_rss_gen Method Specification:
Occupied Subspace Method is 0
Virtual Subspace Method is 0
Energy of the unrelaxed supersystem initial determinant w/ solvent -614.754314226869
write pseudocanon occs and virts to disk
write pseudocanon orbital energies to disk
Tolerance of ortho_decomp_scf: 1.00e-06
GDM subspace size: 20
Beginning the Orthogonal Decomposition of the Initial Supersystem Wavefunction
    1    -614.5851943628      8.44e-02     ortho_decomp Preconditoned Steepest Descent
    2    -614.6017538934      1.78e-03     ortho_decomp BFGS Step
    3    -614.6018000676      1.50e-04     ortho_decomp BFGS Step
    4    -614.6018001604      5.70e-06     ortho_decomp BFGS Step
    5    -614.6018001606      1.78e-07     ortho_decomp 00000 Convergence criterion met
 Hartree-Fock
 Hartree-Fock
 Hartree-Fock
Doing General SCFMI
 Exchange:     0.1670 Hartree-Fock + 1.0000 wB97X-V + LR-HF
 Correlation:  1.0000 wB97X-V
 Using Euler-Maclaurin-Lebedev (99,590) quadrature formula
 Nonlocal Correlation:  VV10 with C = 0.0100 and b = 6.00 and scale = 1.00000
 Grid used for NLC:  SG-1 standard quadrature
performing fock build at end of subrot_r(subrot) constructor so that all methods have access
<S^2> of initial wavefunction before polarization iterations 0.0000000000
Beginning iterations for the determination of the polarized wavefunction
Energy prior to optimization (guess energy) = -614.754314226870
Begin Timing: Total SCF Calculation
begin iterations for algorithm: DIIS         
the SCF tolerance is set to 1.00e-08
    1    -614.7543142269      2.05e-04     00000 
    2    -614.7563338235      1.98e-04     00000 
    3    -614.7577840280      4.22e-05     00000 
    4    -614.7579259037      2.15e-05     00000 
    5    -614.7579717529      1.22e-05     00000 
    6    -614.7579892774      4.18e-06     00000 
    7    -614.7579922048      1.66e-06     00000 
    8    -614.7579926777      6.36e-07     00000 
    9    -614.7579927457      2.71e-07     00000 
   10    -614.7579927513      1.06e-07     00000 
   11    -614.7579927523      4.41e-08     00000 
   12    -614.7579927524      2.54e-08     00000 
   13    -614.7579927525      1.04e-08     00000 
   14    -614.7579927525      4.91e-09     00000 Convergence criterion met
write pseudocanon occs and virts to disk
write pseudocanon orbital energies to disk
Timing for Total SCF: 8506.00s (wall), 16937.89s (cpu)
<S^2> of polarized wavefunction after polarization iterations 0.0000000000
relaxing scfmi constraint to allow all rotations in the entire AO span
Doing General SCFMI
 Exchange:     0.1670 Hartree-Fock + 1.0000 wB97X-V + LR-HF
 Correlation:  1.0000 wB97X-V
 Using Euler-Maclaurin-Lebedev (99,590) quadrature formula
 Nonlocal Correlation:  VV10 with C = 0.0100 and b = 6.00 and scale = 1.00000
 Grid used for NLC:  SG-1 standard quadrature
performing fock build at end of subrot_r(subrot) constructor so that all methods have access
<S^2> of polarized wavefunction before ct-allowed iterations 0.0000000000
Beginning iterations for the determination of the CT-Allowed wavefunction
Energy prior to optimization (guess energy) = -614.757992752464
Begin Timing: Total SCF Calculation
begin iterations for algorithm: DIIS         
the SCF tolerance is set to 1.00e-08
    1    -614.7579927525      8.32e-05     00000 
    2    -614.7591848820      9.22e-06     00000 
    3    -614.7592222329      3.10e-06     00000 
    4    -614.7592234806      2.72e-06     00000 
    5    -614.7592244635      3.60e-07     00000 
    6    -614.7592244868      1.88e-07     00000 
    7    -614.7592244950      4.11e-08     00000 
    8    -614.7592244956      1.49e-08     00000 
    9    -614.7592244957      5.63e-09     00000 Convergence criterion met
write pseudocanon occs and virts to disk
write pseudocanon orbital energies to disk
Timing for Total SCF: 5061.00s (wall), 10079.37s (cpu)
<S^2> of ct_allowed wavefunction after ct-allowed iterations 0.0000000000

================================
        Results of EDA2         
================================
Basic EDA Quantities
--------------------
Fragment Energies (Ha):
1 -346.8160606578
2 -267.9577599779
--------------------
  E_prp (kJ/mol) = 0.0000
  E_sol (kJ/mol) = -5.7307
  E_frz (kJ/mol) = 56.9454
  E_pol (kJ/mol) = -9.6581
  E_vct (kJ/mol) = -3.2340
  E_int (kJ/mol) = 38.3226
--------------------


Initial Wavefunction Decomposition
--------------------
  --------------------
  Orthogonal Fragment Subspace Decomposition:
  --------------------
     E_elec   (ELEC)   (kJ/mol) = -61.4656
     E_pauli  (PAULI)  (kJ/mol) = 143.0390
     E_disp   (DISP)   (kJ/mol) = -24.6281
     --------------------
     Terms summing to E_pauli:
     --------------------
        E_kep_pauli       (kJ/mol) = 172.4944
        E_disp_free_pauli (kJ/mol) = -29.4554
  --------------------
  Classical Frozen Decomposition:
  --------------------
     E_cls_elec  (CLS ELEC)  (kJ/mol) = 10.5674
     E_cls_pauli (CLS PAULI) (kJ/mol) = 46.3779
    [E_mod_pauli (MOD PAULI) (kJ/mol) = 71.0060 (CLS PAULI - DISP from orthogonal decomposition) ]
  --------------------
--------------------

Simplified EDA Summary (kJ/mol)
--------------------
 PREPARATION     0.0000
 SOLVATION       -5.7307
 FROZEN          81.5734      (does not include dispersion)
[PAULI           143.0390]     (if this is negligible, then frozen describes electrostatics)
 DISPERSION      -24.6281
 POLARIZATION    -9.6581
 CHARGE TRANSFER -3.2340
 TOTAL           38.3226     (PRP + SOL + FRZ + DISP + POL + CT)
--------------------
 
 --------------------------------------------------------------
 
                    Orbital Energies (a.u.)
 --------------------------------------------------------------
 
 Alpha MOs
 -- Occupied --
-19.2217 -19.1122 -19.1051 -10.3251 -10.3102 -10.2695 -10.2688 -10.2683
-10.2635 -10.2623 -10.2580 -10.2419 -10.2317  -1.1804  -1.1222  -1.0206
 -0.9874  -0.8948  -0.8779  -0.8759  -0.8041  -0.7408  -0.7371  -0.7060
 -0.6567  -0.5960  -0.5892  -0.5735  -0.5460  -0.5435  -0.5353  -0.5291
 -0.5241  -0.5119  -0.5021  -0.4939  -0.4768  -0.4678  -0.4594  -0.4489
 -0.4386  -0.4306  -0.4223  -0.4145  -0.3456  -0.3179  -0.3130  -0.3040
 -0.2905
 -- Virtual --
  0.0566   0.0639   0.0688   0.0722   0.0807   0.0885   0.0909   0.0931
  0.1041   0.1117   0.1143   0.1186   0.1287   0.1329   0.1421   0.1469
  0.1524   0.1550   0.1592   0.1699   0.1781   0.1796   0.1864   0.1912
  0.1972   0.2011   0.2074   0.2078   0.2144   0.2210   0.2245   0.2286
  0.2301   0.2377   0.2473   0.2510   0.2578   0.2615   0.2655   0.2714
  0.2747   0.2767   0.2787   0.2849   0.2886   0.2914   0.2985   0.3004
  0.3058   0.3070   0.3099   0.3134   0.3190   0.3270   0.3320   0.3349
  0.3415   0.3427   0.3458   0.3501   0.3561   0.3597   0.3608   0.3638
  0.3702   0.3718   0.3770   0.3792   0.3823   0.3838   0.3863   0.3890
  0.3937   0.3980   0.4033   0.4054   0.4101   0.4138   0.4178   0.4196
  0.4254   0.4278   0.4323   0.4353   0.4397   0.4428   0.4458   0.4484
  0.4565   0.4596   0.4632   0.4653   0.4692   0.4725   0.4802   0.4873
  0.4902   0.4921   0.4957   0.4987   0.4995   0.5032   0.5085   0.5129
  0.5183   0.5228   0.5284   0.5322   0.5339   0.5369   0.5434   0.5492
  0.5507   0.5575   0.5619   0.5638   0.5722   0.5743   0.5825   0.5860
  0.5910   0.6005   0.6016   0.6037   0.6084   0.6137   0.6241   0.6263
  0.6363   0.6391   0.6457   0.6579   0.6607   0.6672   0.6688   0.6753
  0.6783   0.6851   0.6923   0.6978   0.7031   0.7041   0.7079   0.7127
  0.7195   0.7206   0.7285   0.7347   0.7406   0.7455   0.7499   0.7552
  0.7574   0.7599   0.7653   0.7668   0.7738   0.7766   0.7795   0.7893
  0.7937   0.7949   0.7967   0.8005   0.8015   0.8034   0.8106   0.8149
  0.8200   0.8281   0.8315   0.8353   0.8420   0.8437   0.8469   0.8546
  0.8567   0.8602   0.8676   0.8729   0.8813   0.8817   0.8893   0.8934
  0.8956   0.9016   0.9049   0.9126   0.9209   0.9289   0.9345   0.9380
  0.9451   0.9576   0.9619   0.9690   0.9759   0.9908   1.0006   1.0127
  1.0201   1.0276   1.0366   1.0394   1.0425   1.0512   1.0623   1.0699
  1.0804   1.0832   1.0888   1.1035   1.1085   1.1248   1.1341   1.1446
  1.1585   1.1602   1.1799   1.1886   1.1953   1.2041   1.2185   1.2333
  1.2405   1.2467   1.2669   1.2760   1.2906   1.2960   1.3007   1.3260
  1.3349   1.3508   1.3632   1.3693   1.3733   1.3909   1.3942   1.4136
  1.4166   1.4283   1.4436   1.4524   1.4693   1.4777   1.4844   1.5065
  1.5135   1.5214   1.5319   1.5478   1.5505   1.5686   1.5836   1.6030
  1.6312   1.6489   1.6583   1.6754   1.6927   1.7023   1.7194   1.7295
  1.7610   1.7714   1.7898   1.8101   1.8280   1.8440   1.8510   1.8621
  1.8925   1.9049   1.9179   1.9271   1.9369   1.9407   1.9481   1.9578
  1.9661   1.9773   1.9854   1.9931   1.9946   2.0016   2.0070   2.0200
  2.0282   2.0492   2.0568   2.0633   2.0717   2.0723   2.0836   2.0882
  2.1011   2.1086   2.1172   2.1198   2.1294   2.1484   2.1634   2.1745
  2.2046   2.2195   2.2320   2.2389   2.2455   2.2518   2.2746   2.2779
  2.2956   2.3115   2.3293   2.3446   2.3554   2.3682   2.3954   2.4098
  2.4143   2.4245   2.4361   2.4405   2.4567   2.4688   2.5028   2.5079
  2.5124   2.5321   2.5413   2.5629   2.5738   2.5793   2.5863   2.6056
  2.6213   2.6313   2.6505   2.6516   2.6615   2.6677   2.6759   2.6863
  2.7004   2.7239   2.7444   2.7612   2.7712   2.7768   2.7856   2.8096
  2.8137   2.8243   2.8330   2.8404   2.8585   2.8719   2.8896   2.8983
  2.9144   2.9304   2.9482   2.9520   2.9541   2.9701   2.9767   2.9905
  3.0037   3.0141   3.0193   3.0376   3.0413   3.0544   3.0742   3.0887
  3.0988   3.1117   3.1299   3.1501   3.1695   3.1813   3.1912   3.1961
  3.2077   3.2134   3.2341   3.2490   3.2602   3.2699   3.2763   3.2878
  3.3024   3.3083   3.3160   3.3332   3.3522   3.3657   3.3709   3.3863
  3.3937   3.4050   3.4121   3.4140   3.4321   3.4438   3.4564   3.4615
  3.4777   3.4877   3.5014   3.5112   3.5180   3.5253   3.5330   3.5404
  3.5493   3.5555   3.5592   3.5666   3.5722   3.5824   3.5964   3.6028
  3.6120   3.6146   3.6242   3.6366   3.6531   3.6572   3.6686   3.6809
  3.6882   3.7059   3.7160   3.7277   3.7307   3.7457   3.7537   3.7738
  3.7837   3.8088   3.8180   3.8243   3.8511   3.8685   3.8909   3.8991
  3.9178   3.9543   3.9807   3.9935   4.0028   4.0165   4.0582   4.0908
  4.1102   4.1505   4.1595   4.1669   4.2122   4.2502   4.2692   4.2945
  4.3013   4.3048   4.3157   4.3234   4.3272   4.3423   4.3554   4.3738
  4.3868   4.4285   4.4455   4.4795   4.4976   4.5097   4.5540   4.5643
  4.6140   4.6187   4.6401   4.7195   4.7432   4.7612   4.8055   4.8076
  4.8325   4.8456   4.8746   4.8944   4.9366   4.9528   5.0561   5.0754
  5.0843   5.1174   5.1382   5.1456   5.2087   5.3135   5.3445   5.3673
  5.3895   5.4122   5.4250   5.4516   5.4668   5.5308   5.5523   5.6511
  5.6816   5.7512   5.7609   5.7777   5.8048   5.8519   6.0126   6.0642
  6.2812   6.2862   6.3885   6.4147   6.5235   6.6474   6.6646   6.6958
  6.7222   6.7732   6.8232   6.8364   6.9386   7.0282   7.0464   7.0983
  7.1118   7.2998   7.3984   7.4081   7.4489   7.4911   7.5296  22.6760
 22.6829  22.7293  22.8453  22.9631  23.0208  23.0427  23.2158  23.5413
 23.8538  44.3991  44.4959  44.5253
 --------------------------------------------------------------
 
          Ground-State Mulliken Net Atomic Charges

     Atom                 Charge (a.u.)
  ----------------------------------------
      1 C                    -1.084637
      2 C                     0.497712
      3 C                    -0.515252
      4 C                    -0.215747
      5 C                    -0.521459
      6 C                    -0.683373
      7 C                     0.406982
      8 O                    -0.308251
      9 H                     0.245152
     10 H                     0.305306
     11 H                     0.460179
     12 H                     0.342723
     13 H                     0.312190
     14 H                     0.270772
     15 H                     0.271943
     16 H                     0.214803
     17 C                     0.365685
     18 C                    -0.843415
     19 C                     0.048342
     20 O                    -0.719952
     21 O                    -0.625384
     22 H                     0.021739
     23 H                     0.191680
     24 H                     0.180645
     25 H                     0.178161
     26 H                     0.203456
  ----------------------------------------
  Sum of atomic charges =    -1.000000

 -----------------------------------------------------------------
                    Cartesian Multipole Moments
 -----------------------------------------------------------------
    Charge (ESU x 10^10)
                -4.8032
    Dipole Moment (Debye)
         X      14.8071      Y       2.4823      Z      -9.2525
       Tot      17.6358
    Quadrupole Moments (Debye-Ang)
        XX    -128.5377     XY      -7.4530     YY     -74.0281
        XZ      25.4158     YZ      -0.6683     ZZ    -101.7289
    Octopole Moments (Debye-Ang^2)
       XXX     200.6449    XXY      39.6440    XYY      12.9883
       YYY      34.0116    XXZ     -93.8385    XYZ     -13.7034
       YYZ      -1.3730    XZZ      45.4185    YZZ       9.1942
       ZZZ     -16.4586
    Hexadecapole Moments (Debye-Ang^3)
      XXXX   -4876.3694   XXXY     -92.5714   XXYY    -815.7916
      XYYY      47.2028   YYYY    -521.6049   XXXZ     566.4676
      XXYZ      35.8213   XYYZ      90.4058   YYYZ     -21.7304
      XXZZ    -960.0761   XYZZ      -2.1592   YYZZ    -198.9588
      XZZZ     360.0998   YZZZ      -2.9664   ZZZZ    -582.5925
 -----------------------------------------------------------------
Archival summary:
1\1\nid00556\SP\ProcedureUnspecified\BasisUnspecified\31013(1-,1)\meili\MonSep2708:40:412021MonSep2708:40:412021\0\\#,ProcedureUnspecified,BasisUnspecified,\\-1,1\O\H,1,0.957886\C,1,1.35533,2,112.135\C,3,1.38631,1,118.539,2,-5.18531,0\H,4,1.07899,3,119.959,1,0.921521,0\C,4,1.39454,3,119.876,1,-179.64,0\H,6,1.08116,4,119.689,3,-178.705,0\C,6,1.39544,4,120.937,3,-0.578246,0\C,8,1.39402,6,118.825,4,0.0834397,0\H,9,1.08115,8,119.806,6,-179.61,0\C,3,1.39623,1,121.458,2,174.933,0\H,11,1.07899,3,119.563,1,-0.0609026,0\C,8,1.50837,6,120.492,4,-178.135,0\H,13,1.08608,8,109.528,6,-43.3671,0\H,13,1.09106,8,108.406,6,-159.393,0\H,13,1.1,8,113.19,6,80.5296,0\H,1,2.40977,2,105.565,3,-143.621,0\C,17,1.08267,1,131.728,2,-140.531,0\H,18,1.09367,17,106.455,1,135.043,0\C,18,1.51876,17,110.824,1,16.9509,0\O,20,1.24683,18,119.06,17,-3.98706,0\O,20,1.25195,18,117.959,17,175.113,0\C,18,1.52036,17,110.991,1,-107.601,0\H,23,1.09062,18,109.786,17,-176.005,0\H,23,1.09075,18,108.301,17,65.6987,0\H,23,1.1,18,112.181,17,-55.1353,0\\\@

 Total job time:  72949.55s(wall), 46638.68s(cpu) 
 Mon Sep 27 08:40:44 2021

        *************************************************************
        *                                                           *
        *  Thank you very much for using Q-Chem.  Have a nice day.  *
        *                                                           *
        *************************************************************


