
Running Job 1 of 1 SSI-058GLN-067PHE-2_PCM_TZVPD.in
qchem SSI-058GLN-067PHE-2_PCM_TZVPD.in_17305.0 /tmp/qchem17305/ 0
/global/common/cori/software/qchem/5.2/exe/qcprog.exe_s SSI-058GLN-067PHE-2_PCM_TZVPD.in_17305.0 /tmp/qchem17305/
                  Welcome to Q-Chem
     A Quantum Leap Into The Future Of Chemistry


 Q-Chem 5.2, Q-Chem, Inc., Pleasanton, CA (2019)

 License issued to: National Energy Research Scientific Computing Center

 Yihan Shao,  Zhengting Gan,  E. Epifanovsky,  A. T. B. Gilbert,  M. Wormit,  
 J. Kussmann,  A. W. Lange,  A. Behn,  Jia Deng,  Xintian Feng,  D. Ghosh,  
 M. Goldey,  P. R. Horn,  L. D. Jacobson,  I. Kaliman,  T. Kus,  A. Landau,  
 Jie Liu,  E. I. Proynov,  R. M. Richard,  R. P. Steele,  E. J. Sundstrom,  
 H. L. Woodcock III,  P. M. Zimmerman,  D. Zuev,  B. Albrecht,  E. Alguire,  
 S. A. Baeppler,  D. Barton,  Z. Benda,  Y. A. Bernard,  E. J. Berquist,  
 K. B. Bravaya,  H. Burton,  D. Casanova,  Chun-Min Chang,  Yunqing Chen,  
 A. Chien,  K. D. Closser,  M. P. Coons,  S. Coriani,  S. Dasgupta,  
 A. L. Dempwolff,  M. Diedenhofen,  Hainam Do,  R. G. Edgar,  Po-Tung Fang,  
 S. Faraji,  S. Fatehi,  Qingguo Feng,  K. D. Fenk,  J. Fosso-Tande,  
 J. Gayvert,  Qinghui Ge,  A. Ghysels,  G. Gidofalvi,  J. Gomes,  
 J. Gonthier,  A. Gunina,  D. Hait,  M. W. D. Hanson-Heine,  
 P. H. P. Harbach,  A. W. Hauser,  M. F. Herbst,  J. E. Herr,  
 E. G. Hohenstein,  Z. C. Holden,  Kerwin Hui,  B. C. Huynh,  T.-C. Jagau,  
 Hyunjun Ji,  B. Kaduk,  K. Khistyaev,  Jaehoon Kim,  P. Klunzinger,  K. Koh,  
 D. Kosenkov,  L. Koulias,  T. Kowalczyk,  C. M. Krauter,  A. Kunitsa,  
 Ka Un Lao,  A. Laurent,  K. V. Lawler,  Joonho Lee,  D. Lefrancois,  
 S. Lehtola,  D. S. Levine,  Yi-Pei Li,  You-Sheng Lin,  Fenglai Liu,  
 E. Livshits,  A. Luenser,  P. Manohar,  E. Mansoor,  S. F. Manzer,  
 Shan-Ping Mao,  Yuezhi Mao,  N. Mardirossian,  A. V. Marenich,  
 T. Markovich,  L. A. Martinez-Martinez,  S. A. Maurer,  N. J. Mayhall,  
 S. C. McKenzie,  J.-M. Mewes,  P. Morgante,  A. F. Morrison,  
 J. W. Mullinax,  K. Nanda,  T. S. Nguyen-Beck,  R. Olivares-Amaya,  
 J. A. Parkhill,  Zheng Pei,  T. M. Perrine,  F. Plasser,  P. Pokhilko,  
 S. Prager,  A. Prociuk,  E. Ramos,  D. R. Rehn,  F. Rob,  M. Scheurer,  
 M. Schneider,  N. Sergueev,  S. M. Sharada,  S. Sharma,  D. W. Small,  
 T. Stauch,  T. Stein,  Yu-Chuan Su,  A. J. W. Thom,  A. Tkatchenko,  
 T. Tsuchimochi,  N. M. Tubman,  L. Vogt,  M. L. Vidal,  O. Vydrov,  
 M. A. Watson,  J. Wenzel,  M. de Wergifosse,  T. A. Wesolowski,  A. White,  
 J. Witte,  A. Yamada,  Jun Yang,  K. Yao,  S. Yeganeh,  S. R. Yost,  
 Zhi-Qiang You,  A. Zech,  Igor Ying Zhang,  Xing Zhang,  Yan Zhao,  
 Ying Zhu,  B. R. Brooks,  G. K. L. Chan,  C. J. Cramer,  M. S. Gordon,  
 W. J. Hehre,  A. Klamt,  M. W. Schmidt,  C. D. Sherrill,  D. G. Truhlar,  
 A. Aspuru-Guzik,  R. Baer,  A. T. Bell,  N. A. Besley,  Jeng-Da Chai,  
 A. E. DePrince, III,  R. A. DiStasio Jr.,  A. Dreuw,  B. D. Dunietz,  
 T. R. Furlani,  Chao-Ping Hsu,  Yousung Jung,  Jing Kong,  D. S. Lambrecht,  
 WanZhen Liang,  C. Ochsenfeld,  V. A. Rassolov,  L. V. Slipchenko,  
 J. E. Subotnik,  T. Van Voorhis,  J. M. Herbert,  A. I. Krylov,  
 P. M. W. Gill,  M. Head-Gordon

 Contributors to earlier versions of Q-Chem not listed above: 
 R. D. Adamson,  B. Austin,  J. Baker,  G. J. O. Beran,  K. Brandhorst,  
 S. T. Brown,  E. F. C. Byrd,  A. K. Chakraborty,  C.-L. Cheng,  
 Siu Hung Chien,  D. M. Chipman,  D. L. Crittenden,  H. Dachsel,  
 R. J. Doerksen,  A. D. Dutoi,  L. Fusti-Molnar,  W. A. Goddard III,  
 A. Golubeva-Zadorozhnaya,  S. R. Gwaltney,  G. Hawkins,  A. Heyden,  
 S. Hirata,  G. Kedziora,  F. J. Keil,  C. Kelley,  Jihan Kim,  R. A. King,  
 R. Z. Khaliullin,  P. P. Korambath,  W. Kurlancheek,  A. M. Lee,  M. S. Lee,  
 S. V. Levchenko,  Ching Yeh Lin,  D. Liotard,  R. C. Lochan,  I. Lotan,  
 P. E. Maslen,  N. Nair,  D. P. O'Neill,  D. Neuhauser,  E. Neuscamman,  
 C. M. Oana,  R. Olson,  B. Peters,  R. Peverati,  P. A. Pieniazek,  
 Y. M. Rhee,  J. Ritchie,  M. A. Rohrdanz,  E. Rosta,  N. J. Russ,  
 H. F. Schaefer III,  N. E. Schultz,  N. Shenvi,  A. C. Simmonett,  A. Sodt,  
 D. Stuck,  K. S. Thanthiriwatte,  V. Vanovschi,  Tao Wang,  A. Warshel,  
 C. F. Williams,  Q. Wu,  X. Xu,  W. Zhang

 Please cite Q-Chem as follows:
 Y. Shao et al., Mol. Phys. 113, 184-215 (2015)
 DOI: 10.1080/00268976.2014.952696

 Q-Chem 5.2.0 for Intel X86 EM64T Linux

 Parts of Q-Chem use Armadillo 8.300.2 (Tropical Shenanigans).
 http://arma.sourceforge.net/

 Q-Chem begins on Sun Sep 26 09:07:41 2021  

Host: cori01
0

     Scratch files written to /tmp/qchem17305//
 May1019 |scratch|qcdevops|jenkins|workspace|build_RNUM -1
Processing $rem in /global/common/cori/software/qchem/5.2/config/preferences:
	 MEM_TOTAL  96000 
NAlpha2: 82
NElect   82
Mult     1
Symmetry turned off for PCM/SM12/SMD calculation

 Q-Chem warning in module libgen/rem_setup.C, line 2803:

 Neither GIA nor STOLL is specified by user. Use STOLL as the default


Checking the input file for inconsistencies... 	...done.

--------------------------------------------------------------
User input:
--------------------------------------------------------------
$comment
SSI-058GLN-067PHE-2.pdb
$end

$molecule
0 1
--
0 1
C    2.980719645505    0.744953493938    0.941200124673
C    3.280719645505    0.406953493938   -0.507799875327
O    3.591719645505   -0.732046506062   -0.858799875327
N    3.198719645505    1.411953493938   -1.364799875327
H    2.126719645505    1.423953493938    0.972200124673
H    3.825719645505    1.286953493938    1.354200124673
H    3.386719645505    1.227953493938   -2.340799875327
H    2.934719645505    2.336953493938   -1.057799875327
H    2.737709645505   -0.141746506062    1.545110124673
--
0 1
C   -3.233280354495    0.059953493938    2.441200124673
C   -0.543280354495    0.006953493938   -0.278799875327
C   -1.190280354495    0.212953493938    0.953200124673
C   -1.231280354495   -0.584046506062   -1.337799875327
C   -2.526280354495   -0.166046506062    1.126200124673
C   -2.562280354495   -0.960046506062   -1.166799875327
C   -3.204280354495   -0.750046506062    0.058200124673
H    0.478719645505    0.323953493938   -0.421799875327
H   -0.657280354495    0.679953493938    1.769200124673
H   -0.740280354495   -0.738046506062   -2.289799875327
H   -3.103280354495   -1.413046506062   -1.988799875327
H   -2.605280354495   -0.336046506062    3.235200124673
H   -4.179280354495   -0.485046506062    2.444200124673
H   -4.239280354495   -1.041046506062    0.172200124673
H   -3.425431354495    1.120394493938    2.661520124673
$end

$rem
JOBTYPE			EDA
EDA2			1
method			wB97X-V
BASIS			def2-TZVPD
XC_GRID			000099000590
NL_GRID			1
UNRESTRICTED		FALSE
MAX_SCF_CYCLES		200
SYMMETRY		FALSE
SYM_IGNORE		TRUE
MEM_STATIC		2000
BASIS_LIN_DEP_THRESH 	6
THRESH 			14
SCF_CONVERGENCE 	8
SCF_PRINT_FRGM 		TRUE
SOLVENT_METHOD          PCM
$end

$PCM
THEORY                  CPCM
METHOD                  SWIG
SOLVER                  INVERSION
RADII                   UFF
HPOINTS                 302
HEAVYPOINTS             302
PRINTLEVEL              0
$END

$SOLVENT
DIELECTRIC              78.390000 ! water
$END
--------------------------------------------------------------
 ----------------------------------------------------------------
             Standard Nuclear Orientation (Angstroms)
    I     Atom           X                Y                Z
 ----------------------------------------------------------------
    1      C       2.9807196455     0.7449534939     0.9412001247
    2      C       3.2807196455     0.4069534939    -0.5077998753
    3      O       3.5917196455    -0.7320465061    -0.8587998753
    4      N       3.1987196455     1.4119534939    -1.3647998753
    5      H       2.1267196455     1.4239534939     0.9722001247
    6      H       3.8257196455     1.2869534939     1.3542001247
    7      H       3.3867196455     1.2279534939    -2.3407998753
    8      H       2.9347196455     2.3369534939    -1.0577998753
    9      H       2.7377096455    -0.1417465061     1.5451101247
   10      C      -3.2332803545     0.0599534939     2.4412001247
   11      C      -0.5432803545     0.0069534939    -0.2787998753
   12      C      -1.1902803545     0.2129534939     0.9532001247
   13      C      -1.2312803545    -0.5840465061    -1.3377998753
   14      C      -2.5262803545    -0.1660465061     1.1262001247
   15      C      -2.5622803545    -0.9600465061    -1.1667998753
   16      C      -3.2042803545    -0.7500465061     0.0582001247
   17      H       0.4787196455     0.3239534939    -0.4217998753
   18      H      -0.6572803545     0.6799534939     1.7692001247
   19      H      -0.7402803545    -0.7380465061    -2.2897998753
   20      H      -3.1032803545    -1.4130465061    -1.9887998753
   21      H      -2.6052803545    -0.3360465061     3.2352001247
   22      H      -4.1792803545    -0.4850465061     2.4442001247
   23      H      -4.2392803545    -1.0410465061     0.1722001247
   24      H      -3.4254313545     1.1203944939     2.6615201247
 ----------------------------------------------------------------
 Nuclear Repulsion Energy =         545.34796751 hartrees
 There are       41 alpha and       41 beta electrons
 Requested basis set is def2-TZVPD
 There are 209 shells and 527 basis functions

 Total QAlloc Memory Limit  96000 MB
 Mega-Array Size      1956 MB
 MEM_STATIC part      2000 MB
 Discretize the solute cavity surface with Lebedev spheres
	Using 302 Lebedev grid points for each H atom
	Using 302 Lebedev grid points for other atoms
	Atomic van der Waals radii will be scaled by 1.20
 Remove points where switching function is < 1.0e-08
 Keep 2817 surface tesserae and discard 4431 interior tesserae
 Molecular Surface Area = 282.123 Angst**2
 A cutoff of  1.0D-14 yielded  18865 shell pairs
 There are    119893 function pairs (    150701 Cartesian)
 Smallest overlap matrix eigenvalue = 5.12E-07
 Linear dependence detected in AO basis
 Tighter screening thresholds may be required for diffuse basis sets
 Use S2THRESH > 14 and THRESH = 14 in case of SCF convergence issues
 Number of orthogonalized atomic orbitals = 526
 Maximum deviation from orthogonality = 1.851E-10

 Scale SEOQF with 1.000000e-01/1.000000e-01/1.000000e-01

 Standard Electronic Orientation quadrupole field applied
 Nucleus-field energy     =     0.0000000107 hartrees

 -----------------------------------------------------------------------
  General SCF calculation program by
  Eric Jon Sundstrom, Paul Horn, Yuezhi Mao, Dmitri Zuev, Alec White,
  David Stuck, Shaama M.S., Shane Yost, Joonho Lee, David Small,
  Daniel Levine, Susi Lehtola, Hugh Burton, Evgeny Epifanovsky
 -----------------------------------------------------------------------
================================================================
                 ALMO-EDA with the EDA2 driver                  
================================================================
 The second-generation ALMO-EDA (for DFT):                      
 P. R. Horn, Y. Mao and M. Head-Gordon, PCCP, 18, 23067 (2016)  
 Decomposition of the frozen energy:                            
 P. R. Horn, Y. Mao and M. Head-Gordon, JCP, 144, 114107 (2016) 
 FERF model for polarization:                                   
 P. R. Horn and M. Head-Gordon, JCP, 143, 114111 (2015)         
Using eda2 option set 1
Option set summary: Frozen orbital wavefunction, initial wavefunction decomposition, and nDQ polarization.
--------------------------------
Printing EDA Options
--------------------------------
eda_child_super_basis      0
fragmo_guess_mode          0
child_mp                   1
child_mp_orders            232
cls_elec                   1
cls_disp                   0
scfmi_mode                 1
scfmi_occs                 0
scfmi_virts                0
frz_relax                  0
frz_relax_method           0
dc_pen_start               0
dc_pen_conv                0
dc_pen_increment           0
dc_pen_steps               0
dc_pen_thresh_factor       0
dc_pen_pre_newton_thresh   0
frz_ortho_decomp           1
frz_ortho_decomp_conv      6
frgm_method                2
scfmi_freeze_ss            0
separate_rehyb             0
plot_diff_den              0
eda_nocv                   0
eda_vct_relax              1
disp_free_x                0
disp_free_c                0
eda_bsse                   0
eda_pct_a                  0
eda_covp                   0
--------------------------------
Attempting to make child job directory: /tmp/qchem17305//Frg1/
Attempting to make child job directory: /tmp/qchem17305//Frg2/
Creating input file /tmp/qchem17305/Frg1.input
using default PutDataFrgm: nothing
calling putenv with: QCSCRATCH=/tmp/qchem17305/ 
calling putenv with: QCLOCALSCR=/tmp/qchem17305/ 
Spawning Job For Fragment 0
                  Welcome to Q-Chem
     A Quantum Leap Into The Future Of Chemistry


 Q-Chem 5.2, Q-Chem, Inc., Pleasanton, CA (2019)

 License issued to: National Energy Research Scientific Computing Center

 Yihan Shao,  Zhengting Gan,  E. Epifanovsky,  A. T. B. Gilbert,  M. Wormit,  
 J. Kussmann,  A. W. Lange,  A. Behn,  Jia Deng,  Xintian Feng,  D. Ghosh,  
 M. Goldey,  P. R. Horn,  L. D. Jacobson,  I. Kaliman,  T. Kus,  A. Landau,  
 Jie Liu,  E. I. Proynov,  R. M. Richard,  R. P. Steele,  E. J. Sundstrom,  
 H. L. Woodcock III,  P. M. Zimmerman,  D. Zuev,  B. Albrecht,  E. Alguire,  
 S. A. Baeppler,  D. Barton,  Z. Benda,  Y. A. Bernard,  E. J. Berquist,  
 K. B. Bravaya,  H. Burton,  D. Casanova,  Chun-Min Chang,  Yunqing Chen,  
 A. Chien,  K. D. Closser,  M. P. Coons,  S. Coriani,  S. Dasgupta,  
 A. L. Dempwolff,  M. Diedenhofen,  Hainam Do,  R. G. Edgar,  Po-Tung Fang,  
 S. Faraji,  S. Fatehi,  Qingguo Feng,  K. D. Fenk,  J. Fosso-Tande,  
 J. Gayvert,  Qinghui Ge,  A. Ghysels,  G. Gidofalvi,  J. Gomes,  
 J. Gonthier,  A. Gunina,  D. Hait,  M. W. D. Hanson-Heine,  
 P. H. P. Harbach,  A. W. Hauser,  M. F. Herbst,  J. E. Herr,  
 E. G. Hohenstein,  Z. C. Holden,  Kerwin Hui,  B. C. Huynh,  T.-C. Jagau,  
 Hyunjun Ji,  B. Kaduk,  K. Khistyaev,  Jaehoon Kim,  P. Klunzinger,  K. Koh,  
 D. Kosenkov,  L. Koulias,  T. Kowalczyk,  C. M. Krauter,  A. Kunitsa,  
 Ka Un Lao,  A. Laurent,  K. V. Lawler,  Joonho Lee,  D. Lefrancois,  
 S. Lehtola,  D. S. Levine,  Yi-Pei Li,  You-Sheng Lin,  Fenglai Liu,  
 E. Livshits,  A. Luenser,  P. Manohar,  E. Mansoor,  S. F. Manzer,  
 Shan-Ping Mao,  Yuezhi Mao,  N. Mardirossian,  A. V. Marenich,  
 T. Markovich,  L. A. Martinez-Martinez,  S. A. Maurer,  N. J. Mayhall,  
 S. C. McKenzie,  J.-M. Mewes,  P. Morgante,  A. F. Morrison,  
 J. W. Mullinax,  K. Nanda,  T. S. Nguyen-Beck,  R. Olivares-Amaya,  
 J. A. Parkhill,  Zheng Pei,  T. M. Perrine,  F. Plasser,  P. Pokhilko,  
 S. Prager,  A. Prociuk,  E. Ramos,  D. R. Rehn,  F. Rob,  M. Scheurer,  
 M. Schneider,  N. Sergueev,  S. M. Sharada,  S. Sharma,  D. W. Small,  
 T. Stauch,  T. Stein,  Yu-Chuan Su,  A. J. W. Thom,  A. Tkatchenko,  
 T. Tsuchimochi,  N. M. Tubman,  L. Vogt,  M. L. Vidal,  O. Vydrov,  
 M. A. Watson,  J. Wenzel,  M. de Wergifosse,  T. A. Wesolowski,  A. White,  
 J. Witte,  A. Yamada,  Jun Yang,  K. Yao,  S. Yeganeh,  S. R. Yost,  
 Zhi-Qiang You,  A. Zech,  Igor Ying Zhang,  Xing Zhang,  Yan Zhao,  
 Ying Zhu,  B. R. Brooks,  G. K. L. Chan,  C. J. Cramer,  M. S. Gordon,  
 W. J. Hehre,  A. Klamt,  M. W. Schmidt,  C. D. Sherrill,  D. G. Truhlar,  
 A. Aspuru-Guzik,  R. Baer,  A. T. Bell,  N. A. Besley,  Jeng-Da Chai,  
 A. E. DePrince, III,  R. A. DiStasio Jr.,  A. Dreuw,  B. D. Dunietz,  
 T. R. Furlani,  Chao-Ping Hsu,  Yousung Jung,  Jing Kong,  D. S. Lambrecht,  
 WanZhen Liang,  C. Ochsenfeld,  V. A. Rassolov,  L. V. Slipchenko,  
 J. E. Subotnik,  T. Van Voorhis,  J. M. Herbert,  A. I. Krylov,  
 P. M. W. Gill,  M. Head-Gordon

 Contributors to earlier versions of Q-Chem not listed above: 
 R. D. Adamson,  B. Austin,  J. Baker,  G. J. O. Beran,  K. Brandhorst,  
 S. T. Brown,  E. F. C. Byrd,  A. K. Chakraborty,  C.-L. Cheng,  
 Siu Hung Chien,  D. M. Chipman,  D. L. Crittenden,  H. Dachsel,  
 R. J. Doerksen,  A. D. Dutoi,  L. Fusti-Molnar,  W. A. Goddard III,  
 A. Golubeva-Zadorozhnaya,  S. R. Gwaltney,  G. Hawkins,  A. Heyden,  
 S. Hirata,  G. Kedziora,  F. J. Keil,  C. Kelley,  Jihan Kim,  R. A. King,  
 R. Z. Khaliullin,  P. P. Korambath,  W. Kurlancheek,  A. M. Lee,  M. S. Lee,  
 S. V. Levchenko,  Ching Yeh Lin,  D. Liotard,  R. C. Lochan,  I. Lotan,  
 P. E. Maslen,  N. Nair,  D. P. O'Neill,  D. Neuhauser,  E. Neuscamman,  
 C. M. Oana,  R. Olson,  B. Peters,  R. Peverati,  P. A. Pieniazek,  
 Y. M. Rhee,  J. Ritchie,  M. A. Rohrdanz,  E. Rosta,  N. J. Russ,  
 H. F. Schaefer III,  N. E. Schultz,  N. Shenvi,  A. C. Simmonett,  A. Sodt,  
 D. Stuck,  K. S. Thanthiriwatte,  V. Vanovschi,  Tao Wang,  A. Warshel,  
 C. F. Williams,  Q. Wu,  X. Xu,  W. Zhang

 Please cite Q-Chem as follows:
 Y. Shao et al., Mol. Phys. 113, 184-215 (2015)
 DOI: 10.1080/00268976.2014.952696

 Q-Chem 5.2.0 for Intel X86 EM64T Linux

 Parts of Q-Chem use Armadillo 8.300.2 (Tropical Shenanigans).
 http://arma.sourceforge.net/

 Q-Chem begins on Sun Sep 26 09:07:46 2021  

Host: cori01
0

     Scratch files written to /tmp/qchem17305//Frg1//
 May1019 |scratch|qcdevops|jenkins|workspace|build_RNUM -1
Processing $rem in /global/common/cori/software/qchem/5.2/config/preferences:
	 MEM_TOTAL  96000 
NAlpha2: 32
NElect   32
Mult     1
Symmetry turned off for PCM/SM12/SMD calculation

Checking the input file for inconsistencies... 	...done.

--------------------------------------------------------------
User input:
--------------------------------------------------------------
$molecule
0 1
 6	2.9807196455	0.7449534939	0.9412001247
 6	3.2807196455	0.4069534939	-0.5077998753
 8	3.5917196455	-0.7320465061	-0.8587998753
 7	3.1987196455	1.4119534939	-1.3647998753
 1	2.1267196455	1.4239534939	0.9722001247
 1	3.8257196455	1.2869534939	1.3542001247
 1	3.3867196455	1.2279534939	-2.3407998753
 1	2.9347196455	2.3369534939	-1.0577998753
 1	2.7377096455	-0.1417465061	1.5451101247
$end
$rem
EDA2		1
METHOD		WB97X-V
BASIS		DEF2-TZVPD
XC_GRID		000099000590
NL_GRID		1
UNRESTRICTED		FALSE
MAX_SCF_CYCLES		200
SYMMETRY		FALSE
SYM_IGNORE		TRUE
BASIS_LIN_DEP_THRESH		6
THRESH		14
SCF_CONVERGENCE		8
SCF_PRINT_FRGM		TRUE
SOLVENT_METHOD		PCM
!required keywords
JOBTYPE		SP
SYM_IGNORE		TRUE
SUBSYSTEM		TRUE
GEN_SCFMAN		TRUE
CHILD_INSTRUCTION		2
SYM_IGNORE		TRUE
SCFMI		0
RI_K 0		
PARI_K 0		
MIN_PARI_K 0		
IARI_K 0		
OCC_RI_K 0		
PURECART		1111
MEM_STATIC		2000
MEM_TOTAL		96000
GUI		0
CHILD_MP		1
CHILD_MP_ORDERS		232
FRZ_RELAX		0
FRZ_RELAX_METHOD		0
EDA_CLS_ELEC		1
EDA_CLS_DISP		0
FRZ_ORTHO_DECOMP		1
EDA2		FALSE
FRGM_METHOD		FALSE
CIS_N_ROOTS  0
LOCAL_CIS    0
CIS_RLX_DNS  1
$end
$pcm
THEORY                  CPCM
METHOD                  SWIG
SOLVER                  INVERSION
RADII                   UFF
HPOINTS                 302
HEAVYPOINTS             302
PRINTLEVEL              0
$end
$solvent
DIELECTRIC              78.390000 ! water
$end
--------------------------------------------------------------
 ----------------------------------------------------------------
             Standard Nuclear Orientation (Angstroms)
    I     Atom           X                Y                Z
 ----------------------------------------------------------------
    1      C       2.9807196455     0.7449534939     0.9412001247
    2      C       3.2807196455     0.4069534939    -0.5077998753
    3      O       3.5917196455    -0.7320465061    -0.8587998753
    4      N       3.1987196455     1.4119534939    -1.3647998753
    5      H       2.1267196455     1.4239534939     0.9722001247
    6      H       3.8257196455     1.2869534939     1.3542001247
    7      H       3.3867196455     1.2279534939    -2.3407998753
    8      H       2.9347196455     2.3369534939    -1.0577998753
    9      H       2.7377096455    -0.1417465061     1.5451101247
 ----------------------------------------------------------------
 Nuclear Repulsion Energy =         122.26292277 hartrees
 There are       16 alpha and       16 beta electrons
 Requested basis set is def2-TZVPD
 There are 78 shells and 196 basis functions

 Total QAlloc Memory Limit  96000 MB
 Mega-Array Size      1956 MB
 MEM_STATIC part      2000 MB
 Discretize the solute cavity surface with Lebedev spheres
	Using 302 Lebedev grid points for each H atom
	Using 302 Lebedev grid points for other atoms
	Atomic van der Waals radii will be scaled by 1.20
 Remove points where switching function is < 1.0e-08
 Keep 1196 surface tesserae and discard 1522 interior tesserae
 Molecular Surface Area = 128.729 Angst**2

                       Distance Matrix (Angstroms)
             C (  1)   C (  2)   O (  3)   N (  4)   H (  5)   H (  6)
   C (  2)  1.517842
   O (  3)  2.407249  1.231764
   N (  4)  2.410404  1.323328  2.237682
   H (  5)  1.091475  2.134574  3.185455  2.571166
   H (  6)  1.085522  2.130368  3.004744  2.793155  1.746795
   H (  7)  3.342102  2.011260  2.465755  1.010829  3.549927  3.721455
   H (  8)  2.555891  2.036447  3.144839  1.009738  2.367981  2.777431
   H (  9)  1.099999  2.193256  2.618505  3.330779  1.775655  1.805934
             H (  7)   H (  8)
   H (  8)  1.755071
   H (  9)  4.171042  3.599709
 
 A cutoff of  1.0D-14 yielded   3054 shell pairs
 There are     19544 function pairs (     24702 Cartesian)
 Smallest overlap matrix eigenvalue = 1.07E-05

 Scale SEOQF with 1.000000e-01/1.000000e-01/1.000000e-01

 Standard Electronic Orientation quadrupole field applied
 Nucleus-field energy     =     0.0000000105 hartrees
 Guess from superposition of atomic densities
 Warning:  Energy on first SCF cycle will be non-variational
 SAD guess density has 31.604610 electrons

 -----------------------------------------------------------------------
  General SCF calculation program by
  Eric Jon Sundstrom, Paul Horn, Yuezhi Mao, Dmitri Zuev, Alec White,
  David Stuck, Shaama M.S., Shane Yost, Joonho Lee, David Small,
  Daniel Levine, Susi Lehtola, Hugh Burton, Evgeny Epifanovsky
 -----------------------------------------------------------------------
 Exchange:     0.1670 Hartree-Fock + 1.0000 wB97X-V + LR-HF
 Correlation:  1.0000 wB97X-V
 Using Euler-Maclaurin-Lebedev (99,590) quadrature formula
 Nonlocal Correlation:  VV10 with C = 0.0100 and b = 6.00 and scale = 1.00000
 Grid used for NLC:  SG-1 standard quadrature
Energy prior to optimization (guess energy) = -208.704030313803
Begin Timing: Total SCF Calculation
begin iterations for algorithm: DIIS         
the SCF tolerance is set to 1.00e-08
    1    -208.7040303138      1.26e-02     00000 
    2    -208.3094045143      1.56e-02     00000 
    3    -209.2227184584      2.51e-03     00000 
    4    -209.2429930525      8.30e-04     00000 
    5    -209.2457277756      1.25e-04     00000 
    6    -209.2458277501      4.96e-05     00000 
    7    -209.2458452024      1.13e-05     00000 
    8    -209.2458463889      2.12e-06     00000 
    9    -209.2458464819      7.76e-07     00000 
   10    -209.2458464877      3.26e-07     00000 
   11    -209.2458464886      7.35e-08     00000 
   12    -209.2458464887      1.68e-08     00000 
   13    -209.2458464887      4.34e-09     00000 Convergence criterion met
Timing for Total SCF: 366.00s (wall), 724.65s (cpu)

************** Final PCM Free Energy Summary **************
 G_electrostatic  =      -0.01232201 hartree =      -7.73218089 kcal/mol
 G_cavitation     =       0.00000000 hartree =       0.00000000 kcal/mol
 G_dispersion     =       0.00000000 hartree =       0.00000000 kcal/mol
 G_repulsion      =       0.00000000 hartree =       0.00000000 kcal/mol
 --------------------------------------------------
 Non-electrostatic Free Energy =       0.00000000 hartree =       0.00000000 kcal/mol
 Total                         =      -0.01232201 hartree =      -7.73218089 kcal/mol
 --------------------------------------------------
 SCF Energy (H0 + V/2)                       =    -209.24584649 
 Solute Internal Energy (H0)                 =    -209.23352447 
 Total Free Energy (H0 + V/2 + non-elec)     =    -209.24584649 hartree
                                             = -131303.75043908 kcal/mol
***********************************************************

E_pcm = -0.0123220146
Multipole orders to be included
        2
        3
computing dipole RHS
computing quadrupole RHS
total number of RHS in solve_reponses: 8
RHS batch sizes
        8
Beginning Block Conjugate Gradient Iterations. Batch Number: 0
computing hessian-vector products by finite difference
              1      6.64e-01     00000 Conjugate Gradient Iteration
computing hessian-vector products by finite difference
              2      2.22e-01     00000 Conjugate Gradient Iteration
computing hessian-vector products by finite difference
              3      5.78e-02     00000 Conjugate Gradient Iteration
computing hessian-vector products by finite difference
              4      1.47e-02     00000 Conjugate Gradient Iteration
computing hessian-vector products by finite difference
              5      2.26e-03     00000 Conjugate Gradient Iteration
computing hessian-vector products by finite difference
              6      5.10e-04     00000 Conjugate Gradient Iteration
computing hessian-vector products by finite difference
              7      7.73e-05     00000 Conjugate Gradient Iteration
computing hessian-vector products by finite difference
              8      9.33e-06     00000 Conjugate Gradient Iteration
computing hessian-vector products by finite difference
              9      1.30e-06     00000 Conjugate Gradient Iteration
computing hessian-vector products by finite difference
             10      1.36e-07     00000 Conjugate Gradient Iteration
computing hessian-vector products by finite difference
             11      1.99e-08     00000 Conjugate Gradient Iteration
computing hessian-vector products by finite difference
             12      5.75e-09     00000 CG Converged
batch 0 complete
Done Calculating Responses
TESTING ORTHOGONALIZATION OF MULTIPOLE BASIS
Multipole virts passed orthogonality test
Virts Per Order
        48
        80
 
 --------------------------------------------------------------
 
                    Orbital Energies (a.u.)
 --------------------------------------------------------------
 
 Alpha MOs
 -- Occupied --
-19.1786 -14.4343 -10.3777 -10.2725  -1.1706  -1.0473  -0.8713  -0.7153
 -0.6616  -0.5891  -0.5694  -0.5174  -0.5089  -0.4823  -0.3831  -0.3676
 -- Virtual --
  0.0588   0.0905   0.0943   0.0970   0.1256   0.1281   0.1356   0.1403
  0.1676   0.1831   0.1953   0.2088   0.2254   0.2404   0.2436   0.2542
  0.2560   0.2718   0.2981   0.3073   0.3280   0.3312   0.3419   0.3441
  0.3543   0.3652   0.3719   0.3799   0.3886   0.3990   0.4139   0.4208
  0.4276   0.4503   0.4540   0.4750   0.4801   0.4838   0.4884   0.5017
  0.5260   0.5291   0.5349   0.5689   0.5835   0.5890   0.6271   0.6363
  0.6523   0.6560   0.6660   0.6865   0.6986   0.7131   0.7295   0.7642
  0.7719   0.7812   0.7957   0.8050   0.8121   0.8340   0.8457   0.8730
  0.9140   0.9454   0.9786   0.9940   1.0062   1.0376   1.0512   1.1046
  1.1080   1.1749   1.2229   1.2514   1.2790   1.3113   1.3403   1.3838
  1.4755   1.4806   1.5002   1.6139   1.6748   1.7310   1.7440   1.8086
  1.8414   1.8618   1.8805   1.9208   1.9252   1.9421   1.9928   2.0188
  2.0561   2.0860   2.1424   2.1776   2.2243   2.2613   2.3063   2.3344
  2.3708   2.4038   2.4438   2.4755   2.5400   2.5517   2.6013   2.6411
  2.6827   2.7309   2.7384   2.8186   2.8389   2.9007   2.9498   2.9865
  3.0310   3.1047   3.1330   3.1749   3.2002   3.2217   3.2668   3.2813
  3.3101   3.3229   3.3452   3.4084   3.4515   3.5215   3.5414   3.5775
  3.6186   3.6500   3.7111   3.7628   3.8730   3.9351   4.0148   4.0498
  4.0632   4.1819   4.3227   4.3796   4.5407   4.5920   4.6040   4.6477
  4.7838   4.8865   4.8917   4.9257   5.1404   5.1785   5.2680   5.3501
  5.3801   5.3932   5.4099   5.4817   5.5287   5.7702   5.9102   6.1415
  6.2586   6.5231   6.6390   6.7359   6.8257   6.9797   7.2300   7.3226
 22.5913  23.5787  32.4120  44.3131
 --------------------------------------------------------------
 
          Ground-State Mulliken Net Atomic Charges

     Atom                 Charge (a.u.)
  ----------------------------------------
      1 C                    -0.645824
      2 C                     0.441044
      3 O                    -0.584563
      4 N                    -0.264627
      5 H                     0.241150
      6 H                     0.214410
      7 H                     0.212648
      8 H                     0.189999
      9 H                     0.195764
  ----------------------------------------
  Sum of atomic charges =     0.000000

 -----------------------------------------------------------------
                    Cartesian Multipole Moments
 -----------------------------------------------------------------
    Charge (ESU x 10^10)
                -0.0000
    Dipole Moment (Debye)
         X      -1.2175      Y       5.1005      Z       0.4409
       Tot       5.2623
    Quadrupole Moments (Debye-Ang)
        XX     -33.2833     XY      16.6700     YY     -20.8594
        XZ       1.8952     YZ      -4.9504     ZZ     -20.9533
    Octopole Moments (Debye-Ang^2)
       XXX    -285.2416    XXY      41.9995    XYY     -71.0314
       YYY     -22.0981    XXZ      18.9183    XYZ     -16.1437
       YYZ       5.2666    XZZ     -67.4836    YZZ      -3.7510
       ZZZ      16.3909
    Hexadecapole Moments (Debye-Ang^3)
      XXXX   -1806.5226   XXXY      67.5196   XXYY    -276.5095
      XYYY     -67.8748   YYYY    -133.6558   XXXZ     150.4036
      XXYZ     -45.5813   XYYZ      23.4438   YYYZ      -0.9540
      XXZZ    -257.9390   XYZZ      -5.6982   YYZZ     -50.7134
      XZZZ      61.6289   YZZZ      -7.2120   ZZZZ    -156.3228
 -----------------------------------------------------------------
Archival summary:
1\1\nid00544\SP\ProcedureUnspecified\BasisUnspecified\1125\meili\SunSep2610:52:552021SunSep2610:52:552021\0\\#,ProcedureUnspecified,BasisUnspecified,\\0,1\C\O,1,1.23176\N,1,1.32333,2,122.233\H,3,1.00974,1,120.999,2,179.502,0\H,3,1.01083,1,118.394,2,0.860111,0\C,1,1.51784,2,121.86,3,-179.397,0\H,6,1.08552,1,108.695,2,104.716,0\H,6,1.09148,1,108.68,2,-139.5,0\H,6,1.1,1,112.847,2,-19.4338,0\\\@

 Total job time:  6309.52s(wall), 12465.30s(cpu) 
 Sun Sep 26 10:52:55 2021

        *************************************************************
        *                                                           *
        *  Thank you very much for using Q-Chem.  Have a nice day.  *
        *                                                           *
        *************************************************************


Done Job For Fragment 0
calling putenv with: QCSCRATCH=/global/cscratch1/sd/meili 
calling putenv with: QCLOCALSCR=/tmp 
calling putenv with: QCTHREADS=32 
Creating input file /tmp/qchem17305/Frg2.input
using default PutDataFrgm: nothing
calling putenv with: QCSCRATCH=/tmp/qchem17305/ 
calling putenv with: QCLOCALSCR=/tmp/qchem17305/ 
Spawning Job For Fragment 1
                  Welcome to Q-Chem
     A Quantum Leap Into The Future Of Chemistry


 Q-Chem 5.2, Q-Chem, Inc., Pleasanton, CA (2019)

 License issued to: National Energy Research Scientific Computing Center

 Yihan Shao,  Zhengting Gan,  E. Epifanovsky,  A. T. B. Gilbert,  M. Wormit,  
 J. Kussmann,  A. W. Lange,  A. Behn,  Jia Deng,  Xintian Feng,  D. Ghosh,  
 M. Goldey,  P. R. Horn,  L. D. Jacobson,  I. Kaliman,  T. Kus,  A. Landau,  
 Jie Liu,  E. I. Proynov,  R. M. Richard,  R. P. Steele,  E. J. Sundstrom,  
 H. L. Woodcock III,  P. M. Zimmerman,  D. Zuev,  B. Albrecht,  E. Alguire,  
 S. A. Baeppler,  D. Barton,  Z. Benda,  Y. A. Bernard,  E. J. Berquist,  
 K. B. Bravaya,  H. Burton,  D. Casanova,  Chun-Min Chang,  Yunqing Chen,  
 A. Chien,  K. D. Closser,  M. P. Coons,  S. Coriani,  S. Dasgupta,  
 A. L. Dempwolff,  M. Diedenhofen,  Hainam Do,  R. G. Edgar,  Po-Tung Fang,  
 S. Faraji,  S. Fatehi,  Qingguo Feng,  K. D. Fenk,  J. Fosso-Tande,  
 J. Gayvert,  Qinghui Ge,  A. Ghysels,  G. Gidofalvi,  J. Gomes,  
 J. Gonthier,  A. Gunina,  D. Hait,  M. W. D. Hanson-Heine,  
 P. H. P. Harbach,  A. W. Hauser,  M. F. Herbst,  J. E. Herr,  
 E. G. Hohenstein,  Z. C. Holden,  Kerwin Hui,  B. C. Huynh,  T.-C. Jagau,  
 Hyunjun Ji,  B. Kaduk,  K. Khistyaev,  Jaehoon Kim,  P. Klunzinger,  K. Koh,  
 D. Kosenkov,  L. Koulias,  T. Kowalczyk,  C. M. Krauter,  A. Kunitsa,  
 Ka Un Lao,  A. Laurent,  K. V. Lawler,  Joonho Lee,  D. Lefrancois,  
 S. Lehtola,  D. S. Levine,  Yi-Pei Li,  You-Sheng Lin,  Fenglai Liu,  
 E. Livshits,  A. Luenser,  P. Manohar,  E. Mansoor,  S. F. Manzer,  
 Shan-Ping Mao,  Yuezhi Mao,  N. Mardirossian,  A. V. Marenich,  
 T. Markovich,  L. A. Martinez-Martinez,  S. A. Maurer,  N. J. Mayhall,  
 S. C. McKenzie,  J.-M. Mewes,  P. Morgante,  A. F. Morrison,  
 J. W. Mullinax,  K. Nanda,  T. S. Nguyen-Beck,  R. Olivares-Amaya,  
 J. A. Parkhill,  Zheng Pei,  T. M. Perrine,  F. Plasser,  P. Pokhilko,  
 S. Prager,  A. Prociuk,  E. Ramos,  D. R. Rehn,  F. Rob,  M. Scheurer,  
 M. Schneider,  N. Sergueev,  S. M. Sharada,  S. Sharma,  D. W. Small,  
 T. Stauch,  T. Stein,  Yu-Chuan Su,  A. J. W. Thom,  A. Tkatchenko,  
 T. Tsuchimochi,  N. M. Tubman,  L. Vogt,  M. L. Vidal,  O. Vydrov,  
 M. A. Watson,  J. Wenzel,  M. de Wergifosse,  T. A. Wesolowski,  A. White,  
 J. Witte,  A. Yamada,  Jun Yang,  K. Yao,  S. Yeganeh,  S. R. Yost,  
 Zhi-Qiang You,  A. Zech,  Igor Ying Zhang,  Xing Zhang,  Yan Zhao,  
 Ying Zhu,  B. R. Brooks,  G. K. L. Chan,  C. J. Cramer,  M. S. Gordon,  
 W. J. Hehre,  A. Klamt,  M. W. Schmidt,  C. D. Sherrill,  D. G. Truhlar,  
 A. Aspuru-Guzik,  R. Baer,  A. T. Bell,  N. A. Besley,  Jeng-Da Chai,  
 A. E. DePrince, III,  R. A. DiStasio Jr.,  A. Dreuw,  B. D. Dunietz,  
 T. R. Furlani,  Chao-Ping Hsu,  Yousung Jung,  Jing Kong,  D. S. Lambrecht,  
 WanZhen Liang,  C. Ochsenfeld,  V. A. Rassolov,  L. V. Slipchenko,  
 J. E. Subotnik,  T. Van Voorhis,  J. M. Herbert,  A. I. Krylov,  
 P. M. W. Gill,  M. Head-Gordon

 Contributors to earlier versions of Q-Chem not listed above: 
 R. D. Adamson,  B. Austin,  J. Baker,  G. J. O. Beran,  K. Brandhorst,  
 S. T. Brown,  E. F. C. Byrd,  A. K. Chakraborty,  C.-L. Cheng,  
 Siu Hung Chien,  D. M. Chipman,  D. L. Crittenden,  H. Dachsel,  
 R. J. Doerksen,  A. D. Dutoi,  L. Fusti-Molnar,  W. A. Goddard III,  
 A. Golubeva-Zadorozhnaya,  S. R. Gwaltney,  G. Hawkins,  A. Heyden,  
 S. Hirata,  G. Kedziora,  F. J. Keil,  C. Kelley,  Jihan Kim,  R. A. King,  
 R. Z. Khaliullin,  P. P. Korambath,  W. Kurlancheek,  A. M. Lee,  M. S. Lee,  
 S. V. Levchenko,  Ching Yeh Lin,  D. Liotard,  R. C. Lochan,  I. Lotan,  
 P. E. Maslen,  N. Nair,  D. P. O'Neill,  D. Neuhauser,  E. Neuscamman,  
 C. M. Oana,  R. Olson,  B. Peters,  R. Peverati,  P. A. Pieniazek,  
 Y. M. Rhee,  J. Ritchie,  M. A. Rohrdanz,  E. Rosta,  N. J. Russ,  
 H. F. Schaefer III,  N. E. Schultz,  N. Shenvi,  A. C. Simmonett,  A. Sodt,  
 D. Stuck,  K. S. Thanthiriwatte,  V. Vanovschi,  Tao Wang,  A. Warshel,  
 C. F. Williams,  Q. Wu,  X. Xu,  W. Zhang

 Please cite Q-Chem as follows:
 Y. Shao et al., Mol. Phys. 113, 184-215 (2015)
 DOI: 10.1080/00268976.2014.952696

 Q-Chem 5.2.0 for Intel X86 EM64T Linux

 Parts of Q-Chem use Armadillo 8.300.2 (Tropical Shenanigans).
 http://arma.sourceforge.net/

 Q-Chem begins on Sun Sep 26 10:52:57 2021  

Host: cori01
0

     Scratch files written to /tmp/qchem17305//Frg2//
 May1019 |scratch|qcdevops|jenkins|workspace|build_RNUM -1
Processing $rem in /global/common/cori/software/qchem/5.2/config/preferences:
	 MEM_TOTAL  96000 
NAlpha2: 50
NElect   50
Mult     1
Symmetry turned off for PCM/SM12/SMD calculation

Checking the input file for inconsistencies... 	...done.

--------------------------------------------------------------
User input:
--------------------------------------------------------------
$molecule
0 1
 6	-3.2332803545	0.0599534939	2.4412001247
 6	-0.5432803545	0.0069534939	-0.2787998753
 6	-1.1902803545	0.2129534939	0.9532001247
 6	-1.2312803545	-0.5840465061	-1.3377998753
 6	-2.5262803545	-0.1660465061	1.1262001247
 6	-2.5622803545	-0.9600465061	-1.1667998753
 6	-3.2042803545	-0.7500465061	0.0582001247
 1	0.4787196455	0.3239534939	-0.4217998753
 1	-0.6572803545	0.6799534939	1.7692001247
 1	-0.7402803545	-0.7380465061	-2.2897998753
 1	-3.1032803545	-1.4130465061	-1.9887998753
 1	-2.6052803545	-0.3360465061	3.2352001247
 1	-4.1792803545	-0.4850465061	2.4442001247
 1	-4.2392803545	-1.0410465061	0.1722001247
 1	-3.4254313545	1.1203944939	2.6615201247
$end
$rem
EDA2		1
METHOD		WB97X-V
BASIS		DEF2-TZVPD
XC_GRID		000099000590
NL_GRID		1
UNRESTRICTED		FALSE
MAX_SCF_CYCLES		200
SYMMETRY		FALSE
SYM_IGNORE		TRUE
BASIS_LIN_DEP_THRESH		6
THRESH		14
SCF_CONVERGENCE		8
SCF_PRINT_FRGM		TRUE
SOLVENT_METHOD		PCM
!required keywords
JOBTYPE		SP
SYM_IGNORE		TRUE
SUBSYSTEM		TRUE
GEN_SCFMAN		TRUE
CHILD_INSTRUCTION		2
SYM_IGNORE		TRUE
SCFMI		0
RI_K 0		
PARI_K 0		
MIN_PARI_K 0		
IARI_K 0		
OCC_RI_K 0		
PURECART		1111
MEM_STATIC		2000
MEM_TOTAL		96000
GUI		0
CHILD_MP		1
CHILD_MP_ORDERS		232
FRZ_RELAX		0
FRZ_RELAX_METHOD		0
EDA_CLS_ELEC		1
EDA_CLS_DISP		0
FRZ_ORTHO_DECOMP		1
EDA2		FALSE
FRGM_METHOD		FALSE
CIS_N_ROOTS  0
LOCAL_CIS    0
CIS_RLX_DNS  1
$end
$pcm
THEORY                  CPCM
METHOD                  SWIG
SOLVER                  INVERSION
RADII                   UFF
HPOINTS                 302
HEAVYPOINTS             302
PRINTLEVEL              0
$end
$solvent
DIELECTRIC              78.390000 ! water
$end
--------------------------------------------------------------
 ----------------------------------------------------------------
             Standard Nuclear Orientation (Angstroms)
    I     Atom           X                Y                Z
 ----------------------------------------------------------------
    1      C      -3.2332803545     0.0599534939     2.4412001247
    2      C      -0.5432803545     0.0069534939    -0.2787998753
    3      C      -1.1902803545     0.2129534939     0.9532001247
    4      C      -1.2312803545    -0.5840465061    -1.3377998753
    5      C      -2.5262803545    -0.1660465061     1.1262001247
    6      C      -2.5622803545    -0.9600465061    -1.1667998753
    7      C      -3.2042803545    -0.7500465061     0.0582001247
    8      H       0.4787196455     0.3239534939    -0.4217998753
    9      H      -0.6572803545     0.6799534939     1.7692001247
   10      H      -0.7402803545    -0.7380465061    -2.2897998753
   11      H      -3.1032803545    -1.4130465061    -1.9887998753
   12      H      -2.6052803545    -0.3360465061     3.2352001247
   13      H      -4.1792803545    -0.4850465061     2.4442001247
   14      H      -4.2392803545    -1.0410465061     0.1722001247
   15      H      -3.4254313545     1.1203944939     2.6615201247
 ----------------------------------------------------------------
 Nuclear Repulsion Energy =         269.00461406 hartrees
 There are       25 alpha and       25 beta electrons
 Requested basis set is def2-TZVPD
 There are 131 shells and 331 basis functions

 Total QAlloc Memory Limit  96000 MB
 Mega-Array Size      1956 MB
 MEM_STATIC part      2000 MB
 Discretize the solute cavity surface with Lebedev spheres
	Using 302 Lebedev grid points for each H atom
	Using 302 Lebedev grid points for other atoms
	Atomic van der Waals radii will be scaled by 1.20
 Remove points where switching function is < 1.0e-08
 Keep 1803 surface tesserae and discard 2727 interior tesserae
 Molecular Surface Area = 178.343 Angst**2

                       Distance Matrix (Angstroms)
             C (  1)   C (  2)   C (  3)   C (  4)   C (  5)   C (  6)
   C (  2)  3.825874
   C (  3)  2.532075  1.406723
   C (  4)  4.324764  1.394312  2.426020
   C (  5)  1.510017  2.436441  1.399452  2.814790
   C (  6)  3.808977  2.408318  2.784369  1.393620  2.426846
   C (  7)  2.517068  2.787030  2.405117  2.422623  1.393328  1.398888
   H (  8)  4.695254  1.079547  2.165296  2.141873  3.415615  3.383986
   H (  9)  2.733452  2.158756  1.080756  3.403031  2.149960  3.865064
   H ( 10)  5.406867  2.153591  3.409391  1.082174  3.896926  2.151766
   H ( 11)  4.670281  3.390295  3.867662  2.148354  3.404580  1.083316
   H ( 12)  1.087031  4.088727  2.740648  4.781392  2.117315  4.446215
   H ( 13)  1.091765  4.569167  3.412390  4.796252  2.138058  3.984926
   H ( 14)  2.715253  3.868090  3.388049  3.396618  2.147117  2.147513
   H ( 15)  1.099999  4.265211  2.955961  4.869700  2.195589  4.441767
             C (  7)   H (  8)   H (  9)   H ( 10)   H ( 11)   H ( 12)
   H (  8)  3.866312
   H (  9)  3.385208  2.493534
   H ( 10)  3.403607  2.470471  4.300360
   H ( 11)  2.154061  4.278245  4.948346  2.475883
   H ( 12)  3.259375  4.829110  2.641234  5.845122  5.357062
   H ( 13)  2.591109  5.528598  3.770588  5.856747  4.655153  1.767868
   H ( 14)  1.081158  4.947281  4.282870  4.289085  2.469575  3.542450
   H ( 15)  3.213212  5.038212  2.941578  5.931223  5.305429  1.767195
             H ( 13)   H ( 14)
   H ( 14)  2.339812
   H ( 15)  1.786885  3.395717
 
 A cutoff of  1.0D-14 yielded   8360 shell pairs
 There are     54504 function pairs (     69458 Cartesian)
 Smallest overlap matrix eigenvalue = 5.85E-07
 Linear dependence detected in AO basis
 Tighter screening thresholds may be required for diffuse basis sets
 Use S2THRESH > 14 and THRESH = 14 in case of SCF convergence issues
 Number of orthogonalized atomic orbitals = 330
 Maximum deviation from orthogonality = 1.529E-10

 Scale SEOQF with 1.000000e-01/1.000000e-01/1.000000e-01

 Standard Electronic Orientation quadrupole field applied
 Nucleus-field energy     =     0.0000000003 hartrees
 Guess from superposition of atomic densities
 Warning:  Energy on first SCF cycle will be non-variational
 SAD guess density has 49.913408 electrons

 -----------------------------------------------------------------------
  General SCF calculation program by
  Eric Jon Sundstrom, Paul Horn, Yuezhi Mao, Dmitri Zuev, Alec White,
  David Stuck, Shaama M.S., Shane Yost, Joonho Lee, David Small,
  Daniel Levine, Susi Lehtola, Hugh Burton, Evgeny Epifanovsky
 -----------------------------------------------------------------------
 Exchange:     0.1670 Hartree-Fock + 1.0000 wB97X-V + LR-HF
 Correlation:  1.0000 wB97X-V
 Using Euler-Maclaurin-Lebedev (99,590) quadrature formula
 Nonlocal Correlation:  VV10 with C = 0.0100 and b = 6.00 and scale = 1.00000
 Grid used for NLC:  SG-1 standard quadrature
Energy prior to optimization (guess energy) = -271.521498053802
Begin Timing: Total SCF Calculation
begin iterations for algorithm: DIIS         
the SCF tolerance is set to 1.00e-08
    1    -271.5214980538      1.93e-03     00000 
    2    -271.5600335997      1.23e-03     00000 
    3    -271.5812496241      1.38e-04     00000 
    4    -271.5816680618      4.76e-05     00000 
    5    -271.5817016760      1.66e-05     00000 
    6    -271.5817064199      4.19e-06     00000 
    7    -271.5817067626      1.91e-06     00000 
    8    -271.5817068252      3.40e-07     00000 
    9    -271.5817068286      7.57e-08     00000 
   10    -271.5817068288      4.54e-08     00000 
   11    -271.5817068289      1.43e-08     00000 
   12    -271.5817068289      6.05e-09     00000 Convergence criterion met
Timing for Total SCF: 1441.00s (wall), 2862.24s (cpu)

************** Final PCM Free Energy Summary **************
 G_electrostatic  =      -0.00256175 hartree =      -1.60752360 kcal/mol
 G_cavitation     =       0.00000000 hartree =       0.00000000 kcal/mol
 G_dispersion     =       0.00000000 hartree =       0.00000000 kcal/mol
 G_repulsion      =       0.00000000 hartree =       0.00000000 kcal/mol
 --------------------------------------------------
 Non-electrostatic Free Energy =       0.00000000 hartree =       0.00000000 kcal/mol
 Total                         =      -0.00256175 hartree =      -1.60752360 kcal/mol
 --------------------------------------------------
 SCF Energy (H0 + V/2)                       =    -271.58170683 
 Solute Internal Energy (H0)                 =    -271.57914508 
 Total Free Energy (H0 + V/2 + non-elec)     =    -271.58170683 hartree
                                             = -170420.09318547 kcal/mol
***********************************************************

E_pcm = -0.0025617519
Multipole orders to be included
        2
        3
computing dipole RHS
computing quadrupole RHS
total number of RHS in solve_reponses: 8
RHS batch sizes
        8
Beginning Block Conjugate Gradient Iterations. Batch Number: 0
computing hessian-vector products by finite difference
              1      5.79e-01     00000 Conjugate Gradient Iteration
computing hessian-vector products by finite difference
              2      1.89e-01     00000 Conjugate Gradient Iteration
computing hessian-vector products by finite difference
              3      4.35e-02     00000 Conjugate Gradient Iteration
computing hessian-vector products by finite difference
              4      1.02e-02     00000 Conjugate Gradient Iteration
computing hessian-vector products by finite difference
              5      2.28e-03     00000 Conjugate Gradient Iteration
computing hessian-vector products by finite difference
              6      5.83e-04     00000 Conjugate Gradient Iteration
computing hessian-vector products by finite difference
              7      1.61e-04     00000 Conjugate Gradient Iteration
computing hessian-vector products by finite difference
              8      2.54e-05     00000 Conjugate Gradient Iteration
computing hessian-vector products by finite difference
              9      3.12e-06     00000 Conjugate Gradient Iteration
computing hessian-vector products by finite difference
             10      5.17e-07     00000 Conjugate Gradient Iteration
computing hessian-vector products by finite difference
             11      9.23e-08     00000 Conjugate Gradient Iteration
computing hessian-vector products by finite difference
             12      1.26e-08     00000 Conjugate Gradient Iteration
computing hessian-vector products by finite difference
             13      2.83e-09     00000 CG Converged
batch 0 complete
Done Calculating Responses
TESTING ORTHOGONALIZATION OF MULTIPOLE BASIS
Multipole virts passed orthogonality test
Virts Per Order
           75
          125
 
 --------------------------------------------------------------
 
                    Orbital Energies (a.u.)
 --------------------------------------------------------------
 
 Alpha MOs
 -- Occupied --
-10.2838 -10.2760 -10.2747 -10.2728 -10.2718 -10.2709 -10.2634  -0.9954
 -0.9071  -0.8770  -0.8140  -0.7313  -0.7050  -0.6297  -0.5736  -0.5684
 -0.5342  -0.5286  -0.5153  -0.4904  -0.4721  -0.4428  -0.4412  -0.3478
 -0.3389
 -- Virtual --
  0.0605   0.0631   0.0681   0.0789   0.0845   0.1042   0.1100   0.1136
  0.1351   0.1539   0.1647   0.1715   0.1822   0.1901   0.1944   0.1981
  0.2217   0.2264   0.2329   0.2395   0.2463   0.2562   0.2593   0.2692
  0.2782   0.2824   0.2863   0.2901   0.2932   0.3000   0.3028   0.3108
  0.3220   0.3238   0.3288   0.3390   0.3488   0.3512   0.3647   0.3715
  0.3727   0.3803   0.3845   0.3884   0.3917   0.3981   0.4010   0.4046
  0.4129   0.4274   0.4298   0.4346   0.4390   0.4466   0.4503   0.4569
  0.4652   0.4707   0.4749   0.4826   0.4893   0.4958   0.5091   0.5126
  0.5152   0.5217   0.5306   0.5410   0.5443   0.5493   0.5543   0.5660
  0.5713   0.5787   0.5880   0.5937   0.5978   0.6234   0.6337   0.6401
  0.6680   0.6720   0.6806   0.6835   0.6911   0.7019   0.7178   0.7223
  0.7282   0.7317   0.7441   0.7609   0.7621   0.7654   0.7736   0.7827
  0.7871   0.7919   0.7950   0.8003   0.8072   0.8212   0.8251   0.8280
  0.8318   0.8351   0.8476   0.8554   0.8620   0.8643   0.8801   0.8938
  0.9109   0.9251   0.9349   0.9446   0.9491   1.0020   1.0282   1.0384
  1.0466   1.0595   1.0631   1.0725   1.0881   1.0959   1.1000   1.1390
  1.1585   1.1693   1.2581   1.2700   1.2924   1.3256   1.3515   1.3529
  1.3739   1.4364   1.4487   1.4549   1.4589   1.4728   1.5239   1.5328
  1.6023   1.6092   1.6164   1.6244   1.6482   1.6747   1.7336   1.7694
  1.7834   1.7921   1.7994   1.8104   1.8311   1.8523   1.8802   1.9093
  1.9138   1.9202   1.9289   1.9663   1.9863   1.9877   2.0130   2.0243
  2.0316   2.0442   2.0663   2.0870   2.1045   2.1187   2.1708   2.1867
  2.1990   2.2306   2.2441   2.2671   2.2896   2.3075   2.3776   2.3909
  2.4029   2.4164   2.4696   2.5121   2.5405   2.5498   2.5576   2.6074
  2.6083   2.6354   2.6607   2.6757   2.6975   2.7089   2.7534   2.7662
  2.7784   2.8014   2.8071   2.8399   2.8582   2.8933   2.9035   2.9149
  2.9301   2.9344   2.9685   2.9786   2.9941   3.0150   3.0183   3.0446
  3.0548   3.0810   3.0935   3.1204   3.1614   3.1912   3.1953   3.2166
  3.2248   3.2497   3.2799   3.2860   3.3374   3.3548   3.3571   3.3725
  3.4051   3.4290   3.4414   3.4422   3.4572   3.4733   3.4811   3.4907
  3.5031   3.5309   3.5388   3.5415   3.5471   3.5644   3.5689   3.6031
  3.6184   3.6257   3.6534   3.6876   3.7099   3.7422   3.7653   3.8079
  3.8473   3.8985   3.9118   3.9433   3.9467   3.9765   4.0250   4.0475
  4.1237   4.2002   4.2605   4.2627   4.2771   4.3000   4.3158   4.3325
  4.3410   4.3581   4.3788   4.3873   4.4128   4.4373   4.4784   4.5265
  4.5899   4.6133   4.7432   4.7748   4.8034   4.8472   4.9102   4.9382
  5.0098   5.0347   5.1622   5.2571   5.3465   5.3699   5.4867   5.5286
  5.6564   5.8410  22.5836  22.6711  22.8731  22.8824  22.9853  23.0539
 23.3963
 --------------------------------------------------------------
 
          Ground-State Mulliken Net Atomic Charges

     Atom                 Charge (a.u.)
  ----------------------------------------
      1 C                    -1.020841
      2 C                    -0.479414
      3 C                    -0.305056
      4 C                    -0.478768
      5 C                     0.854225
      6 C                    -0.511395
      7 C                    -0.390530
      8 H                     0.318211
      9 H                     0.347586
     10 H                     0.332711
     11 H                     0.308680
     12 H                     0.243969
     13 H                     0.269484
     14 H                     0.288545
     15 H                     0.222594
  ----------------------------------------
  Sum of atomic charges =     0.000000

 -----------------------------------------------------------------
                    Cartesian Multipole Moments
 -----------------------------------------------------------------
    Charge (ESU x 10^10)
                -0.0000
    Dipole Moment (Debye)
         X      -0.2133      Y       0.1349      Z       0.4278
       Tot       0.4967
    Quadrupole Moments (Debye-Ang)
        XX     -38.1138     XY       1.9798     YY     -44.9692
        XZ      -1.8870     YZ       2.2813     ZZ     -38.4464
    Octopole Moments (Debye-Ang^2)
       XXX     244.5720    XXY       3.6472    XYY      91.4716
       YYY      42.6812    XXZ      -7.9463    XYZ      -4.6211
       YYZ     -13.5005    XZZ      82.1938    YZZ      10.6608
       ZZZ     -40.1011
    Hexadecapole Moments (Debye-Ang^3)
      XXXX   -1376.2120   XXXY     -59.9764   XXYY    -268.9340
      XYYY    -113.6714   YYYY    -145.5397   XXXZ     142.2208
      XXYZ      -2.9293   XYYZ      55.8471   YYYZ     -43.1221
      XXZZ    -322.5460   XYZZ     -28.7606   YYZZ    -112.8966
      XZZZ     162.0240   YZZZ     -33.6215   ZZZZ    -541.0389
 -----------------------------------------------------------------
Archival summary:
1\1\nid00544\SP\ProcedureUnspecified\BasisUnspecified\78\meili\SunSep2618:54:562021SunSep2618:54:562021\0\\#,ProcedureUnspecified,BasisUnspecified,\\0,1\C\C,1,1.39333\H,2,1.08116,1,119.856\C,2,1.39889,1,120.719,3,179.704,0\H,4,1.08332,2,119.871,1,-179.851,0\C,4,1.39362,2,120.349,1,-0.138533,0\H,6,1.08217,4,120.191,2,-179.347,0\C,6,1.39431,4,119.5,2,-0.154223,0\H,8,1.07955,6,119.405,4,-178.221,0\C,1,1.39945,2,118.901,3,-179.481,0\H,10,1.08076,1,119.637,2,179.123,0\C,1,1.51002,2,120.16,3,0.0440537,0\H,12,1.08703,1,108.124,2,130.349,0\H,12,1.09176,1,109.474,2,12.365,0\H,12,1.1,1,113.609,2,-110.031,0\\\@

 Total job time:  28922.44s(wall), 57376.39s(cpu) 
 Sun Sep 26 18:54:59 2021

        *************************************************************
        *                                                           *
        *  Thank you very much for using Q-Chem.  Have a nice day.  *
        *                                                           *
        *************************************************************


Done Job For Fragment 1
calling putenv with: QCSCRATCH=/global/cscratch1/sd/meili 
calling putenv with: QCLOCALSCR=/tmp 
calling putenv with: QCTHREADS=32 
Doing General SCFMI
 Exchange:     0.1670 Hartree-Fock + 1.0000 wB97X-V + LR-HF
 Correlation:  1.0000 wB97X-V
 Using Euler-Maclaurin-Lebedev (99,590) quadrature formula
 Nonlocal Correlation:  VV10 with C = 0.0100 and b = 6.00 and scale = 1.00000
 Grid used for NLC:  SG-1 standard quadrature
performing fock build before subrot guess so that all methods have access
Printing subrot_rss_gen Method Specification:
Occupied Subspace Method is 0
Virtual Subspace Method is 0
Energy of the unrelaxed supersystem initial determinant -480.813497938798
performing fock build before subrot guess so that all methods have access
Printing subrot_rss_gen Method Specification:
Occupied Subspace Method is 0
Virtual Subspace Method is 0
Energy of the unrelaxed supersystem initial determinant w/ solvent -480.828601749331
write pseudocanon occs and virts to disk
write pseudocanon orbital energies to disk
Tolerance of ortho_decomp_scf: 1.00e-06
GDM subspace size: 20
Beginning the Orthogonal Decomposition of the Initial Supersystem Wavefunction
    1    -480.8056841536      1.58e-02     ortho_decomp Preconditoned Steepest Descent
    2    -480.8063361523      3.60e-04     ortho_decomp BFGS Step
    3    -480.8063378239      2.65e-05     ortho_decomp BFGS Step
    4    -480.8063378277      1.20e-06     ortho_decomp BFGS Step
    5    -480.8063378277      5.32e-08     ortho_decomp 00000 Convergence criterion met
 Hartree-Fock
 Hartree-Fock
 Hartree-Fock
Doing General SCFMI
 Exchange:     0.1670 Hartree-Fock + 1.0000 wB97X-V + LR-HF
 Correlation:  1.0000 wB97X-V
 Using Euler-Maclaurin-Lebedev (99,590) quadrature formula
 Nonlocal Correlation:  VV10 with C = 0.0100 and b = 6.00 and scale = 1.00000
 Grid used for NLC:  SG-1 standard quadrature
performing fock build at end of subrot_r(subrot) constructor so that all methods have access
<S^2> of initial wavefunction before polarization iterations 0.0000000000
Beginning iterations for the determination of the polarized wavefunction
Energy prior to optimization (guess energy) = -480.828601749332
Begin Timing: Total SCF Calculation
begin iterations for algorithm: DIIS         
the SCF tolerance is set to 1.00e-08
    1    -480.8286017493      5.20e-05     00000 
    2    -480.8288159115      2.05e-05     00000 
    3    -480.8288353904      1.28e-05     00000 
    4    -480.8288418618      5.61e-06     00000 
    5    -480.8288433019      2.11e-06     00000 
    6    -480.8288436406      9.02e-07     00000 
    7    -480.8288436987      2.63e-07     00000 
    8    -480.8288437030      1.22e-07     00000 
    9    -480.8288437037      4.09e-08     00000 
   10    -480.8288437038      1.82e-08     00000 
   11    -480.8288437038      7.90e-09     00000 Convergence criterion met
write pseudocanon occs and virts to disk
write pseudocanon orbital energies to disk
Timing for Total SCF: 4550.00s (wall), 9044.26s (cpu)
<S^2> of polarized wavefunction after polarization iterations 0.0000000000
relaxing scfmi constraint to allow all rotations in the entire AO span
Doing General SCFMI
 Exchange:     0.1670 Hartree-Fock + 1.0000 wB97X-V + LR-HF
 Correlation:  1.0000 wB97X-V
 Using Euler-Maclaurin-Lebedev (99,590) quadrature formula
 Nonlocal Correlation:  VV10 with C = 0.0100 and b = 6.00 and scale = 1.00000
 Grid used for NLC:  SG-1 standard quadrature
performing fock build at end of subrot_r(subrot) constructor so that all methods have access
<S^2> of polarized wavefunction before ct-allowed iterations 0.0000000000
Beginning iterations for the determination of the CT-Allowed wavefunction
Energy prior to optimization (guess energy) = -480.828843703779
Begin Timing: Total SCF Calculation
begin iterations for algorithm: DIIS         
the SCF tolerance is set to 1.00e-08
    1    -480.8288437038      6.43e-05     00000 
    2    -480.8293220148      5.91e-06     00000 
    3    -480.8293338539      9.25e-07     00000 
    4    -480.8293341649      4.91e-07     00000 
    5    -480.8293341953      9.52e-08     00000 
    6    -480.8293341974      4.63e-08     00000 
    7    -480.8293341977      1.21e-08     00000 
    8    -480.8293341977      5.07e-09     00000 Convergence criterion met
write pseudocanon occs and virts to disk
write pseudocanon orbital energies to disk
Timing for Total SCF: 3212.00s (wall), 6386.83s (cpu)
<S^2> of ct_allowed wavefunction after ct-allowed iterations 0.0000000000

================================
        Results of EDA2         
================================
Basic EDA Quantities
--------------------
Fragment Energies (Ha):
1 -209.2458464887
2 -271.5817068289
--------------------
  E_prp (kJ/mol) = 0.0000
  E_sol (kJ/mol) = -0.5777
  E_frz (kJ/mol) = -2.1750
  E_pol (kJ/mol) = -0.6353
  E_vct (kJ/mol) = -1.2878
  E_int (kJ/mol) = -4.6758
--------------------


Initial Wavefunction Decomposition
--------------------
  --------------------
  Orthogonal Fragment Subspace Decomposition:
  --------------------
     E_elec   (ELEC)   (kJ/mol) = -5.4691
     E_pauli  (PAULI)  (kJ/mol) = 12.4921
     E_disp   (DISP)   (kJ/mol) = -9.1979
     --------------------
     Terms summing to E_pauli:
     --------------------
        E_kep_pauli       (kJ/mol) = 16.6241
        E_disp_free_pauli (kJ/mol) = -4.1321
  --------------------
  Classical Frozen Decomposition:
  --------------------
     E_cls_elec  (CLS ELEC)  (kJ/mol) = -0.2741
     E_cls_pauli (CLS PAULI) (kJ/mol) = -1.9009
    [E_mod_pauli (MOD PAULI) (kJ/mol) = 7.2971 (CLS PAULI - DISP from orthogonal decomposition) ]
  --------------------
--------------------

Simplified EDA Summary (kJ/mol)
--------------------
 PREPARATION     0.0000
 SOLVATION       -0.5777
 FROZEN          7.0229      (does not include dispersion)
[PAULI           12.4921]     (if this is negligible, then frozen describes electrostatics)
 DISPERSION      -9.1979
 POLARIZATION    -0.6353
 CHARGE TRANSFER -1.2878
 TOTAL           -4.6758     (PRP + SOL + FRZ + DISP + POL + CT)
--------------------
 
 --------------------------------------------------------------
 
                    Orbital Energies (a.u.)
 --------------------------------------------------------------
 
 Alpha MOs
 -- Occupied --
-19.1806 -14.4364 -10.3797 -10.2846 -10.2776 -10.2754 -10.2750 -10.2740
-10.2728 -10.2716 -10.2637  -1.1726  -1.0494  -0.9962  -0.9078  -0.8785
 -0.8735  -0.8145  -0.7324  -0.7173  -0.7061  -0.6634  -0.6310  -0.5912
 -0.5783  -0.5741  -0.5652  -0.5347  -0.5288  -0.5194  -0.5160  -0.5109
 -0.4909  -0.4847  -0.4728  -0.4437  -0.4419  -0.3851  -0.3694  -0.3487
 -0.3396
 -- Virtual --
  0.0534   0.0590   0.0661   0.0678   0.0764   0.0855   0.0909   0.0933
  0.1043   0.1076   0.1203   0.1216   0.1313   0.1343   0.1399   0.1486
  0.1534   0.1549   0.1686   0.1693   0.1775   0.1841   0.1895   0.1931
  0.2029   0.2056   0.2151   0.2194   0.2272   0.2334   0.2359   0.2420
  0.2509   0.2532   0.2561   0.2604   0.2649   0.2670   0.2748   0.2800
  0.2858   0.2915   0.2934   0.2984   0.2999   0.3024   0.3057   0.3152
  0.3191   0.3255   0.3268   0.3342   0.3355   0.3372   0.3422   0.3470
  0.3495   0.3509   0.3577   0.3649   0.3664   0.3728   0.3739   0.3744
  0.3796   0.3797   0.3876   0.3883   0.3923   0.3970   0.3984   0.4046
  0.4054   0.4095   0.4172   0.4267   0.4300   0.4350   0.4378   0.4428
  0.4440   0.4502   0.4536   0.4585   0.4611   0.4657   0.4712   0.4751
  0.4783   0.4818   0.4897   0.4936   0.4958   0.4984   0.5028   0.5056
  0.5149   0.5189   0.5249   0.5258   0.5289   0.5336   0.5365   0.5436
  0.5513   0.5568   0.5617   0.5642   0.5687   0.5795   0.5847   0.5858
  0.5959   0.6010   0.6049   0.6130   0.6163   0.6250   0.6316   0.6393
  0.6452   0.6474   0.6578   0.6613   0.6714   0.6757   0.6773   0.6824
  0.6920   0.6941   0.7037   0.7116   0.7158   0.7196   0.7246   0.7276
  0.7321   0.7417   0.7425   0.7465   0.7515   0.7564   0.7593   0.7658
  0.7701   0.7778   0.7826   0.7864   0.7937   0.7989   0.8007   0.8082
  0.8147   0.8173   0.8215   0.8252   0.8296   0.8385   0.8392   0.8479
  0.8487   0.8554   0.8588   0.8624   0.8700   0.8776   0.8840   0.8862
  0.8948   0.8983   0.9090   0.9121   0.9193   0.9355   0.9425   0.9518
  0.9614   0.9800   0.9881   0.9933   1.0048   1.0166   1.0228   1.0365
  1.0464   1.0514   1.0594   1.0710   1.0733   1.0815   1.0945   1.1017
  1.1094   1.1109   1.1159   1.1238   1.1353   1.1458   1.1595   1.1654
  1.1693   1.1873   1.2069   1.2150   1.2650   1.2694   1.2876   1.3043
  1.3120   1.3341   1.3515   1.3597   1.3648   1.3761   1.3928   1.4095
  1.4225   1.4600   1.4650   1.4764   1.4796   1.4859   1.5077   1.5221
  1.5420   1.5483   1.5498   1.6198   1.6243   1.6373   1.6511   1.6603
  1.6686   1.6894   1.7044   1.7403   1.7551   1.7674   1.7921   1.7977
  1.8178   1.8192   1.8316   1.8534   1.8634   1.8781   1.8787   1.9013
  1.9151   1.9292   1.9327   1.9399   1.9484   1.9639   1.9747   1.9867
  1.9900   2.0057   2.0086   2.0160   2.0294   2.0459   2.0514   2.0588
  2.0664   2.0800   2.0928   2.1223   2.1291   2.1360   2.1535   2.1648
  2.1731   2.1904   2.2018   2.2207   2.2288   2.2387   2.2561   2.2758
  2.2818   2.3096   2.3129   2.3323   2.3425   2.3737   2.3963   2.3981
  2.4133   2.4254   2.4317   2.4399   2.4647   2.4902   2.5224   2.5481
  2.5565   2.5582   2.5729   2.5984   2.6145   2.6168   2.6209   2.6460
  2.6496   2.6790   2.6963   2.6976   2.7093   2.7137   2.7336   2.7581
  2.7604   2.7737   2.7887   2.7961   2.8118   2.8187   2.8476   2.8616
  2.8701   2.8815   2.9024   2.9115   2.9206   2.9254   2.9353   2.9435
  2.9781   2.9869   2.9972   3.0113   3.0209   3.0254   3.0415   3.0569
  3.0723   3.0799   3.0905   3.1051   3.1278   3.1502   3.1607   3.1811
  3.1953   3.2010   3.2096   3.2313   3.2324   3.2517   3.2622   3.2734
  3.2853   3.2963   3.3036   3.3143   3.3400   3.3519   3.3584   3.3721
  3.3768   3.3907   3.4013   3.4117   3.4356   3.4394   3.4495   3.4668
  3.4716   3.4776   3.4904   3.4959   3.5135   3.5287   3.5354   3.5414
  3.5476   3.5544   3.5612   3.5658   3.5771   3.5871   3.6223   3.6295
  3.6349   3.6551   3.6581   3.6886   3.6890   3.6956   3.7254   3.7321
  3.7520   3.7756   3.7785   3.8190   3.8513   3.8925   3.9048   3.9175
  3.9459   3.9508   3.9535   3.9847   4.0286   4.0310   4.0552   4.0718
  4.0757   4.1365   4.1867   4.2207   4.2652   4.2797   4.2939   4.3097
  4.3277   4.3366   4.3415   4.3468   4.3608   4.3838   4.3924   4.3977
  4.4262   4.4473   4.4898   4.5397   4.5515   4.5961   4.6141   4.6209
  4.6316   4.6553   4.7532   4.7779   4.7956   4.8097   4.8503   4.8949
  4.9073   4.9314   4.9422   4.9607   5.0234   5.0473   5.1614   5.1789
  5.1957   5.2698   5.2760   5.3517   5.3583   5.3767   5.3928   5.4054
  5.4131   5.4866   5.5004   5.5337   5.5432   5.6737   5.7756   5.8540
  5.9153   6.1464   6.2707   6.5288   6.6636   6.7423   6.8373   7.0023
  7.2376   7.3281  22.6408  22.6715  22.6807  22.8944  22.9149  22.9987
 23.0813  23.4038  23.6164  32.4717  44.4038
 --------------------------------------------------------------
 
          Ground-State Mulliken Net Atomic Charges

     Atom                 Charge (a.u.)
  ----------------------------------------
      1 C                    -0.666038
      2 C                     0.445656
      3 O                    -0.597236
      4 N                    -0.234077
      5 H                     0.204948
      6 H                     0.248498
      7 H                     0.214058
      8 H                     0.210631
      9 H                     0.212959
     10 C                    -1.019195
     11 C                    -0.114495
     12 C                    -0.267816
     13 C                    -0.574848
     14 C                     0.697768
     15 C                    -0.602015
     16 C                    -0.521757
     17 H                     0.283627
     18 H                     0.363418
     19 H                     0.350568
     20 H                     0.327577
     21 H                     0.245813
     22 H                     0.276112
     23 H                     0.290486
     24 H                     0.225361
  ----------------------------------------
  Sum of atomic charges =     0.000000

 -----------------------------------------------------------------
                    Cartesian Multipole Moments
 -----------------------------------------------------------------
    Charge (ESU x 10^10)
                -0.0000
    Dipole Moment (Debye)
         X      -1.4223      Y       5.2017      Z       0.8589
       Tot       5.4606
    Quadrupole Moments (Debye-Ang)
        XX     -70.5716     XY      18.7577     YY     -65.7414
        XZ      -0.0254     YZ      -2.6597     ZZ     -59.2137
    Octopole Moments (Debye-Ang^2)
       XXX     -38.8540    XXY      45.8027    XYY      20.6541
       YYY      20.6191    XXZ      10.9224    XYZ     -20.8314
       YYZ      -8.3150    XZZ      14.9150    YZZ       6.9515
       ZZZ     -23.7409
    Hexadecapole Moments (Debye-Ang^3)
      XXXX   -3167.0743   XXXY       9.5918   XXYY    -543.6141
      XYYY    -180.7895   YYYY    -278.6871   XXXZ     291.6847
      XXYZ     -48.4672   XYYZ      79.0797   YYYZ     -44.1388
      XXZZ    -577.8287   XYZZ     -33.9365   YYZZ    -163.2181
      XZZZ     223.1654   YZZZ     -40.8312   ZZZZ    -696.0055
 -----------------------------------------------------------------
Archival summary:
1\1\nid00544\SP\ProcedureUnspecified\BasisUnspecified\11913\meili\SunSep2622:51:572021SunSep2622:51:572021\0\\#,ProcedureUnspecified,BasisUnspecified,\\0,1\C\H,1,1.07955\C,1,1.39431,2,119.405\H,3,1.08217,1,120.304,2,0.971313,0\C,3,1.39362,1,119.5,2,-178.221,0\H,5,1.08332,3,119.78,1,179.559,0\C,5,1.39889,3,120.349,1,-0.154223,0\H,7,1.08116,5,119.424,3,179.567,0\C,7,1.39333,5,120.719,3,-0.138533,0\C,9,1.39945,7,118.901,5,0.22328,0\H,10,1.08076,9,119.637,7,179.123,0\C,9,1.51002,7,120.16,5,179.748,0\H,12,1.08703,9,108.124,7,130.349,0\H,12,1.09176,9,109.474,7,12.365,0\H,12,1.1,9,113.609,7,-110.031,0\H,2,2.42263,1,134.515,3,178.273,0\C,16,1.09148,2,103.5,1,125.045,0\H,17,1.08552,16,106.717,2,167.165,0\H,17,1.1,16,108.241,2,-72.7762,0\C,17,1.51784,16,108.68,2,50.1106,0\O,20,1.23176,17,121.86,16,-139.5,0\N,20,1.32333,17,115.904,16,41.0667,0\H,22,1.00974,20,120.999,17,-1.06787,0\H,22,1.01083,20,118.394,17,-179.709,0\\\@

 Total job time:  49459.99s(wall), 28301.89s(cpu) 
 Sun Sep 26 22:52:01 2021

        *************************************************************
        *                                                           *
        *  Thank you very much for using Q-Chem.  Have a nice day.  *
        *                                                           *
        *************************************************************


