
Running Job 1 of 1 SSI-040ASN-077TYR-1_SMD_TZVPD.in
qchem SSI-040ASN-077TYR-1_SMD_TZVPD.in_37195.0 /tmp/qchem37195/ 0
/global/common/cori/software/qchem/5.2/exe/qcprog.exe_s SSI-040ASN-077TYR-1_SMD_TZVPD.in_37195.0 /tmp/qchem37195/
                  Welcome to Q-Chem
     A Quantum Leap Into The Future Of Chemistry


 Q-Chem 5.2, Q-Chem, Inc., Pleasanton, CA (2019)

 License issued to: National Energy Research Scientific Computing Center

 Yihan Shao,  Zhengting Gan,  E. Epifanovsky,  A. T. B. Gilbert,  M. Wormit,  
 J. Kussmann,  A. W. Lange,  A. Behn,  Jia Deng,  Xintian Feng,  D. Ghosh,  
 M. Goldey,  P. R. Horn,  L. D. Jacobson,  I. Kaliman,  T. Kus,  A. Landau,  
 Jie Liu,  E. I. Proynov,  R. M. Richard,  R. P. Steele,  E. J. Sundstrom,  
 H. L. Woodcock III,  P. M. Zimmerman,  D. Zuev,  B. Albrecht,  E. Alguire,  
 S. A. Baeppler,  D. Barton,  Z. Benda,  Y. A. Bernard,  E. J. Berquist,  
 K. B. Bravaya,  H. Burton,  D. Casanova,  Chun-Min Chang,  Yunqing Chen,  
 A. Chien,  K. D. Closser,  M. P. Coons,  S. Coriani,  S. Dasgupta,  
 A. L. Dempwolff,  M. Diedenhofen,  Hainam Do,  R. G. Edgar,  Po-Tung Fang,  
 S. Faraji,  S. Fatehi,  Qingguo Feng,  K. D. Fenk,  J. Fosso-Tande,  
 J. Gayvert,  Qinghui Ge,  A. Ghysels,  G. Gidofalvi,  J. Gomes,  
 J. Gonthier,  A. Gunina,  D. Hait,  M. W. D. Hanson-Heine,  
 P. H. P. Harbach,  A. W. Hauser,  M. F. Herbst,  J. E. Herr,  
 E. G. Hohenstein,  Z. C. Holden,  Kerwin Hui,  B. C. Huynh,  T.-C. Jagau,  
 Hyunjun Ji,  B. Kaduk,  K. Khistyaev,  Jaehoon Kim,  P. Klunzinger,  K. Koh,  
 D. Kosenkov,  L. Koulias,  T. Kowalczyk,  C. M. Krauter,  A. Kunitsa,  
 Ka Un Lao,  A. Laurent,  K. V. Lawler,  Joonho Lee,  D. Lefrancois,  
 S. Lehtola,  D. S. Levine,  Yi-Pei Li,  You-Sheng Lin,  Fenglai Liu,  
 E. Livshits,  A. Luenser,  P. Manohar,  E. Mansoor,  S. F. Manzer,  
 Shan-Ping Mao,  Yuezhi Mao,  N. Mardirossian,  A. V. Marenich,  
 T. Markovich,  L. A. Martinez-Martinez,  S. A. Maurer,  N. J. Mayhall,  
 S. C. McKenzie,  J.-M. Mewes,  P. Morgante,  A. F. Morrison,  
 J. W. Mullinax,  K. Nanda,  T. S. Nguyen-Beck,  R. Olivares-Amaya,  
 J. A. Parkhill,  Zheng Pei,  T. M. Perrine,  F. Plasser,  P. Pokhilko,  
 S. Prager,  A. Prociuk,  E. Ramos,  D. R. Rehn,  F. Rob,  M. Scheurer,  
 M. Schneider,  N. Sergueev,  S. M. Sharada,  S. Sharma,  D. W. Small,  
 T. Stauch,  T. Stein,  Yu-Chuan Su,  A. J. W. Thom,  A. Tkatchenko,  
 T. Tsuchimochi,  N. M. Tubman,  L. Vogt,  M. L. Vidal,  O. Vydrov,  
 M. A. Watson,  J. Wenzel,  M. de Wergifosse,  T. A. Wesolowski,  A. White,  
 J. Witte,  A. Yamada,  Jun Yang,  K. Yao,  S. Yeganeh,  S. R. Yost,  
 Zhi-Qiang You,  A. Zech,  Igor Ying Zhang,  Xing Zhang,  Yan Zhao,  
 Ying Zhu,  B. R. Brooks,  G. K. L. Chan,  C. J. Cramer,  M. S. Gordon,  
 W. J. Hehre,  A. Klamt,  M. W. Schmidt,  C. D. Sherrill,  D. G. Truhlar,  
 A. Aspuru-Guzik,  R. Baer,  A. T. Bell,  N. A. Besley,  Jeng-Da Chai,  
 A. E. DePrince, III,  R. A. DiStasio Jr.,  A. Dreuw,  B. D. Dunietz,  
 T. R. Furlani,  Chao-Ping Hsu,  Yousung Jung,  Jing Kong,  D. S. Lambrecht,  
 WanZhen Liang,  C. Ochsenfeld,  V. A. Rassolov,  L. V. Slipchenko,  
 J. E. Subotnik,  T. Van Voorhis,  J. M. Herbert,  A. I. Krylov,  
 P. M. W. Gill,  M. Head-Gordon

 Contributors to earlier versions of Q-Chem not listed above: 
 R. D. Adamson,  B. Austin,  J. Baker,  G. J. O. Beran,  K. Brandhorst,  
 S. T. Brown,  E. F. C. Byrd,  A. K. Chakraborty,  C.-L. Cheng,  
 Siu Hung Chien,  D. M. Chipman,  D. L. Crittenden,  H. Dachsel,  
 R. J. Doerksen,  A. D. Dutoi,  L. Fusti-Molnar,  W. A. Goddard III,  
 A. Golubeva-Zadorozhnaya,  S. R. Gwaltney,  G. Hawkins,  A. Heyden,  
 S. Hirata,  G. Kedziora,  F. J. Keil,  C. Kelley,  Jihan Kim,  R. A. King,  
 R. Z. Khaliullin,  P. P. Korambath,  W. Kurlancheek,  A. M. Lee,  M. S. Lee,  
 S. V. Levchenko,  Ching Yeh Lin,  D. Liotard,  R. C. Lochan,  I. Lotan,  
 P. E. Maslen,  N. Nair,  D. P. O'Neill,  D. Neuhauser,  E. Neuscamman,  
 C. M. Oana,  R. Olson,  B. Peters,  R. Peverati,  P. A. Pieniazek,  
 Y. M. Rhee,  J. Ritchie,  M. A. Rohrdanz,  E. Rosta,  N. J. Russ,  
 H. F. Schaefer III,  N. E. Schultz,  N. Shenvi,  A. C. Simmonett,  A. Sodt,  
 D. Stuck,  K. S. Thanthiriwatte,  V. Vanovschi,  Tao Wang,  A. Warshel,  
 C. F. Williams,  Q. Wu,  X. Xu,  W. Zhang

 Please cite Q-Chem as follows:
 Y. Shao et al., Mol. Phys. 113, 184-215 (2015)
 DOI: 10.1080/00268976.2014.952696

 Q-Chem 5.2.0 for Intel X86 EM64T Linux

 Parts of Q-Chem use Armadillo 8.300.2 (Tropical Shenanigans).
 http://arma.sourceforge.net/

 Q-Chem begins on Sun Sep 26 06:23:30 2021  

Host: cori01
0

     Scratch files written to /tmp/qchem37195//
 May1019 |scratch|qcdevops|jenkins|workspace|build_RNUM -1
Processing $rem in /global/common/cori/software/qchem/5.2/config/preferences:
	 MEM_TOTAL  96000 
NAlpha2: 90
NElect   90
Mult     1
Symmetry turned off for PCM/SM12/SMD calculation

 Q-Chem warning in module libgen/rem_setup.C, line 2803:

 Neither GIA nor STOLL is specified by user. Use STOLL as the default


Checking the input file for inconsistencies... 	...done.

--------------------------------------------------------------
User input:
--------------------------------------------------------------
$comment
SSI-040ASN-077TYR-1.pdb
$end

$molecule
0 1
--
0 1
C   -0.822501357085    2.856273646225    1.815475124205
C   -0.216501357085    1.871273646225    2.792475124205
O    0.477498642915    2.235273646225    3.763475124205
N   -0.480501357085    0.617273646225    2.553475124205
H   -0.107501357085   -0.067726353775    3.192475124205
H   -1.047501357085    0.363273646225    1.767475124205
H   -1.186501357085    3.725273646225    2.361475124205
H   -1.681501357085    2.394273646225    1.327475124205
H   -0.082154357085    3.156569646225    1.059365124205
--
0 1
C    2.124498642915   -1.937726353775   -3.460524875795
C    0.534498642915   -0.851726353775   -0.156524875795
C   -0.767501357085   -0.585726353775   -0.563524875795
C    1.482498642915   -1.285726353775   -1.090524875795
C    1.127498642915   -1.477726353775   -2.426524875795
C   -1.145501357085   -0.768726353775   -1.892524875795
C   -0.187501357085   -1.212726353775   -2.807524875795
O   -1.726501357085   -0.187726353775    0.319475124205
H    0.829498642915   -0.731726353775    0.871475124205
H    2.500498642915   -1.466726353775   -0.770524875795
H   -2.158501357085   -0.571726353775   -2.215524875795
H   -2.566501357085   -0.018726353775   -0.129524875795
H    3.123498642915   -1.960726353775   -3.024524875795
H    2.124498642915   -1.212726353775   -4.275524875795
H   -0.477501357085   -1.352726353775   -3.840524875795
H    1.873056642915   -2.934898353775   -3.850944875795
$end

$rem
JOBTYPE			EDA
EDA2			1
method			wB97X-V
BASIS			def2-TZVPD
XC_GRID			000099000590
NL_GRID			1
UNRESTRICTED		FALSE
MAX_SCF_CYCLES		200
SYMMETRY		FALSE
SYM_IGNORE		TRUE
MEM_STATIC		2000
BASIS_LIN_DEP_THRESH 	6
THRESH 			14
SCF_CONVERGENCE 	8
SCF_PRINT_FRGM 		TRUE
SOLVENT_METHOD          SMD
$end

$SMX
SOLVENT			WATER
$END
--------------------------------------------------------------
 ----------------------------------------------------------------
             Standard Nuclear Orientation (Angstroms)
    I     Atom           X                Y                Z
 ----------------------------------------------------------------
    1      C      -0.8225013571     2.8562736462     1.8154751242
    2      C      -0.2165013571     1.8712736462     2.7924751242
    3      O       0.4774986429     2.2352736462     3.7634751242
    4      N      -0.4805013571     0.6172736462     2.5534751242
    5      H      -0.1075013571    -0.0677263538     3.1924751242
    6      H      -1.0475013571     0.3632736462     1.7674751242
    7      H      -1.1865013571     3.7252736462     2.3614751242
    8      H      -1.6815013571     2.3942736462     1.3274751242
    9      H      -0.0821543571     3.1565696462     1.0593651242
   10      C       2.1244986429    -1.9377263538    -3.4605248758
   11      C       0.5344986429    -0.8517263538    -0.1565248758
   12      C      -0.7675013571    -0.5857263538    -0.5635248758
   13      C       1.4824986429    -1.2857263538    -1.0905248758
   14      C       1.1274986429    -1.4777263538    -2.4265248758
   15      C      -1.1455013571    -0.7687263538    -1.8925248758
   16      C      -0.1875013571    -1.2127263538    -2.8075248758
   17      O      -1.7265013571    -0.1877263538     0.3194751242
   18      H       0.8294986429    -0.7317263538     0.8714751242
   19      H       2.5004986429    -1.4667263538    -0.7705248758
   20      H      -2.1585013571    -0.5717263538    -2.2155248758
   21      H      -2.5665013571    -0.0187263538    -0.1295248758
   22      H       3.1234986429    -1.9607263538    -3.0245248758
   23      H       2.1244986429    -1.2127263538    -4.2755248758
   24      H      -0.4775013571    -1.3527263538    -3.8405248758
   25      H       1.8730566429    -2.9348983538    -3.8509448758
 ----------------------------------------------------------------
 Nuclear Repulsion Energy =         662.61051898 hartrees
 There are       45 alpha and       45 beta electrons
 Requested basis set is def2-TZVPD
 There are 223 shells and 567 basis functions

 Total QAlloc Memory Limit  96000 MB
 Mega-Array Size      1956 MB
 MEM_STATIC part      2000 MB
 
 Citation of the SMD model:
 Marenich, A.V.; Cramer, C.J.; Truhlar, D.G.
 J. Phys. Chem. B 2009, 113, 6378-6396.
 iSolventCode=           1
 Solvent: water                                                           
 
 vradii
            1           2           3           4           5           6
    1   1.8500000   1.8500000   1.5200000   1.8900000   1.2000000   1.2000000
            7           8           9          10          11          12
    1   1.2000000   1.2000000   1.2000000   1.8500000   1.8500000   1.8500000
           13          14          15          16          17          18
    1   1.8500000   1.8500000   1.8500000   1.8500000   1.5200000   1.2000000
           19          20          21          22          23          24
    1   1.2000000   1.2000000   1.2000000   1.2000000   1.2000000   1.2000000
           25
    1   1.2000000
 Changing PCM_VDW_RADII to SMD_RADIUS
 Discretize the solute cavity surface with Lebedev spheres
	Using 110 Lebedev grid points for each H atom
	Using 194 Lebedev grid points for other atoms
	Atomic van der Waals radii will be scaled by 1.20
 Remove points where switching function is < 1.0e-08
 Keep 1840 surface tesserae and discard 1918 interior tesserae
 Molecular Surface Area = 216.176 Angst**2
 A cutoff of  1.0D-14 yielded  21611 shell pairs
 There are    140281 function pairs (    177010 Cartesian)
 Smallest overlap matrix eigenvalue = 4.82E-07
 Linear dependence detected in AO basis
 Tighter screening thresholds may be required for diffuse basis sets
 Use S2THRESH > 14 and THRESH = 14 in case of SCF convergence issues
 Number of orthogonalized atomic orbitals = 565
 Maximum deviation from orthogonality = 4.229E-10

 Scale SEOQF with 1.000000e-01/1.000000e-01/1.000000e-01

 Standard Electronic Orientation quadrupole field applied
 Nucleus-field energy     =    -0.0000000323 hartrees

 -----------------------------------------------------------------------
  General SCF calculation program by
  Eric Jon Sundstrom, Paul Horn, Yuezhi Mao, Dmitri Zuev, Alec White,
  David Stuck, Shaama M.S., Shane Yost, Joonho Lee, David Small,
  Daniel Levine, Susi Lehtola, Hugh Burton, Evgeny Epifanovsky
 -----------------------------------------------------------------------
================================================================
                 ALMO-EDA with the EDA2 driver                  
================================================================
 The second-generation ALMO-EDA (for DFT):                      
 P. R. Horn, Y. Mao and M. Head-Gordon, PCCP, 18, 23067 (2016)  
 Decomposition of the frozen energy:                            
 P. R. Horn, Y. Mao and M. Head-Gordon, JCP, 144, 114107 (2016) 
 FERF model for polarization:                                   
 P. R. Horn and M. Head-Gordon, JCP, 143, 114111 (2015)         
Using eda2 option set 1
Option set summary: Frozen orbital wavefunction, initial wavefunction decomposition, and nDQ polarization.
--------------------------------
Printing EDA Options
--------------------------------
eda_child_super_basis      0
fragmo_guess_mode          0
child_mp                   1
child_mp_orders            232
cls_elec                   1
cls_disp                   0
scfmi_mode                 1
scfmi_occs                 0
scfmi_virts                0
frz_relax                  0
frz_relax_method           0
dc_pen_start               0
dc_pen_conv                0
dc_pen_increment           0
dc_pen_steps               0
dc_pen_thresh_factor       0
dc_pen_pre_newton_thresh   0
frz_ortho_decomp           1
frz_ortho_decomp_conv      6
frgm_method                2
scfmi_freeze_ss            0
separate_rehyb             0
plot_diff_den              0
eda_nocv                   0
eda_vct_relax              1
disp_free_x                0
disp_free_c                0
eda_bsse                   0
eda_pct_a                  0
eda_covp                   0
--------------------------------
Attempting to make child job directory: /tmp/qchem37195//Frg1/
Attempting to make child job directory: /tmp/qchem37195//Frg2/
Creating input file /tmp/qchem37195/Frg1.input
using default PutDataFrgm: nothing
calling putenv with: QCSCRATCH=/tmp/qchem37195/ 
calling putenv with: QCLOCALSCR=/tmp/qchem37195/ 
Spawning Job For Fragment 0
                  Welcome to Q-Chem
     A Quantum Leap Into The Future Of Chemistry


 Q-Chem 5.2, Q-Chem, Inc., Pleasanton, CA (2019)

 License issued to: National Energy Research Scientific Computing Center

 Yihan Shao,  Zhengting Gan,  E. Epifanovsky,  A. T. B. Gilbert,  M. Wormit,  
 J. Kussmann,  A. W. Lange,  A. Behn,  Jia Deng,  Xintian Feng,  D. Ghosh,  
 M. Goldey,  P. R. Horn,  L. D. Jacobson,  I. Kaliman,  T. Kus,  A. Landau,  
 Jie Liu,  E. I. Proynov,  R. M. Richard,  R. P. Steele,  E. J. Sundstrom,  
 H. L. Woodcock III,  P. M. Zimmerman,  D. Zuev,  B. Albrecht,  E. Alguire,  
 S. A. Baeppler,  D. Barton,  Z. Benda,  Y. A. Bernard,  E. J. Berquist,  
 K. B. Bravaya,  H. Burton,  D. Casanova,  Chun-Min Chang,  Yunqing Chen,  
 A. Chien,  K. D. Closser,  M. P. Coons,  S. Coriani,  S. Dasgupta,  
 A. L. Dempwolff,  M. Diedenhofen,  Hainam Do,  R. G. Edgar,  Po-Tung Fang,  
 S. Faraji,  S. Fatehi,  Qingguo Feng,  K. D. Fenk,  J. Fosso-Tande,  
 J. Gayvert,  Qinghui Ge,  A. Ghysels,  G. Gidofalvi,  J. Gomes,  
 J. Gonthier,  A. Gunina,  D. Hait,  M. W. D. Hanson-Heine,  
 P. H. P. Harbach,  A. W. Hauser,  M. F. Herbst,  J. E. Herr,  
 E. G. Hohenstein,  Z. C. Holden,  Kerwin Hui,  B. C. Huynh,  T.-C. Jagau,  
 Hyunjun Ji,  B. Kaduk,  K. Khistyaev,  Jaehoon Kim,  P. Klunzinger,  K. Koh,  
 D. Kosenkov,  L. Koulias,  T. Kowalczyk,  C. M. Krauter,  A. Kunitsa,  
 Ka Un Lao,  A. Laurent,  K. V. Lawler,  Joonho Lee,  D. Lefrancois,  
 S. Lehtola,  D. S. Levine,  Yi-Pei Li,  You-Sheng Lin,  Fenglai Liu,  
 E. Livshits,  A. Luenser,  P. Manohar,  E. Mansoor,  S. F. Manzer,  
 Shan-Ping Mao,  Yuezhi Mao,  N. Mardirossian,  A. V. Marenich,  
 T. Markovich,  L. A. Martinez-Martinez,  S. A. Maurer,  N. J. Mayhall,  
 S. C. McKenzie,  J.-M. Mewes,  P. Morgante,  A. F. Morrison,  
 J. W. Mullinax,  K. Nanda,  T. S. Nguyen-Beck,  R. Olivares-Amaya,  
 J. A. Parkhill,  Zheng Pei,  T. M. Perrine,  F. Plasser,  P. Pokhilko,  
 S. Prager,  A. Prociuk,  E. Ramos,  D. R. Rehn,  F. Rob,  M. Scheurer,  
 M. Schneider,  N. Sergueev,  S. M. Sharada,  S. Sharma,  D. W. Small,  
 T. Stauch,  T. Stein,  Yu-Chuan Su,  A. J. W. Thom,  A. Tkatchenko,  
 T. Tsuchimochi,  N. M. Tubman,  L. Vogt,  M. L. Vidal,  O. Vydrov,  
 M. A. Watson,  J. Wenzel,  M. de Wergifosse,  T. A. Wesolowski,  A. White,  
 J. Witte,  A. Yamada,  Jun Yang,  K. Yao,  S. Yeganeh,  S. R. Yost,  
 Zhi-Qiang You,  A. Zech,  Igor Ying Zhang,  Xing Zhang,  Yan Zhao,  
 Ying Zhu,  B. R. Brooks,  G. K. L. Chan,  C. J. Cramer,  M. S. Gordon,  
 W. J. Hehre,  A. Klamt,  M. W. Schmidt,  C. D. Sherrill,  D. G. Truhlar,  
 A. Aspuru-Guzik,  R. Baer,  A. T. Bell,  N. A. Besley,  Jeng-Da Chai,  
 A. E. DePrince, III,  R. A. DiStasio Jr.,  A. Dreuw,  B. D. Dunietz,  
 T. R. Furlani,  Chao-Ping Hsu,  Yousung Jung,  Jing Kong,  D. S. Lambrecht,  
 WanZhen Liang,  C. Ochsenfeld,  V. A. Rassolov,  L. V. Slipchenko,  
 J. E. Subotnik,  T. Van Voorhis,  J. M. Herbert,  A. I. Krylov,  
 P. M. W. Gill,  M. Head-Gordon

 Contributors to earlier versions of Q-Chem not listed above: 
 R. D. Adamson,  B. Austin,  J. Baker,  G. J. O. Beran,  K. Brandhorst,  
 S. T. Brown,  E. F. C. Byrd,  A. K. Chakraborty,  C.-L. Cheng,  
 Siu Hung Chien,  D. M. Chipman,  D. L. Crittenden,  H. Dachsel,  
 R. J. Doerksen,  A. D. Dutoi,  L. Fusti-Molnar,  W. A. Goddard III,  
 A. Golubeva-Zadorozhnaya,  S. R. Gwaltney,  G. Hawkins,  A. Heyden,  
 S. Hirata,  G. Kedziora,  F. J. Keil,  C. Kelley,  Jihan Kim,  R. A. King,  
 R. Z. Khaliullin,  P. P. Korambath,  W. Kurlancheek,  A. M. Lee,  M. S. Lee,  
 S. V. Levchenko,  Ching Yeh Lin,  D. Liotard,  R. C. Lochan,  I. Lotan,  
 P. E. Maslen,  N. Nair,  D. P. O'Neill,  D. Neuhauser,  E. Neuscamman,  
 C. M. Oana,  R. Olson,  B. Peters,  R. Peverati,  P. A. Pieniazek,  
 Y. M. Rhee,  J. Ritchie,  M. A. Rohrdanz,  E. Rosta,  N. J. Russ,  
 H. F. Schaefer III,  N. E. Schultz,  N. Shenvi,  A. C. Simmonett,  A. Sodt,  
 D. Stuck,  K. S. Thanthiriwatte,  V. Vanovschi,  Tao Wang,  A. Warshel,  
 C. F. Williams,  Q. Wu,  X. Xu,  W. Zhang

 Please cite Q-Chem as follows:
 Y. Shao et al., Mol. Phys. 113, 184-215 (2015)
 DOI: 10.1080/00268976.2014.952696

 Q-Chem 5.2.0 for Intel X86 EM64T Linux

 Parts of Q-Chem use Armadillo 8.300.2 (Tropical Shenanigans).
 http://arma.sourceforge.net/

 Q-Chem begins on Sun Sep 26 06:23:35 2021  

Host: cori01
0

     Scratch files written to /tmp/qchem37195//Frg1//
 May1019 |scratch|qcdevops|jenkins|workspace|build_RNUM -1
Processing $rem in /global/common/cori/software/qchem/5.2/config/preferences:
	 MEM_TOTAL  96000 
NAlpha2: 32
NElect   32
Mult     1
Symmetry turned off for PCM/SM12/SMD calculation

Checking the input file for inconsistencies... 	...done.

--------------------------------------------------------------
User input:
--------------------------------------------------------------
$molecule
0 1
 6	-0.8225013571	2.8562736462	1.8154751242
 6	-0.2165013571	1.8712736462	2.7924751242
 8	0.4774986429	2.2352736462	3.7634751242
 7	-0.4805013571	0.6172736462	2.5534751242
 1	-0.1075013571	-0.0677263538	3.1924751242
 1	-1.0475013571	0.3632736462	1.7674751242
 1	-1.1865013571	3.7252736462	2.3614751242
 1	-1.6815013571	2.3942736462	1.3274751242
 1	-0.0821543571	3.1565696462	1.0593651242
$end
$rem
EDA2		1
METHOD		WB97X-V
BASIS		DEF2-TZVPD
XC_GRID		000099000590
NL_GRID		1
UNRESTRICTED		FALSE
MAX_SCF_CYCLES		200
SYMMETRY		FALSE
SYM_IGNORE		TRUE
BASIS_LIN_DEP_THRESH		6
THRESH		14
SCF_CONVERGENCE		8
SCF_PRINT_FRGM		TRUE
SOLVENT_METHOD		SMD
!required keywords
JOBTYPE		SP
SYM_IGNORE		TRUE
SUBSYSTEM		TRUE
GEN_SCFMAN		TRUE
CHILD_INSTRUCTION		2
SYM_IGNORE		TRUE
SCFMI		0
RI_K 0		
PARI_K 0		
MIN_PARI_K 0		
IARI_K 0		
OCC_RI_K 0		
PURECART		1111
MEM_STATIC		2000
MEM_TOTAL		96000
GUI		0
CHILD_MP		1
CHILD_MP_ORDERS		232
FRZ_RELAX		0
FRZ_RELAX_METHOD		0
EDA_CLS_ELEC		1
EDA_CLS_DISP		0
FRZ_ORTHO_DECOMP		1
EDA2		FALSE
FRGM_METHOD		FALSE
CIS_N_ROOTS  0
LOCAL_CIS    0
CIS_RLX_DNS  1
$end
$smx
SOLVENT			WATER
$end
--------------------------------------------------------------
 ----------------------------------------------------------------
             Standard Nuclear Orientation (Angstroms)
    I     Atom           X                Y                Z
 ----------------------------------------------------------------
    1      C      -0.8225013571     2.8562736462     1.8154751242
    2      C      -0.2165013571     1.8712736462     2.7924751242
    3      O       0.4774986429     2.2352736462     3.7634751242
    4      N      -0.4805013571     0.6172736462     2.5534751242
    5      H      -0.1075013571    -0.0677263538     3.1924751242
    6      H      -1.0475013571     0.3632736462     1.7674751242
    7      H      -1.1865013571     3.7252736462     2.3614751242
    8      H      -1.6815013571     2.3942736462     1.3274751242
    9      H      -0.0821543571     3.1565696462     1.0593651242
 ----------------------------------------------------------------
 Nuclear Repulsion Energy =         122.52639242 hartrees
 There are       16 alpha and       16 beta electrons
 Requested basis set is def2-TZVPD
 There are 78 shells and 196 basis functions

 Total QAlloc Memory Limit  96000 MB
 Mega-Array Size      1956 MB
 MEM_STATIC part      2000 MB
 
 Citation of the SMD model:
 Marenich, A.V.; Cramer, C.J.; Truhlar, D.G.
 J. Phys. Chem. B 2009, 113, 6378-6396.
 iSolventCode=           1
 Solvent: water                                                           
 
 vradii
            1           2           3           4           5           6
    1   1.8500000   1.8500000   1.5200000   1.8900000   1.2000000   1.2000000
            7           8           9
    1   1.2000000   1.2000000   1.2000000
 Changing PCM_VDW_RADII to SMD_RADIUS
 Discretize the solute cavity surface with Lebedev spheres
	Using 110 Lebedev grid points for each H atom
	Using 194 Lebedev grid points for other atoms
	Atomic van der Waals radii will be scaled by 1.20
 Remove points where switching function is < 1.0e-08
 Keep 720 surface tesserae and discard 606 interior tesserae
 Molecular Surface Area = 89.651 Angst**2

                       Distance Matrix (Angstroms)
             C (  1)   C (  2)   O (  3)   N (  4)   H (  5)   H (  6)
   C (  2)  1.513932
   O (  3)  2.422879  1.247787
   N (  4)  2.382169  1.303585  2.236021
   H (  5)  3.310156  1.982827  2.443783  1.008303
   H (  6)  2.503593  2.003809  3.132734  1.001899  1.760678
   H (  7)  1.088932  2.136347  2.637158  3.192955  4.030093  3.416899
   H (  8)  1.090628  2.136815  3.258935  2.470467  3.466575  2.172675
   H (  9)  1.099997  2.161875  2.911049  2.973057  3.866120  3.039049
             H (  7)   H (  8)
   H (  8)  1.756628
   H (  9)  1.799582  1.791895
 
 A cutoff of  1.0D-14 yielded   3054 shell pairs
 There are     19544 function pairs (     24702 Cartesian)
 Smallest overlap matrix eigenvalue = 1.10E-05

 Scale SEOQF with 1.000000e-01/1.000000e-01/1.000000e-01

 Standard Electronic Orientation quadrupole field applied
 Nucleus-field energy     =    -0.0000000159 hartrees
 Guess from superposition of atomic densities
 Warning:  Energy on first SCF cycle will be non-variational
 SAD guess density has 31.604610 electrons

 -----------------------------------------------------------------------
  General SCF calculation program by
  Eric Jon Sundstrom, Paul Horn, Yuezhi Mao, Dmitri Zuev, Alec White,
  David Stuck, Shaama M.S., Shane Yost, Joonho Lee, David Small,
  Daniel Levine, Susi Lehtola, Hugh Burton, Evgeny Epifanovsky
 -----------------------------------------------------------------------
 Exchange:     0.1670 Hartree-Fock + 1.0000 wB97X-V + LR-HF
 Correlation:  1.0000 wB97X-V
 Using Euler-Maclaurin-Lebedev (99,590) quadrature formula
 Nonlocal Correlation:  VV10 with C = 0.0100 and b = 6.00 and scale = 1.00000
 Grid used for NLC:  SG-1 standard quadrature
Energy prior to optimization (guess energy) = -208.698881876634
Begin Timing: Total SCF Calculation
begin iterations for algorithm: DIIS         
the SCF tolerance is set to 1.00e-08
    1    -208.6988818766      1.26e-02     00000 
    2    -208.2808390260      1.56e-02     00000 
    3    -209.2333507189      2.49e-03     00000 
    4    -209.2540621091      7.86e-04     00000 
    5    -209.2573215620      2.07e-04     00000 
    6    -209.2576196926      6.91e-05     00000 
    7    -209.2576648104      2.19e-05     00000 
    8    -209.2576707261      6.43e-06     00000 
    9    -209.2576716225      2.16e-06     00000 
   10    -209.2576716788      4.03e-07     00000 
   11    -209.2576716803      1.59e-07     00000 
   12    -209.2576716806      2.20e-08     00000 
   13    -209.2576716806      5.05e-09     00000 Convergence criterion met
Timing for Total SCF: 334.00s (wall), 657.63s (cpu)
(3)  G-ENP(liq) elect-nuc-pol free energy of system     -209.257671681 a.u.
(4)  G-CDS(liq) cavity-dispersion-solvent structure 
     free energy                                                3.4567 kcal/mol
(6)  G-S(liq) free energy of system                     -209.252163152 a.u.
E_pcm = -0.0322863840
E_cds = 0.0055085286
Multipole orders to be included
        2
        3
computing dipole RHS
computing quadrupole RHS
total number of RHS in solve_reponses: 8
RHS batch sizes
        8
Beginning Block Conjugate Gradient Iterations. Batch Number: 0
computing hessian-vector products by finite difference
              1      5.90e-01     00000 Conjugate Gradient Iteration
computing hessian-vector products by finite difference
              2      1.89e-01     00000 Conjugate Gradient Iteration
computing hessian-vector products by finite difference
              3      5.26e-02     00000 Conjugate Gradient Iteration
computing hessian-vector products by finite difference
              4      1.30e-02     00000 Conjugate Gradient Iteration
computing hessian-vector products by finite difference
              5      1.72e-03     00000 Conjugate Gradient Iteration
computing hessian-vector products by finite difference
              6      3.65e-04     00000 Conjugate Gradient Iteration
computing hessian-vector products by finite difference
              7      5.10e-05     00000 Conjugate Gradient Iteration
computing hessian-vector products by finite difference
              8      5.85e-06     00000 Conjugate Gradient Iteration
computing hessian-vector products by finite difference
              9      8.06e-07     00000 Conjugate Gradient Iteration
computing hessian-vector products by finite difference
             10      9.14e-08     00000 Conjugate Gradient Iteration
computing hessian-vector products by finite difference
             11      1.03e-08     00000 Conjugate Gradient Iteration
computing hessian-vector products by finite difference
             12      4.20e-09     00000 CG Converged
batch 0 complete
Done Calculating Responses
TESTING ORTHOGONALIZATION OF MULTIPOLE BASIS
Multipole virts passed orthogonality test
Virts Per Order
        48
        80
 
 --------------------------------------------------------------
 
                    Orbital Energies (a.u.)
 --------------------------------------------------------------
 
 Alpha MOs
 -- Occupied --
-19.1817 -14.4290 -10.3768 -10.2628  -1.1696  -1.0489  -0.8639  -0.7115
 -0.6598  -0.5892  -0.5658  -0.5166  -0.4957  -0.4794  -0.3847  -0.3751
 -- Virtual --
  0.0647   0.0958   0.0964   0.1038   0.1307   0.1339   0.1400   0.1511
  0.1801   0.1856   0.1976   0.2193   0.2298   0.2470   0.2508   0.2659
  0.2698   0.2782   0.3024   0.3189   0.3364   0.3380   0.3479   0.3544
  0.3613   0.3653   0.3761   0.3786   0.3974   0.4057   0.4195   0.4204
  0.4381   0.4602   0.4637   0.4758   0.4825   0.4962   0.5013   0.5036
  0.5278   0.5314   0.5577   0.5747   0.5797   0.5963   0.6195   0.6289
  0.6410   0.6517   0.6734   0.6995   0.7084   0.7265   0.7310   0.7676
  0.7775   0.7831   0.7992   0.8174   0.8218   0.8339   0.8556   0.8719
  0.9087   0.9558   0.9871   0.9934   1.0115   1.0307   1.0603   1.0971
  1.1071   1.1875   1.2237   1.2475   1.2889   1.3257   1.3352   1.3850
  1.4837   1.4939   1.5096   1.6284   1.6858   1.7321   1.7527   1.8076
  1.8509   1.8707   1.9023   1.9134   1.9355   1.9565   1.9742   2.0392
  2.0577   2.0946   2.1476   2.1731   2.1994   2.2391   2.3104   2.3706
  2.4100   2.4252   2.4410   2.4882   2.5551   2.5695   2.5864   2.6200
  2.6811   2.7005   2.8001   2.8063   2.8410   2.9075   2.9606   2.9893
  3.0641   3.0973   3.1313   3.1545   3.2096   3.2307   3.2774   3.2850
  3.3205   3.3417   3.3750   3.4089   3.4720   3.5089   3.5565   3.5617
  3.6451   3.6543   3.6848   3.7940   3.8947   3.9502   4.0167   4.0485
  4.0739   4.2016   4.3013   4.4267   4.5053   4.6184   4.6236   4.6806
  4.7860   4.8939   4.9031   4.9534   5.1518   5.1960   5.2642   5.3524
  5.3831   5.3994   5.4369   5.5015   5.5433   5.7535   5.9051   6.1602
  6.2186   6.4985   6.6341   6.7204   6.8110   6.9647   7.2040   7.3069
 22.5825  23.5905  32.4220  44.3033
 --------------------------------------------------------------
 
          Ground-State Mulliken Net Atomic Charges

     Atom                 Charge (a.u.)
  ----------------------------------------
      1 C                    -0.649492
      2 C                     0.461625
      3 O                    -0.726319
      4 N                    -0.280885
      5 H                     0.249597
      6 H                     0.239547
      7 H                     0.236859
      8 H                     0.246305
      9 H                     0.222764
  ----------------------------------------
  Sum of atomic charges =     0.000000

 -----------------------------------------------------------------
                    Cartesian Multipole Moments
 -----------------------------------------------------------------
    Charge (ESU x 10^10)
                 0.0000
    Dipole Moment (Debye)
         X      -3.2867      Y      -3.0498      Z      -4.3745
       Tot       6.2642
    Quadrupole Moments (Debye-Ang)
        XX     -24.1075     XY      -5.9784     YY     -30.6358
        XZ      -8.9726     YZ     -18.2118     ZZ     -50.2968
    Octopole Moments (Debye-Ang^2)
       XXX      19.7043    XXY     -47.4854    XYY      -7.2672
       YYY    -155.3152    XXZ     -68.3084    XYZ     -19.9857
       YYZ    -104.7124    XZZ     -20.9571    YZZ    -130.6668
       ZZZ    -316.7074
    Hexadecapole Moments (Debye-Ang^3)
      XXXX     -82.8241   XXXY      41.2421   XXYY    -130.0347
      XYYY       5.6727   YYYY    -725.8416   XXXZ      27.3830
      XXYZ    -127.7198   XYYZ     -40.7789   YYYZ    -459.5358
      XXZZ    -224.6631   XYZZ     -53.3422   YYZZ    -493.8157
      XZZZ     -68.6688   YZZZ    -720.7493   ZZZZ   -1685.2264
 -----------------------------------------------------------------
Archival summary:
1\1\nid00570\SP\ProcedureUnspecified\BasisUnspecified\1125\meili\SunSep2607:59:542021SunSep2607:59:542021\0\\#,ProcedureUnspecified,BasisUnspecified,\\0,1\C\O,1,1.24779\N,1,1.30358,2,122.407\H,3,1.0019,1,120.154,2,179.538,0\H,3,1.0083,1,117.543,2,0.513144,0\C,1,1.51393,2,122.345,3,179.416,0\H,6,1.08893,1,109.235,2,-39.7458,0\H,6,1.09063,1,109.173,2,-156.923,0\H,6,1.1,1,110.597,2,82.2023,0\\\@

 Total job time:  5780.24s(wall), 11219.44s(cpu) 
 Sun Sep 26 07:59:55 2021

        *************************************************************
        *                                                           *
        *  Thank you very much for using Q-Chem.  Have a nice day.  *
        *                                                           *
        *************************************************************


Done Job For Fragment 0
calling putenv with: QCSCRATCH=/global/cscratch1/sd/meili 
calling putenv with: QCLOCALSCR=/tmp 
calling putenv with: QCTHREADS=32 
Creating input file /tmp/qchem37195/Frg2.input
using default PutDataFrgm: nothing
calling putenv with: QCSCRATCH=/tmp/qchem37195/ 
calling putenv with: QCLOCALSCR=/tmp/qchem37195/ 
Spawning Job For Fragment 1
                  Welcome to Q-Chem
     A Quantum Leap Into The Future Of Chemistry


 Q-Chem 5.2, Q-Chem, Inc., Pleasanton, CA (2019)

 License issued to: National Energy Research Scientific Computing Center

 Yihan Shao,  Zhengting Gan,  E. Epifanovsky,  A. T. B. Gilbert,  M. Wormit,  
 J. Kussmann,  A. W. Lange,  A. Behn,  Jia Deng,  Xintian Feng,  D. Ghosh,  
 M. Goldey,  P. R. Horn,  L. D. Jacobson,  I. Kaliman,  T. Kus,  A. Landau,  
 Jie Liu,  E. I. Proynov,  R. M. Richard,  R. P. Steele,  E. J. Sundstrom,  
 H. L. Woodcock III,  P. M. Zimmerman,  D. Zuev,  B. Albrecht,  E. Alguire,  
 S. A. Baeppler,  D. Barton,  Z. Benda,  Y. A. Bernard,  E. J. Berquist,  
 K. B. Bravaya,  H. Burton,  D. Casanova,  Chun-Min Chang,  Yunqing Chen,  
 A. Chien,  K. D. Closser,  M. P. Coons,  S. Coriani,  S. Dasgupta,  
 A. L. Dempwolff,  M. Diedenhofen,  Hainam Do,  R. G. Edgar,  Po-Tung Fang,  
 S. Faraji,  S. Fatehi,  Qingguo Feng,  K. D. Fenk,  J. Fosso-Tande,  
 J. Gayvert,  Qinghui Ge,  A. Ghysels,  G. Gidofalvi,  J. Gomes,  
 J. Gonthier,  A. Gunina,  D. Hait,  M. W. D. Hanson-Heine,  
 P. H. P. Harbach,  A. W. Hauser,  M. F. Herbst,  J. E. Herr,  
 E. G. Hohenstein,  Z. C. Holden,  Kerwin Hui,  B. C. Huynh,  T.-C. Jagau,  
 Hyunjun Ji,  B. Kaduk,  K. Khistyaev,  Jaehoon Kim,  P. Klunzinger,  K. Koh,  
 D. Kosenkov,  L. Koulias,  T. Kowalczyk,  C. M. Krauter,  A. Kunitsa,  
 Ka Un Lao,  A. Laurent,  K. V. Lawler,  Joonho Lee,  D. Lefrancois,  
 S. Lehtola,  D. S. Levine,  Yi-Pei Li,  You-Sheng Lin,  Fenglai Liu,  
 E. Livshits,  A. Luenser,  P. Manohar,  E. Mansoor,  S. F. Manzer,  
 Shan-Ping Mao,  Yuezhi Mao,  N. Mardirossian,  A. V. Marenich,  
 T. Markovich,  L. A. Martinez-Martinez,  S. A. Maurer,  N. J. Mayhall,  
 S. C. McKenzie,  J.-M. Mewes,  P. Morgante,  A. F. Morrison,  
 J. W. Mullinax,  K. Nanda,  T. S. Nguyen-Beck,  R. Olivares-Amaya,  
 J. A. Parkhill,  Zheng Pei,  T. M. Perrine,  F. Plasser,  P. Pokhilko,  
 S. Prager,  A. Prociuk,  E. Ramos,  D. R. Rehn,  F. Rob,  M. Scheurer,  
 M. Schneider,  N. Sergueev,  S. M. Sharada,  S. Sharma,  D. W. Small,  
 T. Stauch,  T. Stein,  Yu-Chuan Su,  A. J. W. Thom,  A. Tkatchenko,  
 T. Tsuchimochi,  N. M. Tubman,  L. Vogt,  M. L. Vidal,  O. Vydrov,  
 M. A. Watson,  J. Wenzel,  M. de Wergifosse,  T. A. Wesolowski,  A. White,  
 J. Witte,  A. Yamada,  Jun Yang,  K. Yao,  S. Yeganeh,  S. R. Yost,  
 Zhi-Qiang You,  A. Zech,  Igor Ying Zhang,  Xing Zhang,  Yan Zhao,  
 Ying Zhu,  B. R. Brooks,  G. K. L. Chan,  C. J. Cramer,  M. S. Gordon,  
 W. J. Hehre,  A. Klamt,  M. W. Schmidt,  C. D. Sherrill,  D. G. Truhlar,  
 A. Aspuru-Guzik,  R. Baer,  A. T. Bell,  N. A. Besley,  Jeng-Da Chai,  
 A. E. DePrince, III,  R. A. DiStasio Jr.,  A. Dreuw,  B. D. Dunietz,  
 T. R. Furlani,  Chao-Ping Hsu,  Yousung Jung,  Jing Kong,  D. S. Lambrecht,  
 WanZhen Liang,  C. Ochsenfeld,  V. A. Rassolov,  L. V. Slipchenko,  
 J. E. Subotnik,  T. Van Voorhis,  J. M. Herbert,  A. I. Krylov,  
 P. M. W. Gill,  M. Head-Gordon

 Contributors to earlier versions of Q-Chem not listed above: 
 R. D. Adamson,  B. Austin,  J. Baker,  G. J. O. Beran,  K. Brandhorst,  
 S. T. Brown,  E. F. C. Byrd,  A. K. Chakraborty,  C.-L. Cheng,  
 Siu Hung Chien,  D. M. Chipman,  D. L. Crittenden,  H. Dachsel,  
 R. J. Doerksen,  A. D. Dutoi,  L. Fusti-Molnar,  W. A. Goddard III,  
 A. Golubeva-Zadorozhnaya,  S. R. Gwaltney,  G. Hawkins,  A. Heyden,  
 S. Hirata,  G. Kedziora,  F. J. Keil,  C. Kelley,  Jihan Kim,  R. A. King,  
 R. Z. Khaliullin,  P. P. Korambath,  W. Kurlancheek,  A. M. Lee,  M. S. Lee,  
 S. V. Levchenko,  Ching Yeh Lin,  D. Liotard,  R. C. Lochan,  I. Lotan,  
 P. E. Maslen,  N. Nair,  D. P. O'Neill,  D. Neuhauser,  E. Neuscamman,  
 C. M. Oana,  R. Olson,  B. Peters,  R. Peverati,  P. A. Pieniazek,  
 Y. M. Rhee,  J. Ritchie,  M. A. Rohrdanz,  E. Rosta,  N. J. Russ,  
 H. F. Schaefer III,  N. E. Schultz,  N. Shenvi,  A. C. Simmonett,  A. Sodt,  
 D. Stuck,  K. S. Thanthiriwatte,  V. Vanovschi,  Tao Wang,  A. Warshel,  
 C. F. Williams,  Q. Wu,  X. Xu,  W. Zhang

 Please cite Q-Chem as follows:
 Y. Shao et al., Mol. Phys. 113, 184-215 (2015)
 DOI: 10.1080/00268976.2014.952696

 Q-Chem 5.2.0 for Intel X86 EM64T Linux

 Parts of Q-Chem use Armadillo 8.300.2 (Tropical Shenanigans).
 http://arma.sourceforge.net/

 Q-Chem begins on Sun Sep 26 07:59:57 2021  

Host: cori01
0

     Scratch files written to /tmp/qchem37195//Frg2//
 May1019 |scratch|qcdevops|jenkins|workspace|build_RNUM -1
Processing $rem in /global/common/cori/software/qchem/5.2/config/preferences:
	 MEM_TOTAL  96000 
NAlpha2: 58
NElect   58
Mult     1
Symmetry turned off for PCM/SM12/SMD calculation

Checking the input file for inconsistencies... 	...done.

--------------------------------------------------------------
User input:
--------------------------------------------------------------
$molecule
0 1
 6	2.1244986429	-1.9377263538	-3.4605248758
 6	0.5344986429	-0.8517263538	-0.1565248758
 6	-0.7675013571	-0.5857263538	-0.5635248758
 6	1.4824986429	-1.2857263538	-1.0905248758
 6	1.1274986429	-1.4777263538	-2.4265248758
 6	-1.1455013571	-0.7687263538	-1.8925248758
 6	-0.1875013571	-1.2127263538	-2.8075248758
 8	-1.7265013571	-0.1877263538	0.3194751242
 1	0.8294986429	-0.7317263538	0.8714751242
 1	2.5004986429	-1.4667263538	-0.7705248758
 1	-2.1585013571	-0.5717263538	-2.2155248758
 1	-2.5665013571	-0.0187263538	-0.1295248758
 1	3.1234986429	-1.9607263538	-3.0245248758
 1	2.1244986429	-1.2127263538	-4.2755248758
 1	-0.4775013571	-1.3527263538	-3.8405248758
 1	1.8730566429	-2.9348983538	-3.8509448758
$end
$rem
EDA2		1
METHOD		WB97X-V
BASIS		DEF2-TZVPD
XC_GRID		000099000590
NL_GRID		1
UNRESTRICTED		FALSE
MAX_SCF_CYCLES		200
SYMMETRY		FALSE
SYM_IGNORE		TRUE
BASIS_LIN_DEP_THRESH		6
THRESH		14
SCF_CONVERGENCE		8
SCF_PRINT_FRGM		TRUE
SOLVENT_METHOD		SMD
!required keywords
JOBTYPE		SP
SYM_IGNORE		TRUE
SUBSYSTEM		TRUE
GEN_SCFMAN		TRUE
CHILD_INSTRUCTION		2
SYM_IGNORE		TRUE
SCFMI		0
RI_K 0		
PARI_K 0		
MIN_PARI_K 0		
IARI_K 0		
OCC_RI_K 0		
PURECART		1111
MEM_STATIC		2000
MEM_TOTAL		96000
GUI		0
CHILD_MP		1
CHILD_MP_ORDERS		232
FRZ_RELAX		0
FRZ_RELAX_METHOD		0
EDA_CLS_ELEC		1
EDA_CLS_DISP		0
FRZ_ORTHO_DECOMP		1
EDA2		FALSE
FRGM_METHOD		FALSE
CIS_N_ROOTS  0
LOCAL_CIS    0
CIS_RLX_DNS  1
$end
$smx
SOLVENT			WATER
$end
--------------------------------------------------------------
 ----------------------------------------------------------------
             Standard Nuclear Orientation (Angstroms)
    I     Atom           X                Y                Z
 ----------------------------------------------------------------
    1      C       2.1244986429    -1.9377263538    -3.4605248758
    2      C       0.5344986429    -0.8517263538    -0.1565248758
    3      C      -0.7675013571    -0.5857263538    -0.5635248758
    4      C       1.4824986429    -1.2857263538    -1.0905248758
    5      C       1.1274986429    -1.4777263538    -2.4265248758
    6      C      -1.1455013571    -0.7687263538    -1.8925248758
    7      C      -0.1875013571    -1.2127263538    -2.8075248758
    8      O      -1.7265013571    -0.1877263538     0.3194751242
    9      H       0.8294986429    -0.7317263538     0.8714751242
   10      H       2.5004986429    -1.4667263538    -0.7705248758
   11      H      -2.1585013571    -0.5717263538    -2.2155248758
   12      H      -2.5665013571    -0.0187263538    -0.1295248758
   13      H       3.1234986429    -1.9607263538    -3.0245248758
   14      H       2.1244986429    -1.2127263538    -4.2755248758
   15      H      -0.4775013571    -1.3527263538    -3.8405248758
   16      H       1.8730566429    -2.9348983538    -3.8509448758
 ----------------------------------------------------------------
 Nuclear Repulsion Energy =         342.87625823 hartrees
 There are       29 alpha and       29 beta electrons
 Requested basis set is def2-TZVPD
 There are 145 shells and 371 basis functions

 Total QAlloc Memory Limit  96000 MB
 Mega-Array Size      1956 MB
 MEM_STATIC part      2000 MB
 
 Citation of the SMD model:
 Marenich, A.V.; Cramer, C.J.; Truhlar, D.G.
 J. Phys. Chem. B 2009, 113, 6378-6396.
 iSolventCode=           1
 Solvent: water                                                           
 
 vradii
            1           2           3           4           5           6
    1   1.8500000   1.8500000   1.8500000   1.8500000   1.8500000   1.8500000
            7           8           9          10          11          12
    1   1.8500000   1.5200000   1.2000000   1.2000000   1.2000000   1.2000000
           13          14          15          16
    1   1.2000000   1.2000000   1.2000000   1.2000000
 Changing PCM_VDW_RADII to SMD_RADIUS
 Discretize the solute cavity surface with Lebedev spheres
	Using 110 Lebedev grid points for each H atom
	Using 194 Lebedev grid points for other atoms
	Atomic van der Waals radii will be scaled by 1.20
 Remove points where switching function is < 1.0e-08
 Keep 1187 surface tesserae and discard 1245 interior tesserae
 Molecular Surface Area = 141.342 Angst**2
 A cutoff of  1.0D-14 yielded  10046 shell pairs
 There are     67078 function pairs (     85770 Cartesian)
 Smallest overlap matrix eigenvalue = 5.60E-07
 Linear dependence detected in AO basis
 Tighter screening thresholds may be required for diffuse basis sets
 Use S2THRESH > 14 and THRESH = 14 in case of SCF convergence issues
 Number of orthogonalized atomic orbitals = 370
 Maximum deviation from orthogonality = 1.570E-10

 Scale SEOQF with 1.000000e-01/1.000000e-01/1.000000e-01

 Standard Electronic Orientation quadrupole field applied
 Nucleus-field energy     =    -0.0000000164 hartrees
 Guess from superposition of atomic densities
 Warning:  Energy on first SCF cycle will be non-variational
 SAD guess density has 57.738434 electrons

 -----------------------------------------------------------------------
  General SCF calculation program by
  Eric Jon Sundstrom, Paul Horn, Yuezhi Mao, Dmitri Zuev, Alec White,
  David Stuck, Shaama M.S., Shane Yost, Joonho Lee, David Small,
  Daniel Levine, Susi Lehtola, Hugh Burton, Evgeny Epifanovsky
 -----------------------------------------------------------------------
 Exchange:     0.1670 Hartree-Fock + 1.0000 wB97X-V + LR-HF
 Correlation:  1.0000 wB97X-V
 Using Euler-Maclaurin-Lebedev (99,590) quadrature formula
 Nonlocal Correlation:  VV10 with C = 0.0100 and b = 6.00 and scale = 1.00000
 Grid used for NLC:  SG-1 standard quadrature
Energy prior to optimization (guess energy) = -346.494584947778
Begin Timing: Total SCF Calculation
begin iterations for algorithm: DIIS         
the SCF tolerance is set to 1.00e-08
    1    -346.4945849478      5.18e-03     00000 
    2    -346.4337641215      5.61e-03     00000 
    3    -346.8199702649      5.32e-04     00000 
    4    -346.8248802098      1.75e-04     00000 
    5    -346.8255787135      3.72e-05     00000 
    6    -346.8256294684      1.26e-05     00000 
    7    -346.8256340810      4.78e-06     00000 
    8    -346.8256347789      1.49e-06     00000 
    9    -346.8256348749      4.90e-07     00000 
   10    -346.8256348897      2.75e-07     00000 
   11    -346.8256348943      8.17e-08     00000 
   12    -346.8256348952      3.73e-08     00000 
   13    -346.8256348953      1.50e-08     00000 
   14    -346.8256348953      3.54e-09     00000 Convergence criterion met
Timing for Total SCF: 2059.00s (wall), 4096.92s (cpu)
(3)  G-ENP(liq) elect-nuc-pol free energy of system     -346.825634895 a.u.
(4)  G-CDS(liq) cavity-dispersion-solvent structure 
     free energy                                                3.7842 kcal/mol
(6)  G-S(liq) free energy of system                     -346.819604383 a.u.
E_pcm = -0.0177351824
E_cds = 0.0060305120
Multipole orders to be included
        2
        3
computing dipole RHS
computing quadrupole RHS
total number of RHS in solve_reponses: 8
RHS batch sizes
        8
Beginning Block Conjugate Gradient Iterations. Batch Number: 0
computing hessian-vector products by finite difference
              1      6.57e-01     00000 Conjugate Gradient Iteration
computing hessian-vector products by finite difference
              2      1.99e-01     00000 Conjugate Gradient Iteration
computing hessian-vector products by finite difference
              3      5.27e-02     00000 Conjugate Gradient Iteration
computing hessian-vector products by finite difference
              4      1.68e-02     00000 Conjugate Gradient Iteration
computing hessian-vector products by finite difference
              5      4.32e-03     00000 Conjugate Gradient Iteration
computing hessian-vector products by finite difference
              6      1.62e-03     00000 Conjugate Gradient Iteration
computing hessian-vector products by finite difference
              7      3.88e-04     00000 Conjugate Gradient Iteration
computing hessian-vector products by finite difference
              8      7.65e-05     00000 Conjugate Gradient Iteration
computing hessian-vector products by finite difference
              9      1.44e-05     00000 Conjugate Gradient Iteration
computing hessian-vector products by finite difference
             10      2.09e-06     00000 Conjugate Gradient Iteration
computing hessian-vector products by finite difference
             11      3.40e-07     00000 Conjugate Gradient Iteration
computing hessian-vector products by finite difference
             12      7.93e-08     00000 Conjugate Gradient Iteration
computing hessian-vector products by finite difference
             13      1.16e-08     00000 Conjugate Gradient Iteration
computing hessian-vector products by finite difference
             14      3.63e-09     00000 CG Converged
batch 0 complete
Done Calculating Responses
TESTING ORTHOGONALIZATION OF MULTIPOLE BASIS
Multipole virts passed orthogonality test
Virts Per Order
           87
          145
 
 --------------------------------------------------------------
 
                    Orbital Energies (a.u.)
 --------------------------------------------------------------
 
 Alpha MOs
 -- Occupied --
-19.2394 -10.3311 -10.2712 -10.2700 -10.2679 -10.2667 -10.2665 -10.2533
 -1.1896  -0.9898  -0.8959  -0.8779  -0.8035  -0.7417  -0.7084  -0.6587
 -0.5980  -0.5733  -0.5441  -0.5369  -0.5269  -0.5168  -0.5056  -0.4714
 -0.4491  -0.4390  -0.4340  -0.3484  -0.3096
 -- Virtual --
  0.0628   0.0638   0.0741   0.0826   0.0888   0.0996   0.1138   0.1156
  0.1186   0.1370   0.1500   0.1562   0.1618   0.1778   0.1850   0.1969
  0.2040   0.2099   0.2216   0.2318   0.2395   0.2449   0.2528   0.2598
  0.2673   0.2749   0.2802   0.2840   0.2848   0.2999   0.3009   0.3069
  0.3109   0.3160   0.3165   0.3297   0.3378   0.3461   0.3501   0.3563
  0.3588   0.3627   0.3697   0.3753   0.3806   0.3842   0.3874   0.3961
  0.4007   0.4023   0.4050   0.4111   0.4195   0.4244   0.4315   0.4365
  0.4396   0.4591   0.4627   0.4652   0.4785   0.4846   0.4865   0.4899
  0.4952   0.4985   0.5054   0.5069   0.5156   0.5199   0.5340   0.5411
  0.5486   0.5510   0.5543   0.5565   0.5610   0.5710   0.5794   0.5962
  0.6065   0.6117   0.6173   0.6270   0.6520   0.6618   0.6662   0.6727
  0.6800   0.6853   0.6983   0.7005   0.7078   0.7103   0.7216   0.7325
  0.7385   0.7419   0.7494   0.7540   0.7632   0.7720   0.7858   0.7896
  0.7921   0.7933   0.7988   0.8043   0.8081   0.8219   0.8317   0.8370
  0.8478   0.8556   0.8593   0.8606   0.8714   0.8771   0.8853   0.8927
  0.9112   0.9159   0.9470   0.9520   0.9587   0.9940   1.0032   1.0161
  1.0205   1.0453   1.0471   1.0538   1.0592   1.0707   1.0860   1.0949
  1.1016   1.1226   1.1387   1.1657   1.2026   1.2387   1.2748   1.3048
  1.3180   1.3206   1.3267   1.3624   1.3705   1.3859   1.4039   1.4439
  1.4562   1.4711   1.4778   1.4920   1.5337   1.5694   1.6196   1.6304
  1.6437   1.6492   1.6704   1.6794   1.7041   1.7369   1.7568   1.8043
  1.8210   1.8299   1.8426   1.8551   1.8735   1.8842   1.9236   1.9250
  1.9447   1.9617   1.9846   1.9919   1.9984   2.0321   2.0416   2.0545
  2.0638   2.0814   2.0856   2.1209   2.1228   2.1601   2.2021   2.2126
  2.2316   2.2479   2.2719   2.2881   2.3151   2.3240   2.3403   2.3719
  2.4036   2.4068   2.4419   2.4722   2.4857   2.4991   2.5398   2.5538
  2.5797   2.6109   2.6312   2.6427   2.6585   2.6720   2.6953   2.7513
  2.7639   2.7676   2.7837   2.8176   2.8205   2.8360   2.8714   2.8769
  2.9149   2.9262   2.9378   2.9506   2.9714   2.9789   2.9883   3.0101
  3.0282   3.0434   3.0678   3.0894   3.1089   3.1444   3.1555   3.1689
  3.1866   3.2076   3.2182   3.2210   3.2422   3.2596   3.2908   3.3009
  3.3082   3.3692   3.3876   3.3980   3.4038   3.4222   3.4532   3.4605
  3.4667   3.4779   3.4926   3.5160   3.5273   3.5324   3.5455   3.5499
  3.5549   3.5661   3.5745   3.5920   3.6101   3.6316   3.6471   3.6792
  3.6968   3.7092   3.7418   3.7492   3.7965   3.8115   3.8570   3.9260
  3.9362   3.9664   3.9727   4.0065   4.0414   4.0856   4.1679   4.1718
  4.2423   4.2720   4.2807   4.3078   4.3264   4.3411   4.3451   4.3598
  4.3761   4.3990   4.4163   4.4736   4.4980   4.5570   4.5931   4.6214
  4.7500   4.7569   4.8010   4.8061   4.8424   4.9323   5.0211   5.0585
  5.0919   5.1391   5.1648   5.3040   5.3334   5.4043   5.4446   5.5415
  5.6087   5.6574   5.7114   5.7726   5.9498   6.1999   6.4855   6.5845
  6.6365   6.8751   7.0255   7.3026   7.4516  22.6823  22.6916  22.9416
 22.9877  23.0266  23.1905  23.5071  44.4221
 --------------------------------------------------------------
 
          Ground-State Mulliken Net Atomic Charges

     Atom                 Charge (a.u.)
  ----------------------------------------
      1 C                    -1.061841
      2 C                    -0.816786
      3 C                     0.715216
      4 C                    -0.494354
      5 C                     0.451857
      6 C                    -0.336936
      7 C                    -0.603927
      8 O                    -0.549986
      9 H                     0.404000
     10 H                     0.369222
     11 H                     0.369135
     12 H                     0.327254
     13 H                     0.300227
     14 H                     0.266459
     15 H                     0.405251
     16 H                     0.255208
  ----------------------------------------
  Sum of atomic charges =     0.000000

 -----------------------------------------------------------------
                    Cartesian Multipole Moments
 -----------------------------------------------------------------
    Charge (ESU x 10^10)
                -0.0000
    Dipole Moment (Debye)
         X      -0.8523      Y      -0.0557      Z      -1.9480
       Tot       2.1270
    Quadrupole Moments (Debye-Ang)
        XX     -37.1753     XY      -2.6503     YY     -50.6379
        XZ       3.6168     YZ       2.1850     ZZ     -42.8572
    Octopole Moments (Debye-Ang^2)
       XXX     -52.6288    XXY      46.7668    XYY      -7.1918
       YYY     160.5387    XXZ      62.5079    XYZ       2.1767
       YYZ      74.6735    XZZ     -10.8161    YZZ      40.6455
       ZZZ     201.9358
    Hexadecapole Moments (Debye-Ang^3)
      XXXX    -509.4257   XXXY     115.9589   XXYY    -180.2774
      XYYY     129.1468   YYYY    -490.9471   XXXZ     206.6712
      XXYZ    -102.1316   XYYZ      55.4285   YYYZ    -329.5554
      XXZZ    -306.2133   XYZZ      39.8712   YYZZ    -283.7811
      XZZZ     196.6349   YZZZ    -289.5060   ZZZZ   -1197.6131
 -----------------------------------------------------------------
Archival summary:
1\1\nid00570\SP\ProcedureUnspecified\BasisUnspecified\178\meili\SunSep2618:20:262021SunSep2618:20:262021\0\\#,ProcedureUnspecified,BasisUnspecified,\\0,1\C\O,1,1.363\H,2,0.967348,1,111.179\C,1,1.38982,2,121.689,3,178.225,0\H,4,1.0762,1,121.009,2,-1.21025,0\C,1,1.39378,2,117.726,3,-4.14252,0\H,6,1.08134,1,120.995,2,1.83756,0\C,6,1.39718,1,118.7,2,-178.223,0\H,8,1.08203,6,118.853,1,-179.815,0\C,8,1.39449,6,121.873,1,0.114082,0\C,10,1.39563,8,118.377,6,-0.179469,0\H,11,1.08235,10,119.951,8,-178.913,0\C,10,1.50823,8,119.604,6,-179.202,0\H,13,1.09024,10,109.754,8,172.027,0\H,13,1.0908,10,108.03,8,54.2238,0\H,13,1.1,10,111.636,8,-66.49,0\\\@

 Total job time:  37231.84s(wall), 74075.81s(cpu) 
 Sun Sep 26 18:20:29 2021

        *************************************************************
        *                                                           *
        *  Thank you very much for using Q-Chem.  Have a nice day.  *
        *                                                           *
        *************************************************************


Done Job For Fragment 1
calling putenv with: QCSCRATCH=/global/cscratch1/sd/meili 
calling putenv with: QCLOCALSCR=/tmp 
calling putenv with: QCTHREADS=32 
Doing General SCFMI
 Exchange:     0.1670 Hartree-Fock + 1.0000 wB97X-V + LR-HF
 Correlation:  1.0000 wB97X-V
 Using Euler-Maclaurin-Lebedev (99,590) quadrature formula
 Nonlocal Correlation:  VV10 with C = 0.0100 and b = 6.00 and scale = 1.00000
 Grid used for NLC:  SG-1 standard quadrature
performing fock build before subrot guess so that all methods have access
Printing subrot_rss_gen Method Specification:
Occupied Subspace Method is 0
Virtual Subspace Method is 0
Energy of the unrelaxed supersystem initial determinant -556.030151905428
performing fock build before subrot guess so that all methods have access
Printing subrot_rss_gen Method Specification:
Occupied Subspace Method is 0
Virtual Subspace Method is 0
Energy of the unrelaxed supersystem initial determinant w/ solvent -556.072340860333
write pseudocanon occs and virts to disk
write pseudocanon orbital energies to disk
Tolerance of ortho_decomp_scf: 1.00e-06
GDM subspace size: 20
Beginning the Orthogonal Decomposition of the Initial Supersystem Wavefunction
    1    -555.9489672276      8.64e-02     ortho_decomp Preconditoned Steepest Descent
    2    -555.9641676769      2.13e-03     ortho_decomp BFGS Step
    3    -555.9642234081      2.04e-04     ortho_decomp BFGS Step
    4    -555.9642235560      8.85e-06     ortho_decomp BFGS Step
    5    -555.9642235565      2.82e-07     ortho_decomp 00000 Convergence criterion met
 Hartree-Fock
 Hartree-Fock
 Hartree-Fock
Doing General SCFMI
 Exchange:     0.1670 Hartree-Fock + 1.0000 wB97X-V + LR-HF
 Correlation:  1.0000 wB97X-V
 Using Euler-Maclaurin-Lebedev (99,590) quadrature formula
 Nonlocal Correlation:  VV10 with C = 0.0100 and b = 6.00 and scale = 1.00000
 Grid used for NLC:  SG-1 standard quadrature
performing fock build at end of subrot_r(subrot) constructor so that all methods have access
<S^2> of initial wavefunction before polarization iterations 0.0000000000
Beginning iterations for the determination of the polarized wavefunction
Energy prior to optimization (guess energy) = -556.072340860334
Begin Timing: Total SCF Calculation
begin iterations for algorithm: DIIS         
the SCF tolerance is set to 1.00e-08
    1    -556.0723408603      1.80e-04     00000 
    2    -556.0747182660      6.63e-05     00000 
    3    -556.0749322067      4.42e-05     00000 
    4    -556.0750174716      1.29e-05     00000 
    5    -556.0750292254      6.17e-06     00000 
    6    -556.0750326733      3.03e-06     00000 
    7    -556.0750337444      1.26e-06     00000 
    8    -556.0750339860      6.61e-07     00000 
    9    -556.0750340324      2.55e-07     00000 
   10    -556.0750340364      1.13e-07     00000 
   11    -556.0750340373      4.71e-08     00000 
   12    -556.0750340374      2.38e-08     00000 
   13    -556.0750340375      1.15e-08     00000 
   14    -556.0750340375      4.32e-09     00000 Convergence criterion met
write pseudocanon occs and virts to disk
write pseudocanon orbital energies to disk
Timing for Total SCF: 6732.00s (wall), 13395.10s (cpu)
<S^2> of polarized wavefunction after polarization iterations 0.0000000000
relaxing scfmi constraint to allow all rotations in the entire AO span
Doing General SCFMI
 Exchange:     0.1670 Hartree-Fock + 1.0000 wB97X-V + LR-HF
 Correlation:  1.0000 wB97X-V
 Using Euler-Maclaurin-Lebedev (99,590) quadrature formula
 Nonlocal Correlation:  VV10 with C = 0.0100 and b = 6.00 and scale = 1.00000
 Grid used for NLC:  SG-1 standard quadrature
performing fock build at end of subrot_r(subrot) constructor so that all methods have access
<S^2> of polarized wavefunction before ct-allowed iterations 0.0000000000
Beginning iterations for the determination of the CT-Allowed wavefunction
Energy prior to optimization (guess energy) = -556.075034037469
Begin Timing: Total SCF Calculation
begin iterations for algorithm: DIIS         
the SCF tolerance is set to 1.00e-08
    1    -556.0750340375      1.96e-04     00000 
    2    -556.0816860838      3.00e-05     00000 
    3    -556.0819208038      1.33e-05     00000 
    4    -556.0819391138      5.52e-06     00000 
    5    -556.0819434069      7.52e-07     00000 
    6    -556.0819435189      4.44e-07     00000 
    7    -556.0819435516      1.33e-07     00000 
    8    -556.0819435555      4.49e-08     00000 
    9    -556.0819435563      2.03e-08     00000 
   10    -556.0819435565      6.96e-09     00000 Convergence criterion met
write pseudocanon occs and virts to disk
write pseudocanon orbital energies to disk
Timing for Total SCF: 4701.00s (wall), 9353.75s (cpu)
<S^2> of ct_allowed wavefunction after ct-allowed iterations 0.0000000000

================================
        Results of EDA2         
================================
Basic EDA Quantities
--------------------
Fragment Energies (Ha):
1 -209.2521631520
2 -346.8196043833
--------------------
  E_prp (kJ/mol) = -0.0000
  E_sol (kJ/mol) = 18.4788
  E_frz (kJ/mol) = 8.2261
  E_pol (kJ/mol) = -7.0710
  E_vct (kJ/mol) = -18.1412
  E_int (kJ/mol) = 1.4927
--------------------


Initial Wavefunction Decomposition
--------------------
  --------------------
  Orthogonal Fragment Subspace Decomposition:
  --------------------
     E_elec   (ELEC)   (kJ/mol) = -119.2924
     E_pauli  (PAULI)  (kJ/mol) = 150.4232
     E_disp   (DISP)   (kJ/mol) = -22.9047
     --------------------
     Terms summing to E_pauli:
     --------------------
        E_kep_pauli       (kJ/mol) = 181.3230
        E_disp_free_pauli (kJ/mol) = -30.8998
  --------------------
  Classical Frozen Decomposition:
  --------------------
     E_cls_elec  (CLS ELEC)  (kJ/mol) = -72.1479
     E_cls_pauli (CLS PAULI) (kJ/mol) = 80.3739
    [E_mod_pauli (MOD PAULI) (kJ/mol) = 103.2786 (CLS PAULI - DISP from orthogonal decomposition) ]
  --------------------
--------------------

Simplified EDA Summary (kJ/mol)
--------------------
 PREPARATION     -0.0000
 SOLVATION       18.4788
 FROZEN          31.1307      (does not include dispersion)
[PAULI           150.4232]     (if this is negligible, then frozen describes electrostatics)
 DISPERSION      -22.9047
 POLARIZATION    -7.0710
 CHARGE TRANSFER -18.1412
 TOTAL           1.4927     (PRP + SOL + FRZ + DISP + POL + CT)
--------------------
 
 --------------------------------------------------------------
 
                    Orbital Energies (a.u.)
 --------------------------------------------------------------
 
 Alpha MOs
 -- Occupied --
-19.2490 -19.1775 -14.4133 -10.3713 -10.3347 -10.2730 -10.2713 -10.2695
-10.2689 -10.2686 -10.2607 -10.2538  -1.2017  -1.1648  -1.0412  -0.9919
 -0.8983  -0.8799  -0.8610  -0.8060  -0.7482  -0.7139  -0.7048  -0.6669
 -0.6575  -0.5992  -0.5864  -0.5755  -0.5622  -0.5465  -0.5419  -0.5286
 -0.5248  -0.5204  -0.4977  -0.4931  -0.4764  -0.4728  -0.4505  -0.4427
 -0.4357  -0.3771  -0.3712  -0.3496  -0.3134
 -- Virtual --
  0.0584   0.0607   0.0715   0.0742   0.0801   0.0907   0.0939   0.0978
  0.1073   0.1132   0.1170   0.1248   0.1290   0.1310   0.1423   0.1509
  0.1536   0.1590   0.1637   0.1723   0.1828   0.1920   0.1970   0.1982
  0.2000   0.2070   0.2186   0.2245   0.2261   0.2283   0.2341   0.2448
  0.2506   0.2519   0.2542   0.2588   0.2630   0.2732   0.2769   0.2801
  0.2812   0.2891   0.2954   0.2984   0.3020   0.3078   0.3108   0.3143
  0.3183   0.3210   0.3277   0.3291   0.3308   0.3373   0.3405   0.3426
  0.3518   0.3564   0.3591   0.3649   0.3687   0.3694   0.3721   0.3758
  0.3773   0.3834   0.3864   0.3877   0.3913   0.3937   0.4015   0.4044
  0.4056   0.4140   0.4164   0.4197   0.4242   0.4278   0.4350   0.4381
  0.4410   0.4461   0.4511   0.4531   0.4624   0.4641   0.4680   0.4717
  0.4769   0.4805   0.4819   0.4888   0.4943   0.4967   0.4989   0.5028
  0.5060   0.5145   0.5162   0.5208   0.5239   0.5268   0.5345   0.5353
  0.5402   0.5418   0.5503   0.5565   0.5598   0.5630   0.5659   0.5725
  0.5772   0.5814   0.5883   0.5948   0.6025   0.6071   0.6106   0.6168
  0.6290   0.6309   0.6345   0.6385   0.6416   0.6515   0.6566   0.6643
  0.6678   0.6768   0.6841   0.6876   0.6949   0.7013   0.7068   0.7106
  0.7193   0.7218   0.7248   0.7299   0.7379   0.7394   0.7406   0.7430
  0.7469   0.7523   0.7551   0.7678   0.7705   0.7747   0.7807   0.7827
  0.7840   0.7909   0.7966   0.7990   0.8019   0.8082   0.8131   0.8173
  0.8229   0.8259   0.8279   0.8360   0.8413   0.8507   0.8526   0.8557
  0.8636   0.8661   0.8729   0.8771   0.8851   0.8906   0.9030   0.9066
  0.9116   0.9263   0.9306   0.9326   0.9382   0.9465   0.9519   0.9676
  0.9726   0.9773   0.9968   1.0030   1.0197   1.0284   1.0326   1.0434
  1.0515   1.0535   1.0662   1.0673   1.0740   1.0819   1.0880   1.0981
  1.1003   1.1225   1.1289   1.1379   1.1421   1.1604   1.1657   1.1696
  1.1880   1.2013   1.2281   1.2397   1.2664   1.2736   1.2867   1.3027
  1.3156   1.3234   1.3283   1.3348   1.3456   1.3639   1.3682   1.3841
  1.3910   1.3930   1.4010   1.4116   1.4515   1.4621   1.4734   1.4809
  1.5008   1.5119   1.5237   1.5317   1.5522   1.5608   1.5774   1.5895
  1.6288   1.6494   1.6602   1.6673   1.7057   1.7140   1.7304   1.7346
  1.7461   1.7571   1.7866   1.7937   1.8058   1.8268   1.8375   1.8525
  1.8607   1.8792   1.8997   1.9043   1.9141   1.9232   1.9302   1.9362
  1.9451   1.9536   1.9677   1.9704   1.9867   1.9956   1.9977   2.0156
  2.0193   2.0350   2.0441   2.0506   2.0652   2.0767   2.0861   2.0905
  2.1117   2.1244   2.1283   2.1361   2.1669   2.1789   2.1853   2.2040
  2.2139   2.2243   2.2358   2.2484   2.2668   2.2783   2.2838   2.3264
  2.3319   2.3455   2.3619   2.3815   2.4043   2.4058   2.4123   2.4290
  2.4442   2.4536   2.4577   2.4817   2.5006   2.5170   2.5292   2.5394
  2.5659   2.5747   2.5898   2.6028   2.6150   2.6242   2.6298   2.6411
  2.6577   2.6782   2.6861   2.7062   2.7142   2.7234   2.7475   2.7619
  2.7712   2.7828   2.8001   2.8225   2.8249   2.8358   2.8379   2.8655
  2.8836   2.8901   2.9090   2.9145   2.9354   2.9445   2.9500   2.9657
  2.9916   2.9958   3.0011   3.0141   3.0274   3.0401   3.0417   3.0436
  3.0791   3.0818   3.1043   3.1206   3.1282   3.1627   3.1685   3.1789
  3.1861   3.1905   3.2110   3.2143   3.2260   3.2371   3.2516   3.2604
  3.2727   3.2758   3.2867   3.2967   3.3148   3.3320   3.3515   3.3613
  3.3799   3.3845   3.3940   3.4016   3.4059   3.4108   3.4238   3.4336
  3.4567   3.4675   3.4702   3.4900   3.5022   3.5123   3.5170   3.5236
  3.5384   3.5429   3.5589   3.5647   3.5713   3.5829   3.5858   3.5899
  3.6034   3.6255   3.6327   3.6386   3.6475   3.6517   3.6752   3.6908
  3.6960   3.7112   3.7227   3.7289   3.7458   3.7596   3.7958   3.8125
  3.8437   3.8590   3.9343   3.9418   3.9463   3.9743   3.9774   3.9964
  4.0203   4.0447   4.0536   4.0675   4.1035   4.1181   4.1789   4.1865
  4.2276   4.2546   4.2799   4.2919   4.3142   4.3324   4.3402   4.3498
  4.3519   4.3652   4.3803   4.4163   4.4246   4.4797   4.4932   4.5080
  4.5368   4.5726   4.5998   4.6276   4.6445   4.6576   4.7137   4.7565
  4.7661   4.7988   4.8099   4.8197   4.8595   4.9365   4.9469   4.9677
  5.0124   5.0301   5.0773   5.1165   5.1439   5.1727   5.2195   5.2455
  5.2791   5.3057   5.3355   5.3819   5.4055   5.4201   5.4420   5.4719
  5.5267   5.5500   5.5853   5.6026   5.6179   5.7068   5.7571   5.7678
  5.7786   5.9327   5.9682   6.2234   6.2373   6.2458   6.4813   6.5087
  6.6178   6.6611   6.7049   6.7393   6.8214   6.9063   6.9858   7.1522
  7.2275   7.3268   7.3566   7.4909  22.6463  22.6872  22.7324  22.9545
 23.0090  23.0374  23.2056  23.5248  23.6607  32.6316  44.4075  44.4921
 --------------------------------------------------------------
 
          Ground-State Mulliken Net Atomic Charges

     Atom                 Charge (a.u.)
  ----------------------------------------
      1 C                    -0.613699
      2 C                     0.500875
      3 O                    -0.753281
      4 N                    -0.198784
      5 H                     0.227695
      6 H                     0.177670
      7 H                     0.255678
      8 H                     0.215523
      9 H                     0.216263
     10 C                    -1.109245
     11 C                    -0.531984
     12 C                     0.615094
     13 C                    -0.645453
     14 C                     0.287665
     15 C                    -0.487964
     16 C                    -0.515096
     17 O                    -0.543373
     18 H                     0.567291
     19 H                     0.397892
     20 H                     0.401124
     21 H                     0.283522
     22 H                     0.300100
     23 H                     0.268199
     24 H                     0.420612
     25 H                     0.263675
  ----------------------------------------
  Sum of atomic charges =     0.000000

 -----------------------------------------------------------------
                    Cartesian Multipole Moments
 -----------------------------------------------------------------
    Charge (ESU x 10^10)
                -0.0000
    Dipole Moment (Debye)
         X      -4.3308      Y      -3.5029      Z      -7.0274
       Tot       8.9672
    Quadrupole Moments (Debye-Ang)
        XX     -60.5673     XY      -8.7131     YY     -81.8207
        XZ      -5.5456     YZ     -16.7027     ZZ     -94.5647
    Octopole Moments (Debye-Ang^2)
       XXX     -34.2315    XXY      -1.4827    XYY     -14.3935
       YYY       1.7709    XXZ      -6.6995    XYZ     -17.7937
       YYZ     -33.0630    XZZ     -31.9877    YZZ     -94.1402
       ZZZ    -124.6398
    Hexadecapole Moments (Debye-Ang^3)
      XXXX    -586.4837   XXXY     156.8790   XXYY    -310.2870
      XYYY     134.7942   YYYY   -1225.3708   XXXZ     233.0622
      XXYZ    -230.0614   XYYZ      13.7247   YYYZ    -795.5970
      XXZZ    -530.2303   XYZZ     -15.0706   YYZZ    -784.7136
      XZZZ     125.3129   YZZZ   -1020.3339   ZZZZ   -2907.0737
 -----------------------------------------------------------------
Archival summary:
1\1\nid00570\SP\ProcedureUnspecified\BasisUnspecified\21913\meili\SunSep2623:47:062021SunSep2623:47:062021\0\\#,ProcedureUnspecified,BasisUnspecified,\\0,1\O\H,1,0.967348\C,1,1.363,2,111.179\C,3,1.38982,1,121.689,2,178.225,0\H,4,1.0762,3,121.009,1,-1.21025,0\C,3,1.39378,1,117.726,2,-4.14252,0\H,6,1.08134,3,120.995,1,1.83756,0\C,6,1.39718,3,118.7,1,-178.223,0\H,8,1.08203,6,118.853,3,-179.815,0\C,8,1.39449,6,121.873,3,0.114082,0\C,10,1.39563,8,118.377,6,-0.179469,0\H,11,1.08235,10,119.951,8,-178.913,0\C,10,1.50823,8,119.604,6,-179.202,0\H,13,1.09024,10,109.754,8,172.027,0\H,13,1.0908,10,108.03,8,54.2238,0\H,13,1.1,10,111.636,8,-66.49,0\H,1,1.69155,2,133.55,3,155.745,0\N,17,1.0019,1,168.903,2,-165.685,0\H,18,1.0083,17,122.296,1,-70.386,0\C,18,1.30358,17,120.154,1,110.636,0\O,20,1.24779,18,122.407,17,179.538,0\C,20,1.51393,18,115.245,17,0.084204,0\H,22,1.08893,20,109.235,18,139.709,0\H,22,1.09063,20,109.173,18,22.532,0\H,22,1.1,20,110.597,18,-98.3431,0\\\@

 Total job time:  62620.70s(wall), 39021.26s(cpu) 
 Sun Sep 26 23:47:11 2021

        *************************************************************
        *                                                           *
        *  Thank you very much for using Q-Chem.  Have a nice day.  *
        *                                                           *
        *************************************************************


