                  Welcome to Q-Chem
     A Quantum Leap Into The Future Of Chemistry


 Q-Chem 5.2 (devel), Q-Chem, Inc., Pleasanton, CA (2019)

 Yihan Shao,  Zhengting Gan,  E. Epifanovsky,  A. T. B. Gilbert,  M. Wormit,  
 J. Kussmann,  A. W. Lange,  A. Behn,  Jia Deng,  Xintian Feng,  D. Ghosh,  
 M. Goldey,  P. R. Horn,  L. D. Jacobson,  I. Kaliman,  T. Kus,  A. Landau,  
 Jie Liu,  E. I. Proynov,  R. M. Richard,  R. P. Steele,  E. J. Sundstrom,  
 H. L. Woodcock III,  P. M. Zimmerman,  D. Zuev,  B. Albrecht,  E. Alguire,  
 S. A. Baeppler,  D. Barton,  Z. Benda,  Y. A. Bernard,  E. J. Berquist,  
 K. B. Bravaya,  H. Burton,  D. Casanova,  Chun-Min Chang,  Yunqing Chen,  
 A. Chien,  K. D. Closser,  M. P. Coons,  S. Coriani,  S. Dasgupta,  
 A. L. Dempwolff,  M. Diedenhofen,  Hainam Do,  R. G. Edgar,  Po-Tung Fang,  
 S. Faraji,  S. Fatehi,  Qingguo Feng,  K. D. Fenk,  J. Fosso-Tande,  
 J. Gayvert,  Qinghui Ge,  A. Ghysels,  G. Gidofalvi,  J. Gomes,  
 J. Gonthier,  A. Gunina,  D. Hait,  M. W. D. Hanson-Heine,  
 P. H. P. Harbach,  A. W. Hauser,  M. F. Herbst,  J. E. Herr,  
 E. G. Hohenstein,  Z. C. Holden,  Kerwin Hui,  B. C. Huynh,  T.-C. Jagau,  
 Hyunjun Ji,  B. Kaduk,  K. Khistyaev,  Jaehoon Kim,  P. Klunzinger,  K. Koh,  
 D. Kosenkov,  L. Koulias,  T. Kowalczyk,  C. M. Krauter,  A. Kunitsa,  
 Ka Un Lao,  A. Laurent,  K. V. Lawler,  Joonho Lee,  D. Lefrancois,  
 S. Lehtola,  D. S. Levine,  Yi-Pei Li,  You-Sheng Lin,  Fenglai Liu,  
 E. Livshits,  A. Luenser,  P. Manohar,  E. Mansoor,  S. F. Manzer,  
 Shan-Ping Mao,  Yuezhi Mao,  N. Mardirossian,  A. V. Marenich,  
 T. Markovich,  L. A. Martinez-Martinez,  S. A. Maurer,  N. J. Mayhall,  
 S. C. McKenzie,  J.-M. Mewes,  P. Morgante,  A. F. Morrison,  
 J. W. Mullinax,  K. Nanda,  T. S. Nguyen-Beck,  R. Olivares-Amaya,  
 J. A. Parkhill,  Zheng Pei,  T. M. Perrine,  F. Plasser,  P. Pokhilko,  
 S. Prager,  A. Prociuk,  E. Ramos,  D. R. Rehn,  F. Rob,  M. Scheurer,  
 M. Schneider,  N. Sergueev,  S. M. Sharada,  S. Sharma,  D. W. Small,  
 T. Stauch,  T. Stein,  Yu-Chuan Su,  A. J. W. Thom,  A. Tkatchenko,  
 T. Tsuchimochi,  N. M. Tubman,  L. Vogt,  M. L. Vidal,  O. Vydrov,  
 M. A. Watson,  J. Wenzel,  M. de Wergifosse,  T. A. Wesolowski,  A. White,  
 J. Witte,  A. Yamada,  Jun Yang,  K. Yao,  S. Yeganeh,  S. R. Yost,  
 Zhi-Qiang You,  A. Zech,  Igor Ying Zhang,  Xing Zhang,  Yan Zhao,  
 Ying Zhu,  B. R. Brooks,  G. K. L. Chan,  C. J. Cramer,  M. S. Gordon,  
 W. J. Hehre,  A. Klamt,  M. W. Schmidt,  C. D. Sherrill,  D. G. Truhlar,  
 A. Aspuru-Guzik,  R. Baer,  A. T. Bell,  N. A. Besley,  Jeng-Da Chai,  
 A. E. DePrince, III,  R. A. DiStasio Jr.,  A. Dreuw,  B. D. Dunietz,  
 T. R. Furlani,  Chao-Ping Hsu,  Yousung Jung,  Jing Kong,  D. S. Lambrecht,  
 WanZhen Liang,  C. Ochsenfeld,  V. A. Rassolov,  L. V. Slipchenko,  
 J. E. Subotnik,  T. Van Voorhis,  J. M. Herbert,  A. I. Krylov,  
 P. M. W. Gill,  M. Head-Gordon

 Contributors to earlier versions of Q-Chem not listed above: 
 R. D. Adamson,  B. Austin,  J. Baker,  G. J. O. Beran,  K. Brandhorst,  
 S. T. Brown,  E. F. C. Byrd,  A. K. Chakraborty,  C.-L. Cheng,  
 Siu Hung Chien,  D. M. Chipman,  D. L. Crittenden,  H. Dachsel,  
 R. J. Doerksen,  A. D. Dutoi,  L. Fusti-Molnar,  W. A. Goddard III,  
 A. Golubeva-Zadorozhnaya,  S. R. Gwaltney,  G. Hawkins,  A. Heyden,  
 S. Hirata,  G. Kedziora,  F. J. Keil,  C. Kelley,  Jihan Kim,  R. A. King,  
 R. Z. Khaliullin,  P. P. Korambath,  W. Kurlancheek,  A. M. Lee,  M. S. Lee,  
 S. V. Levchenko,  Ching Yeh Lin,  D. Liotard,  R. C. Lochan,  I. Lotan,  
 P. E. Maslen,  N. Nair,  D. P. O'Neill,  D. Neuhauser,  E. Neuscamman,  
 C. M. Oana,  R. Olson,  B. Peters,  R. Peverati,  P. A. Pieniazek,  
 Y. M. Rhee,  J. Ritchie,  M. A. Rohrdanz,  E. Rosta,  N. J. Russ,  
 H. F. Schaefer III,  N. E. Schultz,  N. Shenvi,  A. C. Simmonett,  A. Sodt,  
 D. Stuck,  K. S. Thanthiriwatte,  V. Vanovschi,  Tao Wang,  A. Warshel,  
 C. F. Williams,  Q. Wu,  X. Xu,  W. Zhang

 Please cite Q-Chem as follows:
 Y. Shao et al., Mol. Phys. 113, 184-215 (2015)
 DOI: 10.1080/00268976.2014.952696

 Q-Chem 5.2.1 for Intel X86 EM64T Linux

 Parts of Q-Chem use Armadillo 8.300.2 (Tropical Shenanigans).
 http://arma.sourceforge.net/

 Q-Chem begins on Wed Sep 29 11:58:15 2021  

compute-0-6.local
Host: 0

     Scratch files written to /home/meili/scratch/qchem34509//
NAlpha2: 128
NElect   128
Mult     1
Symmetry turned off for PCM/SM12/SMD calculation

 Q-Chem warning in module libgen/rem_setup.C, line 2813:

 Neither GIA nor STOLL is specified by user. Use STOLL as the default


Checking the input file for inconsistencies... 	...done.

--------------------------------------------------------------
User input:
--------------------------------------------------------------
$comment
SSI-062TYR-095TRP-1.pdb
$end

$molecule
0 1
--
0 1
C    4.285721080157    2.794589174911   -1.032401124656
C    0.653721080157    1.761589174911   -1.484401124656
C    1.853721080157    2.161589174911   -0.912401124656
C    0.574721080157    1.583589174911   -2.865401124656
C    2.985721080157    2.380589174911   -1.690401124656
C    1.691721080157    1.796589174911   -3.671401124656
C    2.894721080157    2.187589174911   -3.069401124656
O   -0.632278919843    1.235589174911   -3.359401124656
H   -0.203278919843    1.577589174911   -0.866401124656
H    1.904721080157    2.304589174911    0.157598875344
H   -1.288278919843    1.167589174911   -2.666401124656
H    1.610721080157    1.675589174911   -4.739401124656
H    4.041721080157    3.580589174911   -0.320401124656
H    4.950721080157    3.232589174911   -1.778401124656
H    3.766721080157    2.352589174911   -3.688401124656
H    4.803621080157    1.982184174911   -0.501571124656
--
0 1
C   -1.928278919843   -2.564410825089    4.644598875344
C   -0.737278919843   -1.606410825089    1.224598875344
C   -1.773278919843   -1.634410825089    2.200598875344
C   -1.212278919843   -2.224410825089    3.385598875344
C    0.085721080157   -2.502410825089    3.112598875344
C   -2.172278919843   -0.611410825089   -0.377401124656
C   -0.915278919843   -1.071410825089   -0.038401124656
C   -3.236278919843   -0.620410825089    0.550598875344
C   -3.048278919843   -1.165410825089    1.838598875344
N    0.374721080157   -2.120410825089    1.827598875344
H   -2.347278919843   -0.229410825089   -1.373401124656
H   -0.102278919843   -1.059410825089   -0.749401124656
H   -4.209278919843   -0.251410825089    0.260598875344
H   -3.865278919843   -1.206410825089    2.514598875344
H    1.269721080157   -2.269410825089    1.365598875344
H    0.778721080157   -2.983410825089    3.796598875344
H   -2.518278919843   -1.716410825089    4.981598875344
H   -1.200278919843   -2.802410825089    5.421598875344
H   -2.594428919843   -3.426110825089    4.490598875344
$end

$rem
JOBTYPE			EDA
EDA2			1
method			wB97X-V
BASIS			def2-TZVPD
XC_GRID			000099000590
NL_GRID			1
UNRESTRICTED		FALSE
MAX_SCF_CYCLES		200
SYMMETRY		FALSE
SYM_IGNORE		TRUE
MEM_STATIC		2000
BASIS_LIN_DEP_THRESH 	6
THRESH 			14
SCF_CONVERGENCE 	8
SCF_PRINT_FRGM 		TRUE
SOLVENT_METHOD          PCM
$end

$PCM
THEORY                  CPCM
METHOD                  SWIG
SOLVER                  INVERSION
RADII                   UFF
HPOINTS                 302
HEAVYPOINTS             302
PRINTLEVEL              0
$END

$SOLVENT
DIELECTRIC              78.390000 ! water
$END
--------------------------------------------------------------
 ----------------------------------------------------------------
             Standard Nuclear Orientation (Angstroms)
    I     Atom           X                Y                Z
 ----------------------------------------------------------------
    1      C       4.2857210802     2.7945891749    -1.0324011247
    2      C       0.6537210802     1.7615891749    -1.4844011247
    3      C       1.8537210802     2.1615891749    -0.9124011247
    4      C       0.5747210802     1.5835891749    -2.8654011247
    5      C       2.9857210802     2.3805891749    -1.6904011247
    6      C       1.6917210802     1.7965891749    -3.6714011247
    7      C       2.8947210802     2.1875891749    -3.0694011247
    8      O      -0.6322789198     1.2355891749    -3.3594011247
    9      H      -0.2032789198     1.5775891749    -0.8664011247
   10      H       1.9047210802     2.3045891749     0.1575988753
   11      H      -1.2882789198     1.1675891749    -2.6664011247
   12      H       1.6107210802     1.6755891749    -4.7394011247
   13      H       4.0417210802     3.5805891749    -0.3204011247
   14      H       4.9507210802     3.2325891749    -1.7784011247
   15      H       3.7667210802     2.3525891749    -3.6884011247
   16      H       4.8036210802     1.9821841749    -0.5015711247
   17      C      -1.9282789198    -2.5644108251     4.6445988753
   18      C      -0.7372789198    -1.6064108251     1.2245988753
   19      C      -1.7732789198    -1.6344108251     2.2005988753
   20      C      -1.2122789198    -2.2244108251     3.3855988753
   21      C       0.0857210802    -2.5024108251     3.1125988753
   22      C      -2.1722789198    -0.6114108251    -0.3774011247
   23      C      -0.9152789198    -1.0714108251    -0.0384011247
   24      C      -3.2362789198    -0.6204108251     0.5505988753
   25      C      -3.0482789198    -1.1654108251     1.8385988753
   26      N       0.3747210802    -2.1204108251     1.8275988753
   27      H      -2.3472789198    -0.2294108251    -1.3734011247
   28      H      -0.1022789198    -1.0594108251    -0.7494011247
   29      H      -4.2092789198    -0.2514108251     0.2605988753
   30      H      -3.8652789198    -1.2064108251     2.5145988753
   31      H       1.2697210802    -2.2694108251     1.3655988753
   32      H       0.7787210802    -2.9834108251     3.7965988753
   33      H      -2.5182789198    -1.7164108251     4.9815988753
   34      H      -1.2002789198    -2.8024108251     5.4215988753
   35      H      -2.5944289198    -3.4261108251     4.4905988753
 ----------------------------------------------------------------
 Nuclear Repulsion Energy =        1163.89827223 hartrees
 There are       64 alpha and       64 beta electrons
 Requested basis set is def2-TZVPD
 There are 320 shells and 822 basis functions

 Total QAlloc Memory Limit   2000 MB
 Mega-Array Size      1956 MB
 MEM_STATIC part      2000 MB
 Discretize the solute cavity surface with Lebedev spheres
	Using 302 Lebedev grid points for each H atom
	Using 302 Lebedev grid points for other atoms
	Atomic van der Waals radii will be scaled by 1.20
 Remove points where switching function is < 1.0e-08
 Keep 3799 surface tesserae and discard 6771 interior tesserae
 Molecular Surface Area = 372.293 Angst**2
 A cutoff of  1.0D-14 yielded  40512 shell pairs
 There are    266516 function pairs (    337570 Cartesian)
 Smallest overlap matrix eigenvalue = 4.22E-07
 Linear dependence detected in AO basis
 Tighter screening thresholds may be required for diffuse basis sets
 Use S2THRESH > 14 and THRESH = 14 in case of SCF convergence issues
 Number of orthogonalized atomic orbitals = 816
 Maximum deviation from orthogonality = 1.686E-10

 Scale SEOQF with 1.000000e-01/1.000000e-01/1.000000e-02

 Standard Electronic Orientation quadrupole field applied
 Nucleus-field energy     =     0.0000000470 hartrees

 -----------------------------------------------------------------------
  General SCF calculation program by
  Eric Jon Sundstrom, Paul Horn, Yuezhi Mao, Dmitri Zuev, Alec White,
  David Stuck, Shaama M.S., Shane Yost, Joonho Lee, David Small,
  Daniel Levine, Susi Lehtola, Hugh Burton, Evgeny Epifanovsky,
  Bang C. Huynh
 -----------------------------------------------------------------------
================================================================
                 ALMO-EDA with the EDA2 driver                  
================================================================
 The second-generation ALMO-EDA (for DFT):                      
 P. R. Horn, Y. Mao and M. Head-Gordon, PCCP, 18, 23067 (2016)  
 Decomposition of the frozen energy:                            
 P. R. Horn, Y. Mao and M. Head-Gordon, JCP, 144, 114107 (2016) 
 FERF model for polarization:                                   
 P. R. Horn and M. Head-Gordon, JCP, 143, 114111 (2015)         
Using eda2 option set 1
Option set summary: Frozen orbital wavefunction, initial wavefunction decomposition, and nDQ polarization.
--------------------------------
Printing EDA Options
--------------------------------
eda_child_super_basis      0
fragmo_guess_mode          0
child_mp                   1
child_mp_orders            232
cls_elec                   1
cls_disp                   0
scfmi_mode                 1
scfmi_occs                 0
scfmi_virts                0
frz_relax                  0
frz_relax_method           0
dc_pen_start               0
dc_pen_conv                0
dc_pen_increment           0
dc_pen_steps               0
dc_pen_thresh_factor       0
dc_pen_pre_newton_thresh   0
frz_ortho_decomp           1
frz_ortho_decomp_conv      6
frgm_method                2
scfmi_freeze_ss            0
separate_rehyb             0
plot_diff_den              0
eda_nocv                   0
eda_vct_relax              1
disp_free_x                0
disp_free_c                0
eda_bsse                   0
eda_pct_a                  0
eda_covp                   0
--------------------------------
Attempting to make child job directory: /home/meili/scratch/qchem34509//Frg1/
Attempting to make child job directory: /home/meili/scratch/qchem34509//Frg2/
Creating input file /home/meili/scratch/qchem34509/Frg1.input
using default PutDataFrgm: nothing
calling putenv with: QCSCRATCH=/home/meili/scratch/qchem34509/ 
Spawning Job For Fragment 0
                  Welcome to Q-Chem
     A Quantum Leap Into The Future Of Chemistry


 Q-Chem 5.2 (devel), Q-Chem, Inc., Pleasanton, CA (2019)

 Yihan Shao,  Zhengting Gan,  E. Epifanovsky,  A. T. B. Gilbert,  M. Wormit,  
 J. Kussmann,  A. W. Lange,  A. Behn,  Jia Deng,  Xintian Feng,  D. Ghosh,  
 M. Goldey,  P. R. Horn,  L. D. Jacobson,  I. Kaliman,  T. Kus,  A. Landau,  
 Jie Liu,  E. I. Proynov,  R. M. Richard,  R. P. Steele,  E. J. Sundstrom,  
 H. L. Woodcock III,  P. M. Zimmerman,  D. Zuev,  B. Albrecht,  E. Alguire,  
 S. A. Baeppler,  D. Barton,  Z. Benda,  Y. A. Bernard,  E. J. Berquist,  
 K. B. Bravaya,  H. Burton,  D. Casanova,  Chun-Min Chang,  Yunqing Chen,  
 A. Chien,  K. D. Closser,  M. P. Coons,  S. Coriani,  S. Dasgupta,  
 A. L. Dempwolff,  M. Diedenhofen,  Hainam Do,  R. G. Edgar,  Po-Tung Fang,  
 S. Faraji,  S. Fatehi,  Qingguo Feng,  K. D. Fenk,  J. Fosso-Tande,  
 J. Gayvert,  Qinghui Ge,  A. Ghysels,  G. Gidofalvi,  J. Gomes,  
 J. Gonthier,  A. Gunina,  D. Hait,  M. W. D. Hanson-Heine,  
 P. H. P. Harbach,  A. W. Hauser,  M. F. Herbst,  J. E. Herr,  
 E. G. Hohenstein,  Z. C. Holden,  Kerwin Hui,  B. C. Huynh,  T.-C. Jagau,  
 Hyunjun Ji,  B. Kaduk,  K. Khistyaev,  Jaehoon Kim,  P. Klunzinger,  K. Koh,  
 D. Kosenkov,  L. Koulias,  T. Kowalczyk,  C. M. Krauter,  A. Kunitsa,  
 Ka Un Lao,  A. Laurent,  K. V. Lawler,  Joonho Lee,  D. Lefrancois,  
 S. Lehtola,  D. S. Levine,  Yi-Pei Li,  You-Sheng Lin,  Fenglai Liu,  
 E. Livshits,  A. Luenser,  P. Manohar,  E. Mansoor,  S. F. Manzer,  
 Shan-Ping Mao,  Yuezhi Mao,  N. Mardirossian,  A. V. Marenich,  
 T. Markovich,  L. A. Martinez-Martinez,  S. A. Maurer,  N. J. Mayhall,  
 S. C. McKenzie,  J.-M. Mewes,  P. Morgante,  A. F. Morrison,  
 J. W. Mullinax,  K. Nanda,  T. S. Nguyen-Beck,  R. Olivares-Amaya,  
 J. A. Parkhill,  Zheng Pei,  T. M. Perrine,  F. Plasser,  P. Pokhilko,  
 S. Prager,  A. Prociuk,  E. Ramos,  D. R. Rehn,  F. Rob,  M. Scheurer,  
 M. Schneider,  N. Sergueev,  S. M. Sharada,  S. Sharma,  D. W. Small,  
 T. Stauch,  T. Stein,  Yu-Chuan Su,  A. J. W. Thom,  A. Tkatchenko,  
 T. Tsuchimochi,  N. M. Tubman,  L. Vogt,  M. L. Vidal,  O. Vydrov,  
 M. A. Watson,  J. Wenzel,  M. de Wergifosse,  T. A. Wesolowski,  A. White,  
 J. Witte,  A. Yamada,  Jun Yang,  K. Yao,  S. Yeganeh,  S. R. Yost,  
 Zhi-Qiang You,  A. Zech,  Igor Ying Zhang,  Xing Zhang,  Yan Zhao,  
 Ying Zhu,  B. R. Brooks,  G. K. L. Chan,  C. J. Cramer,  M. S. Gordon,  
 W. J. Hehre,  A. Klamt,  M. W. Schmidt,  C. D. Sherrill,  D. G. Truhlar,  
 A. Aspuru-Guzik,  R. Baer,  A. T. Bell,  N. A. Besley,  Jeng-Da Chai,  
 A. E. DePrince, III,  R. A. DiStasio Jr.,  A. Dreuw,  B. D. Dunietz,  
 T. R. Furlani,  Chao-Ping Hsu,  Yousung Jung,  Jing Kong,  D. S. Lambrecht,  
 WanZhen Liang,  C. Ochsenfeld,  V. A. Rassolov,  L. V. Slipchenko,  
 J. E. Subotnik,  T. Van Voorhis,  J. M. Herbert,  A. I. Krylov,  
 P. M. W. Gill,  M. Head-Gordon

 Contributors to earlier versions of Q-Chem not listed above: 
 R. D. Adamson,  B. Austin,  J. Baker,  G. J. O. Beran,  K. Brandhorst,  
 S. T. Brown,  E. F. C. Byrd,  A. K. Chakraborty,  C.-L. Cheng,  
 Siu Hung Chien,  D. M. Chipman,  D. L. Crittenden,  H. Dachsel,  
 R. J. Doerksen,  A. D. Dutoi,  L. Fusti-Molnar,  W. A. Goddard III,  
 A. Golubeva-Zadorozhnaya,  S. R. Gwaltney,  G. Hawkins,  A. Heyden,  
 S. Hirata,  G. Kedziora,  F. J. Keil,  C. Kelley,  Jihan Kim,  R. A. King,  
 R. Z. Khaliullin,  P. P. Korambath,  W. Kurlancheek,  A. M. Lee,  M. S. Lee,  
 S. V. Levchenko,  Ching Yeh Lin,  D. Liotard,  R. C. Lochan,  I. Lotan,  
 P. E. Maslen,  N. Nair,  D. P. O'Neill,  D. Neuhauser,  E. Neuscamman,  
 C. M. Oana,  R. Olson,  B. Peters,  R. Peverati,  P. A. Pieniazek,  
 Y. M. Rhee,  J. Ritchie,  M. A. Rohrdanz,  E. Rosta,  N. J. Russ,  
 H. F. Schaefer III,  N. E. Schultz,  N. Shenvi,  A. C. Simmonett,  A. Sodt,  
 D. Stuck,  K. S. Thanthiriwatte,  V. Vanovschi,  Tao Wang,  A. Warshel,  
 C. F. Williams,  Q. Wu,  X. Xu,  W. Zhang

 Please cite Q-Chem as follows:
 Y. Shao et al., Mol. Phys. 113, 184-215 (2015)
 DOI: 10.1080/00268976.2014.952696

 Q-Chem 5.2.1 for Intel X86 EM64T Linux

 Parts of Q-Chem use Armadillo 8.300.2 (Tropical Shenanigans).
 http://arma.sourceforge.net/

 Q-Chem begins on Wed Sep 29 11:58:23 2021  

compute-0-6.local
Host: 0

     Scratch files written to /home/meili/scratch/qchem34509//Frg1//
NAlpha2: 58
NElect   58
Mult     1
Symmetry turned off for PCM/SM12/SMD calculation

Checking the input file for inconsistencies... 	...done.

--------------------------------------------------------------
User input:
--------------------------------------------------------------
$molecule
0 1
 6	4.2857210802	2.7945891749	-1.0324011247
 6	0.6537210802	1.7615891749	-1.4844011247
 6	1.8537210802	2.1615891749	-0.9124011247
 6	0.5747210802	1.5835891749	-2.8654011247
 6	2.9857210802	2.3805891749	-1.6904011247
 6	1.6917210802	1.7965891749	-3.6714011247
 6	2.8947210802	2.1875891749	-3.0694011247
 8	-0.6322789198	1.2355891749	-3.3594011247
 1	-0.2032789198	1.5775891749	-0.8664011247
 1	1.9047210802	2.3045891749	0.1575988753
 1	-1.2882789198	1.1675891749	-2.6664011247
 1	1.6107210802	1.6755891749	-4.7394011247
 1	4.0417210802	3.5805891749	-0.3204011247
 1	4.9507210802	3.2325891749	-1.7784011247
 1	3.7667210802	2.3525891749	-3.6884011247
 1	4.8036210802	1.9821841749	-0.5015711247
$end
$rem
EDA2		1
METHOD		WB97X-V
BASIS		DEF2-TZVPD
XC_GRID		000099000590
NL_GRID		1
UNRESTRICTED		FALSE
MAX_SCF_CYCLES		200
SYMMETRY		FALSE
SYM_IGNORE		TRUE
BASIS_LIN_DEP_THRESH		6
THRESH		14
SCF_CONVERGENCE		8
SCF_PRINT_FRGM		TRUE
SOLVENT_METHOD		PCM
!required keywords
JOBTYPE		SP
SYM_IGNORE		TRUE
SUBSYSTEM		TRUE
GEN_SCFMAN		TRUE
CHILD_INSTRUCTION		2
SYM_IGNORE		TRUE
SCFMI		0
RI_K 0		
PARI_K 0		
MIN_PARI_K 0		
IARI_K 0		
OCC_RI_K 0		
PURECART		1111
MEM_STATIC		2000
MEM_TOTAL		2000
GUI		0
CHILD_MP		1
CHILD_MP_ORDERS		232
FRZ_RELAX		0
FRZ_RELAX_METHOD		0
EDA_CLS_ELEC		1
EDA_CLS_DISP		0
FRZ_ORTHO_DECOMP		1
EDA2		FALSE
FRGM_METHOD		FALSE
CIS_N_ROOTS  0
LOCAL_CIS    0
CIS_RLX_DNS  1
$end
$pcm
THEORY                  CPCM
METHOD                  SWIG
SOLVER                  INVERSION
RADII                   UFF
HPOINTS                 302
HEAVYPOINTS             302
PRINTLEVEL              0
$end
$solvent
DIELECTRIC              78.390000 ! water
$end
--------------------------------------------------------------
 ----------------------------------------------------------------
             Standard Nuclear Orientation (Angstroms)
    I     Atom           X                Y                Z
 ----------------------------------------------------------------
    1      C       4.2857210802     2.7945891749    -1.0324011247
    2      C       0.6537210802     1.7615891749    -1.4844011247
    3      C       1.8537210802     2.1615891749    -0.9124011247
    4      C       0.5747210802     1.5835891749    -2.8654011247
    5      C       2.9857210802     2.3805891749    -1.6904011247
    6      C       1.6917210802     1.7965891749    -3.6714011247
    7      C       2.8947210802     2.1875891749    -3.0694011247
    8      O      -0.6322789198     1.2355891749    -3.3594011247
    9      H      -0.2032789198     1.5775891749    -0.8664011247
   10      H       1.9047210802     2.3045891749     0.1575988753
   11      H      -1.2882789198     1.1675891749    -2.6664011247
   12      H       1.6107210802     1.6755891749    -4.7394011247
   13      H       4.0417210802     3.5805891749    -0.3204011247
   14      H       4.9507210802     3.2325891749    -1.7784011247
   15      H       3.7667210802     2.3525891749    -3.6884011247
   16      H       4.8036210802     1.9821841749    -0.5015711247
 ----------------------------------------------------------------
 Nuclear Repulsion Energy =         343.45555924 hartrees
 There are       29 alpha and       29 beta electrons
 Requested basis set is def2-TZVPD
 There are 145 shells and 371 basis functions

 Total QAlloc Memory Limit   2000 MB
 Mega-Array Size      1956 MB
 MEM_STATIC part      2000 MB
 Discretize the solute cavity surface with Lebedev spheres
	Using 302 Lebedev grid points for each H atom
	Using 302 Lebedev grid points for other atoms
	Atomic van der Waals radii will be scaled by 1.20
 Remove points where switching function is < 1.0e-08
 Keep 1859 surface tesserae and discard 2973 interior tesserae
 Molecular Surface Area = 190.000 Angst**2
 A cutoff of  1.0D-14 yielded  10048 shell pairs
 There are     67114 function pairs (     85817 Cartesian)
 Smallest overlap matrix eigenvalue = 5.48E-07
 Linear dependence detected in AO basis
 Tighter screening thresholds may be required for diffuse basis sets
 Use S2THRESH > 14 and THRESH = 14 in case of SCF convergence issues
 Number of orthogonalized atomic orbitals = 370
 Maximum deviation from orthogonality = 2.345E-10

 Scale SEOQF with 1.000000e-01/1.000000e-01/1.000000e-01

 Standard Electronic Orientation quadrupole field applied
 Nucleus-field energy     =    -0.0000000092 hartrees
 Guess from superposition of atomic densities
 Warning:  Energy on first SCF cycle will be non-variational
 SAD guess density has 58.000000 electrons

 -----------------------------------------------------------------------
  General SCF calculation program by
  Eric Jon Sundstrom, Paul Horn, Yuezhi Mao, Dmitri Zuev, Alec White,
  David Stuck, Shaama M.S., Shane Yost, Joonho Lee, David Small,
  Daniel Levine, Susi Lehtola, Hugh Burton, Evgeny Epifanovsky,
  Bang C. Huynh
 -----------------------------------------------------------------------
 Exchange:     0.1670 Hartree-Fock + 1.0000 wB97X-V + LR-HF
 Correlation:  1.0000 wB97X-V
 Using Euler-Maclaurin-Lebedev (99,590) quadrature formula
 Nonlocal Correlation:  VV10 with C = 0.0100 and b = 6.00 and scale = 1.00000
 Grid used for NLC:  SG-1 standard quadrature
Energy prior to optimization (guess energy) = -346.730202489950
Begin Timing: Total SCF Calculation
begin iterations for algorithm: DIIS         
the SCF tolerance is set to 1.00e-08
    1    -346.7302024900      2.20e-03     00000 
    2    -346.7772844360      1.69e-03     00000 
    3    -346.8131550831      2.75e-04     00000 
    4    -346.8142252138      1.28e-04     00000 
    5    -346.8144954095      2.29e-05     00000 
    6    -346.8145067925      8.27e-06     00000 
    7    -346.8145083494      3.68e-06     00000 
    8    -346.8145086708      8.83e-07     00000 
    9    -346.8145087069      4.33e-07     00000 
   10    -346.8145087153      1.64e-07     00000 
   11    -346.8145087175      5.82e-08     00000 
   12    -346.8145087178      2.62e-08     00000 
   13    -346.8145087178      7.08e-09     00000 Convergence criterion met
Timing for Total SCF: 797.00s (wall), 5032.12s (cpu)

************** Final PCM Free Energy Summary **************
 G_electrostatic  =      -0.00559508 hartree =      -3.51096335 kcal/mol
 G_cavitation     =       0.00000000 hartree =       0.00000000 kcal/mol
 G_dispersion     =       0.00000000 hartree =       0.00000000 kcal/mol
 G_repulsion      =       0.00000000 hartree =       0.00000000 kcal/mol
 --------------------------------------------------
 Non-electrostatic Free Energy =       0.00000000 hartree =       0.00000000 kcal/mol
 Total                         =      -0.00559508 hartree =      -3.51096335 kcal/mol
 --------------------------------------------------
 SCF Energy (H0 + V/2)                       =    -346.81450872 
 Solute Internal Energy (H0)                 =    -346.80891364 
 Total Free Energy (H0 + V/2 + non-elec)     =    -346.81450872 hartree
                                             = -217629.38890064 kcal/mol
***********************************************************

E_pcm = -0.0055950763
Multipole orders to be included
        2
        3
computing dipole RHS
computing quadrupole RHS
total number of RHS in solve_reponses: 8
RHS batch sizes
        8
Beginning Block Conjugate Gradient Iterations. Batch Number: 0
computing hessian-vector products by finite difference
              1      6.00e-01     00000 Conjugate Gradient Iteration
computing hessian-vector products by finite difference
              2      1.98e-01     00000 Conjugate Gradient Iteration
computing hessian-vector products by finite difference
              3      4.98e-02     00000 Conjugate Gradient Iteration
computing hessian-vector products by finite difference
              4      1.43e-02     00000 Conjugate Gradient Iteration
computing hessian-vector products by finite difference
              5      4.64e-03     00000 Conjugate Gradient Iteration
computing hessian-vector products by finite difference
              6      1.68e-03     00000 Conjugate Gradient Iteration
computing hessian-vector products by finite difference
              7      4.21e-04     00000 Conjugate Gradient Iteration
computing hessian-vector products by finite difference
              8      8.05e-05     00000 Conjugate Gradient Iteration
computing hessian-vector products by finite difference
              9      1.46e-05     00000 Conjugate Gradient Iteration
computing hessian-vector products by finite difference
             10      1.93e-06     00000 Conjugate Gradient Iteration
computing hessian-vector products by finite difference
             11      2.96e-07     00000 Conjugate Gradient Iteration
computing hessian-vector products by finite difference
             12      5.13e-08     00000 Conjugate Gradient Iteration
computing hessian-vector products by finite difference
             13      8.42e-09     00000 CG Converged
batch 0 complete
Done Calculating Responses
TESTING ORTHOGONALIZATION OF MULTIPOLE BASIS
Multipole virts passed orthogonality test
Virts Per Order
           87
          145

 --------------------------------------------------------------

                    Orbital Energies (a.u.)
 --------------------------------------------------------------

 Alpha MOs
 -- Occupied --
-19.2448 -10.3359 -10.2766 -10.2757 -10.2733 -10.2731 -10.2700 -10.2620
 -1.2024  -0.9949  -0.9009  -0.8844  -0.8106  -0.7499  -0.7173  -0.6685
 -0.6052  -0.5830  -0.5507  -0.5427  -0.5353  -0.5234  -0.5110  -0.4773
 -0.4560  -0.4443  -0.4395  -0.3530  -0.3123
 -- Virtual --
  0.0579   0.0584   0.0683   0.0785   0.0830   0.0944   0.1085   0.1102
  0.1136   0.1314   0.1440   0.1519   0.1540   0.1695   0.1755   0.1915
  0.2002   0.2034   0.2152   0.2234   0.2353   0.2398   0.2489   0.2528
  0.2627   0.2658   0.2720   0.2754   0.2814   0.2946   0.2957   0.3019
  0.3049   0.3081   0.3097   0.3258   0.3329   0.3391   0.3444   0.3492
  0.3547   0.3555   0.3629   0.3733   0.3751   0.3787   0.3800   0.3924
  0.3949   0.3969   0.3999   0.4060   0.4137   0.4199   0.4256   0.4315
  0.4348   0.4535   0.4555   0.4580   0.4727   0.4733   0.4773   0.4837
  0.4873   0.4905   0.4979   0.5039   0.5136   0.5157   0.5293   0.5374
  0.5426   0.5476   0.5484   0.5502   0.5616   0.5641   0.5778   0.5934
  0.6010   0.6094   0.6145   0.6317   0.6386   0.6575   0.6608   0.6702
  0.6756   0.6831   0.6895   0.6951   0.7013   0.7028   0.7170   0.7275
  0.7298   0.7390   0.7446   0.7488   0.7591   0.7678   0.7803   0.7833
  0.7879   0.7892   0.7967   0.7993   0.8047   0.8109   0.8270   0.8371
  0.8423   0.8493   0.8524   0.8558   0.8648   0.8754   0.8832   0.8887
  0.9044   0.9107   0.9302   0.9490   0.9607   0.9775   0.9888   1.0105
  1.0193   1.0343   1.0412   1.0479   1.0580   1.0692   1.0754   1.0917
  1.0999   1.1198   1.1344   1.1687   1.1970   1.2287   1.2704   1.2941
  1.3025   1.3120   1.3259   1.3569   1.3698   1.3819   1.3918   1.4292
  1.4595   1.4656   1.4740   1.4845   1.5255   1.5651   1.6069   1.6209
  1.6328   1.6415   1.6778   1.6809   1.7017   1.7312   1.7717   1.8013
  1.8101   1.8272   1.8397   1.8590   1.8681   1.8820   1.9182   1.9242
  1.9387   1.9496   1.9759   1.9876   1.9957   2.0274   2.0333   2.0493
  2.0584   2.0709   2.0873   2.1114   2.1202   2.1457   2.1964   2.2068
  2.2187   2.2374   2.2706   2.2821   2.3172   2.3222   2.3348   2.3679
  2.3982   2.4064   2.4320   2.4660   2.4844   2.4874   2.5231   2.5603
  2.5747   2.5992   2.6199   2.6348   2.6519   2.6719   2.6859   2.7467
  2.7555   2.7621   2.7739   2.8043   2.8169   2.8294   2.8658   2.8746
  2.9102   2.9257   2.9390   2.9499   2.9649   2.9709   2.9793   3.0055
  3.0136   3.0458   3.0693   3.0824   3.1034   3.1312   3.1447   3.1612
  3.1845   3.1986   3.2176   3.2262   3.2391   3.2516   3.2922   3.2941
  3.3136   3.3459   3.3796   3.3896   3.3972   3.4132   3.4526   3.4553
  3.4633   3.4784   3.4911   3.5175   3.5278   3.5297   3.5452   3.5461
  3.5479   3.5568   3.5803   3.5872   3.5962   3.6243   3.6488   3.6648
  3.6903   3.7102   3.7273   3.7508   3.7925   3.8184   3.8405   3.8968
  3.9389   3.9597   3.9694   3.9944   4.0386   4.0818   4.1474   4.1938
  4.2494   4.2709   4.2849   4.3086   4.3200   4.3302   4.3403   4.3544
  4.3711   4.3957   4.4168   4.4473   4.5101   4.5404   4.5886   4.6102
  4.7326   4.7461   4.7975   4.8061   4.8629   4.9233   5.0236   5.0548
  5.0821   5.1317   5.1695   5.2979   5.3368   5.4088   5.4492   5.5319
  5.6216   5.6537   5.7176   5.7683   5.9699   6.2210   6.5107   6.6055
  6.6322   6.8797   7.0399   7.2978   7.4612  22.6603  22.6936  22.9361
 22.9880  23.0417  23.1991  23.5234  44.4287
 --------------------------------------------------------------

          Ground-State Mulliken Net Atomic Charges

     Atom                 Charge (a.u.)
  ----------------------------------------
      1 C                    -1.000927
      2 C                    -0.305864
      3 C                    -0.660526
      4 C                     0.849512
      5 C                     0.517185
      6 C                    -0.810410
      7 C                    -0.398379
      8 O                    -0.481067
      9 H                     0.285551
     10 H                     0.327268
     11 H                     0.282621
     12 H                     0.335259
     13 H                     0.259443
     14 H                     0.274112
     15 H                     0.308134
     16 H                     0.218091
  ----------------------------------------
  Sum of atomic charges =     0.000000

 -----------------------------------------------------------------
                    Cartesian Multipole Moments
 -----------------------------------------------------------------
    Charge (ESU x 10^10)
                 0.0000
    Dipole Moment (Debye)
         X      -0.2238      Y       0.1980      Z       1.7648
       Tot       1.7900
    Quadrupole Moments (Debye-Ang)
        XX     -41.3405     XY       2.1672     YY     -50.2964
        XZ      -1.1526     YZ       2.3072     ZZ     -53.9887
    Octopole Moments (Debye-Ang^2)
       XXX    -249.3812    XXY     -78.6103    XYY     -85.0015
       YYY    -305.4008    XXZ      91.0850    XYZ      -6.4256
       YYZ     117.6107    XZZ     -71.5914    YZZ    -101.7430
       ZZZ     335.7008
    Hexadecapole Moments (Debye-Ang^3)
      XXXX   -1677.0665   XXXY    -584.2600   XXYY    -475.4185
      XYYY    -650.8766   YYYY   -1366.8951   XXXZ     436.8508
      XXYZ     152.0188   XYYZ     154.8772   YYYZ     644.7145
      XXZZ    -545.0914   XYZZ    -175.0688   YYZZ    -549.4650
      XZZZ     379.5168   YZZZ     598.7009   ZZZZ   -1856.7092
 -----------------------------------------------------------------
Archival summary:
1\1\compute-0-6.local\SP\ProcedureUnspecified\BasisUnspecified\178\meili\WedSep2916:07:592021WedSep2916:07:592021\0\\#,ProcedureUnspecified,BasisUnspecified,\\0,1\C\O,1,1.34981\H,2,0.956666,1,111.493\C,1,1.39381,2,122.982,3,-177.628,0\H,4,1.07788,1,119.709,2,-0.491086,0\C,1,1.39466,2,116.484,3,0.65144,0\H,6,1.07249,1,120.227,2,2.89282,0\C,6,1.38823,1,119.587,2,-177.949,0\H,8,1.08072,6,119.135,1,179.539,0\C,8,1.39092,6,121.225,1,-0.441592,0\C,10,1.39541,8,118.549,6,-0.0969432,0\H,11,1.08202,10,119.453,8,-179.924,0\C,10,1.51471,8,119.903,6,-179,0\H,13,1.08824,10,106.81,8,-45.7654,0\H,13,1.09114,10,109.62,8,-161.473,0\H,13,1.1,10,114.321,8,74.7066,0\\\@

 Total job time:  14975.81s(wall), 94411.15s(cpu) 
 Wed Sep 29 16:07:59 2021

        *************************************************************
        *                                                           *
        *  Thank you very much for using Q-Chem.  Have a nice day.  *
        *                                                           *
        *************************************************************


Done Job For Fragment 0
calling putenv with: QCSCRATCH=/home/meili/scratch 
calling putenv with: QCTHREADS=8 
Creating input file /home/meili/scratch/qchem34509/Frg2.input
using default PutDataFrgm: nothing
calling putenv with: QCSCRATCH=/home/meili/scratch/qchem34509/ 
Spawning Job For Fragment 1
                  Welcome to Q-Chem
     A Quantum Leap Into The Future Of Chemistry


 Q-Chem 5.2 (devel), Q-Chem, Inc., Pleasanton, CA (2019)

 Yihan Shao,  Zhengting Gan,  E. Epifanovsky,  A. T. B. Gilbert,  M. Wormit,  
 J. Kussmann,  A. W. Lange,  A. Behn,  Jia Deng,  Xintian Feng,  D. Ghosh,  
 M. Goldey,  P. R. Horn,  L. D. Jacobson,  I. Kaliman,  T. Kus,  A. Landau,  
 Jie Liu,  E. I. Proynov,  R. M. Richard,  R. P. Steele,  E. J. Sundstrom,  
 H. L. Woodcock III,  P. M. Zimmerman,  D. Zuev,  B. Albrecht,  E. Alguire,  
 S. A. Baeppler,  D. Barton,  Z. Benda,  Y. A. Bernard,  E. J. Berquist,  
 K. B. Bravaya,  H. Burton,  D. Casanova,  Chun-Min Chang,  Yunqing Chen,  
 A. Chien,  K. D. Closser,  M. P. Coons,  S. Coriani,  S. Dasgupta,  
 A. L. Dempwolff,  M. Diedenhofen,  Hainam Do,  R. G. Edgar,  Po-Tung Fang,  
 S. Faraji,  S. Fatehi,  Qingguo Feng,  K. D. Fenk,  J. Fosso-Tande,  
 J. Gayvert,  Qinghui Ge,  A. Ghysels,  G. Gidofalvi,  J. Gomes,  
 J. Gonthier,  A. Gunina,  D. Hait,  M. W. D. Hanson-Heine,  
 P. H. P. Harbach,  A. W. Hauser,  M. F. Herbst,  J. E. Herr,  
 E. G. Hohenstein,  Z. C. Holden,  Kerwin Hui,  B. C. Huynh,  T.-C. Jagau,  
 Hyunjun Ji,  B. Kaduk,  K. Khistyaev,  Jaehoon Kim,  P. Klunzinger,  K. Koh,  
 D. Kosenkov,  L. Koulias,  T. Kowalczyk,  C. M. Krauter,  A. Kunitsa,  
 Ka Un Lao,  A. Laurent,  K. V. Lawler,  Joonho Lee,  D. Lefrancois,  
 S. Lehtola,  D. S. Levine,  Yi-Pei Li,  You-Sheng Lin,  Fenglai Liu,  
 E. Livshits,  A. Luenser,  P. Manohar,  E. Mansoor,  S. F. Manzer,  
 Shan-Ping Mao,  Yuezhi Mao,  N. Mardirossian,  A. V. Marenich,  
 T. Markovich,  L. A. Martinez-Martinez,  S. A. Maurer,  N. J. Mayhall,  
 S. C. McKenzie,  J.-M. Mewes,  P. Morgante,  A. F. Morrison,  
 J. W. Mullinax,  K. Nanda,  T. S. Nguyen-Beck,  R. Olivares-Amaya,  
 J. A. Parkhill,  Zheng Pei,  T. M. Perrine,  F. Plasser,  P. Pokhilko,  
 S. Prager,  A. Prociuk,  E. Ramos,  D. R. Rehn,  F. Rob,  M. Scheurer,  
 M. Schneider,  N. Sergueev,  S. M. Sharada,  S. Sharma,  D. W. Small,  
 T. Stauch,  T. Stein,  Yu-Chuan Su,  A. J. W. Thom,  A. Tkatchenko,  
 T. Tsuchimochi,  N. M. Tubman,  L. Vogt,  M. L. Vidal,  O. Vydrov,  
 M. A. Watson,  J. Wenzel,  M. de Wergifosse,  T. A. Wesolowski,  A. White,  
 J. Witte,  A. Yamada,  Jun Yang,  K. Yao,  S. Yeganeh,  S. R. Yost,  
 Zhi-Qiang You,  A. Zech,  Igor Ying Zhang,  Xing Zhang,  Yan Zhao,  
 Ying Zhu,  B. R. Brooks,  G. K. L. Chan,  C. J. Cramer,  M. S. Gordon,  
 W. J. Hehre,  A. Klamt,  M. W. Schmidt,  C. D. Sherrill,  D. G. Truhlar,  
 A. Aspuru-Guzik,  R. Baer,  A. T. Bell,  N. A. Besley,  Jeng-Da Chai,  
 A. E. DePrince, III,  R. A. DiStasio Jr.,  A. Dreuw,  B. D. Dunietz,  
 T. R. Furlani,  Chao-Ping Hsu,  Yousung Jung,  Jing Kong,  D. S. Lambrecht,  
 WanZhen Liang,  C. Ochsenfeld,  V. A. Rassolov,  L. V. Slipchenko,  
 J. E. Subotnik,  T. Van Voorhis,  J. M. Herbert,  A. I. Krylov,  
 P. M. W. Gill,  M. Head-Gordon

 Contributors to earlier versions of Q-Chem not listed above: 
 R. D. Adamson,  B. Austin,  J. Baker,  G. J. O. Beran,  K. Brandhorst,  
 S. T. Brown,  E. F. C. Byrd,  A. K. Chakraborty,  C.-L. Cheng,  
 Siu Hung Chien,  D. M. Chipman,  D. L. Crittenden,  H. Dachsel,  
 R. J. Doerksen,  A. D. Dutoi,  L. Fusti-Molnar,  W. A. Goddard III,  
 A. Golubeva-Zadorozhnaya,  S. R. Gwaltney,  G. Hawkins,  A. Heyden,  
 S. Hirata,  G. Kedziora,  F. J. Keil,  C. Kelley,  Jihan Kim,  R. A. King,  
 R. Z. Khaliullin,  P. P. Korambath,  W. Kurlancheek,  A. M. Lee,  M. S. Lee,  
 S. V. Levchenko,  Ching Yeh Lin,  D. Liotard,  R. C. Lochan,  I. Lotan,  
 P. E. Maslen,  N. Nair,  D. P. O'Neill,  D. Neuhauser,  E. Neuscamman,  
 C. M. Oana,  R. Olson,  B. Peters,  R. Peverati,  P. A. Pieniazek,  
 Y. M. Rhee,  J. Ritchie,  M. A. Rohrdanz,  E. Rosta,  N. J. Russ,  
 H. F. Schaefer III,  N. E. Schultz,  N. Shenvi,  A. C. Simmonett,  A. Sodt,  
 D. Stuck,  K. S. Thanthiriwatte,  V. Vanovschi,  Tao Wang,  A. Warshel,  
 C. F. Williams,  Q. Wu,  X. Xu,  W. Zhang

 Please cite Q-Chem as follows:
 Y. Shao et al., Mol. Phys. 113, 184-215 (2015)
 DOI: 10.1080/00268976.2014.952696

 Q-Chem 5.2.1 for Intel X86 EM64T Linux

 Parts of Q-Chem use Armadillo 8.300.2 (Tropical Shenanigans).
 http://arma.sourceforge.net/

 Q-Chem begins on Wed Sep 29 16:07:59 2021  

compute-0-6.local
Host: 0

     Scratch files written to /home/meili/scratch/qchem34509//Frg2//
NAlpha2: 70
NElect   70
Mult     1
Symmetry turned off for PCM/SM12/SMD calculation

Checking the input file for inconsistencies... 	...done.

--------------------------------------------------------------
User input:
--------------------------------------------------------------
$molecule
0 1
 6	-1.9282789198	-2.5644108251	4.6445988753
 6	-0.7372789198	-1.6064108251	1.2245988753
 6	-1.7732789198	-1.6344108251	2.2005988753
 6	-1.2122789198	-2.2244108251	3.3855988753
 6	0.0857210802	-2.5024108251	3.1125988753
 6	-2.1722789198	-0.6114108251	-0.3774011247
 6	-0.9152789198	-1.0714108251	-0.0384011247
 6	-3.2362789198	-0.6204108251	0.5505988753
 6	-3.0482789198	-1.1654108251	1.8385988753
 7	0.3747210802	-2.1204108251	1.8275988753
 1	-2.3472789198	-0.2294108251	-1.3734011247
 1	-0.1022789198	-1.0594108251	-0.7494011247
 1	-4.2092789198	-0.2514108251	0.2605988753
 1	-3.8652789198	-1.2064108251	2.5145988753
 1	1.2697210802	-2.2694108251	1.3655988753
 1	0.7787210802	-2.9834108251	3.7965988753
 1	-2.5182789198	-1.7164108251	4.9815988753
 1	-1.2002789198	-2.8024108251	5.4215988753
 1	-2.5944289198	-3.4261108251	4.4905988753
$end
$rem
EDA2		1
METHOD		WB97X-V
BASIS		DEF2-TZVPD
XC_GRID		000099000590
NL_GRID		1
UNRESTRICTED		FALSE
MAX_SCF_CYCLES		200
SYMMETRY		FALSE
SYM_IGNORE		TRUE
BASIS_LIN_DEP_THRESH		6
THRESH		14
SCF_CONVERGENCE		8
SCF_PRINT_FRGM		TRUE
SOLVENT_METHOD		PCM
!required keywords
JOBTYPE		SP
SYM_IGNORE		TRUE
SUBSYSTEM		TRUE
GEN_SCFMAN		TRUE
CHILD_INSTRUCTION		2
SYM_IGNORE		TRUE
SCFMI		0
RI_K 0		
PARI_K 0		
MIN_PARI_K 0		
IARI_K 0		
OCC_RI_K 0		
PURECART		1111
MEM_STATIC		2000
MEM_TOTAL		2000
GUI		0
CHILD_MP		1
CHILD_MP_ORDERS		232
FRZ_RELAX		0
FRZ_RELAX_METHOD		0
EDA_CLS_ELEC		1
EDA_CLS_DISP		0
FRZ_ORTHO_DECOMP		1
EDA2		FALSE
FRGM_METHOD		FALSE
CIS_N_ROOTS  0
LOCAL_CIS    0
CIS_RLX_DNS  1
$end
$pcm
THEORY                  CPCM
METHOD                  SWIG
SOLVER                  INVERSION
RADII                   UFF
HPOINTS                 302
HEAVYPOINTS             302
PRINTLEVEL              0
$end
$solvent
DIELECTRIC              78.390000 ! water
$end
--------------------------------------------------------------
 ----------------------------------------------------------------
             Standard Nuclear Orientation (Angstroms)
    I     Atom           X                Y                Z
 ----------------------------------------------------------------
    1      C      -1.9282789198    -2.5644108251     4.6445988753
    2      C      -0.7372789198    -1.6064108251     1.2245988753
    3      C      -1.7732789198    -1.6344108251     2.2005988753
    4      C      -1.2122789198    -2.2244108251     3.3855988753
    5      C       0.0857210802    -2.5024108251     3.1125988753
    6      C      -2.1722789198    -0.6114108251    -0.3774011247
    7      C      -0.9152789198    -1.0714108251    -0.0384011247
    8      C      -3.2362789198    -0.6204108251     0.5505988753
    9      C      -3.0482789198    -1.1654108251     1.8385988753
   10      N       0.3747210802    -2.1204108251     1.8275988753
   11      H      -2.3472789198    -0.2294108251    -1.3734011247
   12      H      -0.1022789198    -1.0594108251    -0.7494011247
   13      H      -4.2092789198    -0.2514108251     0.2605988753
   14      H      -3.8652789198    -1.2064108251     2.5145988753
   15      H       1.2697210802    -2.2694108251     1.3655988753
   16      H       0.7787210802    -2.9834108251     3.7965988753
   17      H      -2.5182789198    -1.7164108251     4.9815988753
   18      H      -1.2002789198    -2.8024108251     5.4215988753
   19      H      -2.5944289198    -3.4261108251     4.4905988753
 ----------------------------------------------------------------
 Nuclear Repulsion Energy =         484.88877207 hartrees
 There are       35 alpha and       35 beta electrons
 Requested basis set is def2-TZVPD
 There are 175 shells and 451 basis functions

 Total QAlloc Memory Limit   2000 MB
 Mega-Array Size      1956 MB
 MEM_STATIC part      2000 MB
 Discretize the solute cavity surface with Lebedev spheres
	Using 302 Lebedev grid points for each H atom
	Using 302 Lebedev grid points for other atoms
	Atomic van der Waals radii will be scaled by 1.20
 Remove points where switching function is < 1.0e-08
 Keep 2191 surface tesserae and discard 3547 interior tesserae
 Molecular Surface Area = 215.468 Angst**2
 A cutoff of  1.0D-14 yielded  14469 shell pairs
 There are     98237 function pairs (    126407 Cartesian)
 Smallest overlap matrix eigenvalue = 5.90E-07
 Linear dependence detected in AO basis
 Tighter screening thresholds may be required for diffuse basis sets
 Use S2THRESH > 14 and THRESH = 14 in case of SCF convergence issues
 Number of orthogonalized atomic orbitals = 449
 Maximum deviation from orthogonality = 2.937E-10

 Scale SEOQF with 1.000000e-01/1.000000e-01/1.000000e-02

 Standard Electronic Orientation quadrupole field applied
 Nucleus-field energy     =     0.0000000209 hartrees
 Guess from superposition of atomic densities
 Warning:  Energy on first SCF cycle will be non-variational
 SAD guess density has 70.000000 electrons

 -----------------------------------------------------------------------
  General SCF calculation program by
  Eric Jon Sundstrom, Paul Horn, Yuezhi Mao, Dmitri Zuev, Alec White,
  David Stuck, Shaama M.S., Shane Yost, Joonho Lee, David Small,
  Daniel Levine, Susi Lehtola, Hugh Burton, Evgeny Epifanovsky,
  Bang C. Huynh
 -----------------------------------------------------------------------
 Exchange:     0.1670 Hartree-Fock + 1.0000 wB97X-V + LR-HF
 Correlation:  1.0000 wB97X-V
 Using Euler-Maclaurin-Lebedev (99,590) quadrature formula
 Nonlocal Correlation:  VV10 with C = 0.0100 and b = 6.00 and scale = 1.00000
 Grid used for NLC:  SG-1 standard quadrature
Energy prior to optimization (guess energy) = -403.080998548412
Begin Timing: Total SCF Calculation
begin iterations for algorithm: DIIS         
the SCF tolerance is set to 1.00e-08
    1    -403.0809985484      1.66e-03     00000 
    2    -403.1299819433      1.18e-03     00000 
    3    -403.1664557300      2.51e-04     00000 
    4    -403.1679298537      1.20e-04     00000 
    5    -403.1682952210      2.45e-05     00000 
    6    -403.1683149731      9.46e-06     00000 
    7    -403.1683176062      2.92e-06     00000 
    8    -403.1683180739      6.84e-07     00000 
    9    -403.1683181325      3.10e-07     00000 
   10    -403.1683181451      1.70e-07     00000 
   11    -403.1683181483      6.45e-08     00000 
   12    -403.1683181489      2.78e-08     00000 
   13    -403.1683181490      9.09e-09     00000 Convergence criterion met
Timing for Total SCF: 1530.00s (wall), 9631.82s (cpu)

************** Final PCM Free Energy Summary **************
 G_electrostatic  =      -0.00644414 hartree =      -4.04375971 kcal/mol
 G_cavitation     =       0.00000000 hartree =       0.00000000 kcal/mol
 G_dispersion     =       0.00000000 hartree =       0.00000000 kcal/mol
 G_repulsion      =       0.00000000 hartree =       0.00000000 kcal/mol
 --------------------------------------------------
 Non-electrostatic Free Energy =       0.00000000 hartree =       0.00000000 kcal/mol
 Total                         =      -0.00644414 hartree =      -4.04375971 kcal/mol
 --------------------------------------------------
 SCF Energy (H0 + V/2)                       =    -403.16831815 
 Solute Internal Energy (H0)                 =    -403.16187401 
 Total Free Energy (H0 + V/2 + non-elec)     =    -403.16831815 hartree
                                             = -252991.93804561 kcal/mol
***********************************************************

E_pcm = -0.0064441413
Multipole orders to be included
        2
        3
computing dipole RHS
computing quadrupole RHS
total number of RHS in solve_reponses: 8
RHS batch sizes
        8
Beginning Block Conjugate Gradient Iterations. Batch Number: 0
computing hessian-vector products by finite difference
              1      6.29e-01     00000 Conjugate Gradient Iteration
computing hessian-vector products by finite difference
              2      2.12e-01     00000 Conjugate Gradient Iteration
computing hessian-vector products by finite difference
              3      6.04e-02     00000 Conjugate Gradient Iteration
computing hessian-vector products by finite difference
              4      2.26e-02     00000 Conjugate Gradient Iteration
computing hessian-vector products by finite difference
              5      8.11e-03     00000 Conjugate Gradient Iteration
computing hessian-vector products by finite difference
              6      2.24e-03     00000 Conjugate Gradient Iteration
computing hessian-vector products by finite difference
              7      4.94e-04     00000 Conjugate Gradient Iteration
computing hessian-vector products by finite difference
              8      9.40e-05     00000 Conjugate Gradient Iteration
computing hessian-vector products by finite difference
              9      1.76e-05     00000 Conjugate Gradient Iteration
computing hessian-vector products by finite difference
             10      2.84e-06     00000 Conjugate Gradient Iteration
computing hessian-vector products by finite difference
             11      4.98e-07     00000 Conjugate Gradient Iteration
computing hessian-vector products by finite difference
             12      9.89e-08     00000 Conjugate Gradient Iteration
computing hessian-vector products by finite difference
             13      1.66e-08     00000 Conjugate Gradient Iteration
computing hessian-vector products by finite difference
             14      3.79e-09     00000 CG Converged
batch 0 complete
Done Calculating Responses
TESTING ORTHOGONALIZATION OF MULTIPOLE BASIS
Multipole virts passed orthogonality test
Virts Per Order
          105
          175

 --------------------------------------------------------------

                    Orbital Energies (a.u.)
 --------------------------------------------------------------

 Alpha MOs
 -- Occupied --
-14.4497 -10.3021 -10.2955 -10.2728 -10.2713 -10.2700 -10.2684 -10.2680
-10.2610 -10.2606  -1.1184  -0.9775  -0.9337  -0.8693  -0.8624  -0.8183
 -0.7477  -0.7148  -0.6778  -0.6526  -0.6031  -0.5839  -0.5567  -0.5506
 -0.5397  -0.5185  -0.5136  -0.4944  -0.4831  -0.4563  -0.4515  -0.4328
 -0.3784  -0.3157  -0.2925
 -- Virtual --
  0.0526   0.0594   0.0748   0.0765   0.0884   0.0968   0.0986   0.1052
  0.1265   0.1307   0.1359   0.1451   0.1499   0.1617   0.1693   0.1756
  0.1843   0.1934   0.2011   0.2075   0.2096   0.2168   0.2223   0.2375
  0.2452   0.2536   0.2573   0.2583   0.2610   0.2716   0.2737   0.2743
  0.2807   0.2839   0.2884   0.2926   0.3009   0.3081   0.3094   0.3147
  0.3280   0.3292   0.3341   0.3383   0.3418   0.3438   0.3466   0.3509
  0.3539   0.3566   0.3689   0.3752   0.3762   0.3840   0.3874   0.3912
  0.4001   0.4059   0.4098   0.4116   0.4164   0.4191   0.4244   0.4327
  0.4373   0.4453   0.4513   0.4554   0.4564   0.4593   0.4636   0.4725
  0.4838   0.4862   0.4876   0.4974   0.5022   0.5055   0.5162   0.5183
  0.5299   0.5341   0.5392   0.5431   0.5468   0.5515   0.5560   0.5621
  0.5686   0.5742   0.5805   0.5852   0.5986   0.6051   0.6088   0.6187
  0.6271   0.6398   0.6425   0.6485   0.6511   0.6551   0.6665   0.6818
  0.6828   0.6867   0.6917   0.7020   0.7038   0.7139   0.7160   0.7255
  0.7301   0.7381   0.7400   0.7449   0.7573   0.7600   0.7677   0.7728
  0.7751   0.7791   0.7809   0.7887   0.7920   0.7995   0.8032   0.8098
  0.8111   0.8219   0.8314   0.8335   0.8376   0.8468   0.8495   0.8574
  0.8589   0.8682   0.8769   0.8903   0.8983   0.9112   0.9140   0.9294
  0.9377   0.9438   0.9672   0.9749   0.9868   1.0025   1.0118   1.0191
  1.0314   1.0370   1.0438   1.0548   1.0617   1.0687   1.0847   1.0974
  1.1101   1.1144   1.1341   1.1402   1.1549   1.1649   1.1807   1.2061
  1.2205   1.2329   1.2526   1.2705   1.2906   1.2945   1.3159   1.3347
  1.3470   1.3766   1.3860   1.3962   1.4086   1.4255   1.4466   1.4582
  1.4847   1.5171   1.5349   1.5523   1.5681   1.5790   1.6087   1.6119
  1.6267   1.6505   1.6601   1.6898   1.7021   1.7220   1.7405   1.7594
  1.7629   1.7882   1.8165   1.8303   1.8422   1.8570   1.8673   1.8795
  1.8849   1.9023   1.9119   1.9295   1.9455   1.9477   1.9661   1.9760
  1.9934   1.9981   2.0018   2.0095   2.0232   2.0318   2.0554   2.0694
  2.0844   2.0931   2.1204   2.1273   2.1700   2.1857   2.1922   2.2040
  2.2315   2.2608   2.2919   2.2985   2.3096   2.3293   2.3381   2.3643
  2.3983   2.4031   2.4248   2.4436   2.4517   2.4911   2.5108   2.5202
  2.5391   2.5733   2.5874   2.5936   2.6202   2.6253   2.6498   2.6630
  2.6854   2.6911   2.7193   2.7527   2.7652   2.7684   2.7824   2.7875
  2.8054   2.8202   2.8218   2.8505   2.8540   2.8785   2.8946   2.8991
  2.9115   2.9291   2.9405   2.9604   2.9678   2.9928   3.0140   3.0200
  3.0290   3.0452   3.0670   3.0757   3.1059   3.1110   3.1264   3.1340
  3.1466   3.1736   3.1834   3.2111   3.2174   3.2273   3.2448   3.2753
  3.2825   3.2905   3.3054   3.3104   3.3328   3.3436   3.3648   3.3751
  3.3907   3.3978   3.4171   3.4262   3.4411   3.4486   3.4510   3.4645
  3.4756   3.4804   3.5038   3.5111   3.5141   3.5290   3.5377   3.5518
  3.5769   3.5884   3.5915   3.6121   3.6314   3.6356   3.6562   3.6636
  3.6771   3.7008   3.7043   3.7163   3.7307   3.7440   3.7557   3.7811
  3.7863   3.8133   3.8834   3.8960   3.9093   3.9316   3.9424   3.9686
  4.0371   4.0453   4.0524   4.1176   4.1498   4.1637   4.1831   4.2082
  4.2362   4.2429   4.2627   4.2723   4.3006   4.3120   4.3324   4.3618
  4.3716   4.4020   4.4156   4.4413   4.4495   4.4861   4.5025   4.5384
  4.6145   4.6337   4.6479   4.6727   4.7459   4.7624   4.8280   4.8349
  4.9247   4.9311   4.9661   4.9848   4.9863   5.0284   5.0595   5.0724
  5.1235   5.1248   5.1548   5.2042   5.2178   5.2603   5.3719   5.4120
  5.4465   5.4938   5.5477   5.5964   5.6542   5.7020   5.8094   5.8226
  5.9450   5.9842   6.2731   6.3418  22.6728  22.7543  22.9105  22.9464
 22.9777  23.1780  23.2668  23.4746  23.7938  32.8455
 --------------------------------------------------------------

          Ground-State Mulliken Net Atomic Charges

     Atom                 Charge (a.u.)
  ----------------------------------------
      1 C                    -0.866973
      2 C                    -0.065139
      3 C                     0.704503
      4 C                     0.656384
      5 C                    -0.915284
      6 C                    -0.375569
      7 C                    -0.795025
      8 C                    -0.720211
      9 C                    -0.312245
     10 N                     0.142290
     11 H                     0.334603
     12 H                     0.317404
     13 H                     0.333610
     14 H                     0.377194
     15 H                     0.197276
     16 H                     0.248852
     17 H                     0.263978
     18 H                     0.277773
     19 H                     0.196580
  ----------------------------------------
  Sum of atomic charges =     0.000000

 -----------------------------------------------------------------
                    Cartesian Multipole Moments
 -----------------------------------------------------------------
    Charge (ESU x 10^10)
                -0.0000
    Dipole Moment (Debye)
         X       2.5151      Y      -1.0958      Z       0.2104
       Tot       2.7515
    Quadrupole Moments (Debye-Ang)
        XX     -56.0687     XY      -6.5644     YY     -58.7989
        XZ       2.2857     YZ      -5.3506     ZZ     -54.0704
    Octopole Moments (Debye-Ang^2)
       XXX     255.3182    XXY      94.9228    XYY     109.0798
       YYY     290.3019    XXZ    -102.1721    XYZ      -4.2215
       YYZ     -98.2465    XZZ      87.2642    YZZ      74.5779
       ZZZ    -311.9466
    Hexadecapole Moments (Debye-Ang^3)
      XXXX   -1313.2609   XXXY    -357.6662   XXYY    -442.1761
      XYYY    -384.4359   YYYY   -1225.3989   XXXZ     420.0783
      XXYZ     217.3584   XYYZ     170.8288   YYYZ     705.6114
      XXZZ    -572.3882   XYZZ    -123.3424   YYZZ    -520.8398
      XZZZ     445.6137   YZZZ     636.3127   ZZZZ   -2161.6968
 -----------------------------------------------------------------
Archival summary:
1\1\compute-0-6.local\SP\ProcedureUnspecified\BasisUnspecified\199\meili\ThuSep3001:25:392021ThuSep3001:25:392021\0\\#,ProcedureUnspecified,BasisUnspecified,\\0,1\C\C,1,1.40593\H,2,1.0612,1,121.418\C,2,1.41114,1,118.991,3,179.517,0\H,4,1.08027,2,119.798,1,-179.679,0\C,4,1.41186,2,120.132,1,3.13907,0\H,6,1.081,4,119.069,2,177.339,0\C,6,1.38079,4,121.504,2,-3.04251,0\H,8,1.08011,6,121.326,4,-179.744,0\C,8,1.38314,6,118.047,4,3.0839,0\N,10,1.36541,8,130.82,6,-179.49,0\H,11,1.01817,10,124.791,8,-6.4173,0\C,11,1.37138,10,110.307,8,178.222,0\H,13,1.08603,11,125.383,10,177.018,0\C,13,1.35522,11,109.479,10,-1.12055,0\C,15,1.48773,13,125.771,11,176.06,0\H,16,1.08663,15,110.207,13,135.243,0\H,16,1.09103,15,109.354,13,16.4739,0\H,16,1.1,15,110.61,13,-104.128,0\\\@

 Total job time:  33459.94s(wall), 212648.19s(cpu) 
 Thu Sep 30 01:25:39 2021

        *************************************************************
        *                                                           *
        *  Thank you very much for using Q-Chem.  Have a nice day.  *
        *                                                           *
        *************************************************************


Done Job For Fragment 1
calling putenv with: QCSCRATCH=/home/meili/scratch 
calling putenv with: QCTHREADS=8 
Doing General SCFMI
 Exchange:     0.1670 Hartree-Fock + 1.0000 wB97X-V + LR-HF
 Correlation:  1.0000 wB97X-V
 Using Euler-Maclaurin-Lebedev (99,590) quadrature formula
 Nonlocal Correlation:  VV10 with C = 0.0100 and b = 6.00 and scale = 1.00000
 Grid used for NLC:  SG-1 standard quadrature
performing fock build before subrot guess so that all methods have access
Printing subrot_rss_gen Method Specification:
Occupied Subspace Method is 0
Virtual Subspace Method is 0
Energy of the unrelaxed supersystem initial determinant -749.973236716287
performing fock build before subrot guess so that all methods have access
Printing subrot_rss_gen Method Specification:
Occupied Subspace Method is 0
Virtual Subspace Method is 0
Energy of the unrelaxed supersystem initial determinant w/ solvent -749.983005317357
write pseudocanon occs and virts to disk
write pseudocanon orbital energies to disk
Tolerance of ortho_decomp_scf: 1.00e-06
GDM subspace size: 20
Beginning the Orthogonal Decomposition of the Initial Supersystem Wavefunction
    1    -749.9566623339      1.38e-02     ortho_decomp Preconditoned Steepest Descent
    2    -749.9581319859      3.78e-04     ortho_decomp BFGS Step
    3    -749.9581369344      2.52e-05     ortho_decomp BFGS Step
    4    -749.9581369415      1.04e-06     ortho_decomp BFGS Step
    5    -749.9581369415      3.84e-08     ortho_decomp 00000 Convergence criterion met
 Hartree-Fock
 Hartree-Fock
 Hartree-Fock
Doing General SCFMI
 Exchange:     0.1670 Hartree-Fock + 1.0000 wB97X-V + LR-HF
 Correlation:  1.0000 wB97X-V
 Using Euler-Maclaurin-Lebedev (99,590) quadrature formula
 Nonlocal Correlation:  VV10 with C = 0.0100 and b = 6.00 and scale = 1.00000
 Grid used for NLC:  SG-1 standard quadrature
performing fock build at end of subrot_r(subrot) constructor so that all methods have access
<S^2> of initial wavefunction before polarization iterations 0.0000000000
Beginning iterations for the determination of the polarized wavefunction
Energy prior to optimization (guess energy) = -749.983005317355
Begin Timing: Total SCF Calculation
begin iterations for algorithm: DIIS         
the SCF tolerance is set to 1.00e-08
    1    -749.9830053174      5.04e-05     00000 
    2    -749.9835350922      1.86e-05     00000 
    3    -749.9835872525      9.85e-06     00000 
    4    -749.9836009017      4.04e-06     00000 
    5    -749.9836036108      1.62e-06     00000 
    6    -749.9836041632      7.20e-07     00000 
    7    -749.9836042552      2.78e-07     00000 
    8    -749.9836042679      1.17e-07     00000 
    9    -749.9836042696      3.76e-08     00000 
   10    -749.9836042698      1.72e-08     00000 
   11    -749.9836042698      7.27e-09     00000 Convergence criterion met
write pseudocanon occs and virts to disk
write pseudocanon orbital energies to disk
Timing for Total SCF: 6480.00s (wall), 42812.40s (cpu)
<S^2> of polarized wavefunction after polarization iterations 0.0000000000
relaxing scfmi constraint to allow all rotations in the entire AO span
Doing General SCFMI
 Exchange:     0.1670 Hartree-Fock + 1.0000 wB97X-V + LR-HF
 Correlation:  1.0000 wB97X-V
 Using Euler-Maclaurin-Lebedev (99,590) quadrature formula
 Nonlocal Correlation:  VV10 with C = 0.0100 and b = 6.00 and scale = 1.00000
 Grid used for NLC:  SG-1 standard quadrature
performing fock build at end of subrot_r(subrot) constructor so that all methods have access
<S^2> of polarized wavefunction before ct-allowed iterations 0.0000000000
Beginning iterations for the determination of the CT-Allowed wavefunction
Energy prior to optimization (guess energy) = -749.983604269777
Begin Timing: Total SCF Calculation
begin iterations for algorithm: DIIS         
the SCF tolerance is set to 1.00e-08
    1    -749.9836042698      4.82e-05     00000 
    2    -749.9844646386      5.36e-06     00000 
    3    -749.9844909453      8.59e-07     00000 
    4    -749.9844917438      4.66e-07     00000 
    5    -749.9844918197      1.21e-07     00000 
    6    -749.9844918299      4.14e-08     00000 
    7    -749.9844918308      1.31e-08     00000 
    8    -749.9844918309      5.07e-09     00000 Convergence criterion met
write pseudocanon occs and virts to disk
write pseudocanon orbital energies to disk
Timing for Total SCF: 4817.00s (wall), 31592.54s (cpu)
<S^2> of ct_allowed wavefunction after ct-allowed iterations 0.0000000000

================================
        Results of EDA2         
================================
Basic EDA Quantities
--------------------
Fragment Energies (Ha):
1 -346.8145087178
2 -403.1683181490
--------------------
  E_prp (kJ/mol) = 0.0000
  E_sol (kJ/mol) = 5.9616
  E_frz (kJ/mol) = -6.4301
  E_pol (kJ/mol) = -1.5726
  E_vct (kJ/mol) = -2.3303
  E_int (kJ/mol) = -4.3714
--------------------


Initial Wavefunction Decomposition
--------------------
  --------------------
  Orthogonal Fragment Subspace Decomposition:
  --------------------
     E_elec   (ELEC)   (kJ/mol) = -18.6381
     E_pauli  (PAULI)  (kJ/mol) = 25.8077
     E_disp   (DISP)   (kJ/mol) = -13.5997
     --------------------
     Terms summing to E_pauli:
     --------------------
        E_kep_pauli       (kJ/mol) = 33.2148
        E_disp_free_pauli (kJ/mol) = -7.4071
  --------------------
  Classical Frozen Decomposition:
  --------------------
     E_cls_elec  (CLS ELEC)  (kJ/mol) = -8.4227
     E_cls_pauli (CLS PAULI) (kJ/mol) = 1.9926
    [E_mod_pauli (MOD PAULI) (kJ/mol) = 15.5923 (CLS PAULI - DISP from orthogonal decomposition) ]
  --------------------
--------------------

Simplified EDA Summary (kJ/mol)
--------------------
 PREPARATION     0.0000
 SOLVATION       5.9616
 FROZEN          7.1696      (does not include dispersion)
[PAULI           25.8077]     (if this is negligible, then frozen describes electrostatics)
 DISPERSION      -13.5997
 POLARIZATION    -1.5726
 CHARGE TRANSFER -2.3303
 TOTAL           -4.3714     (PRP + SOL + FRZ + DISP + POL + CT)
--------------------

 --------------------------------------------------------------

                    Orbital Energies (a.u.)
 --------------------------------------------------------------

 Alpha MOs
 -- Occupied --
-19.2466 -14.4512 -10.3364 -10.3042 -10.2970 -10.2767 -10.2760 -10.2754
-10.2749 -10.2744 -10.2737 -10.2732 -10.2710 -10.2705 -10.2696 -10.2621
-10.2619 -10.2614  -1.2041  -1.1200  -0.9952  -0.9804  -0.9353  -0.9012
 -0.8847  -0.8716  -0.8651  -0.8196  -0.8110  -0.7510  -0.7497  -0.7195
 -0.7164  -0.6798  -0.6694  -0.6548  -0.6067  -0.6050  -0.5874  -0.5829
 -0.5581  -0.5543  -0.5506  -0.5432  -0.5415  -0.5353  -0.5239  -0.5201
 -0.5145  -0.5117  -0.4961  -0.4869  -0.4775  -0.4584  -0.4579  -0.4525
 -0.4449  -0.4397  -0.4350  -0.3804  -0.3529  -0.3180  -0.3129  -0.2942
 -- Virtual --
  0.0472   0.0533   0.0590   0.0626   0.0655   0.0731   0.0793   0.0800
  0.0837   0.0890   0.0949   0.0982   0.0987   0.1094   0.1140   0.1230
  0.1270   0.1284   0.1341   0.1367   0.1417   0.1446   0.1508   0.1563
  0.1587   0.1628   0.1652   0.1695   0.1726   0.1806   0.1854   0.1889
  0.1964   0.1978   0.2026   0.2061   0.2085   0.2155   0.2173   0.2275
  0.2319   0.2333   0.2384   0.2401   0.2432   0.2478   0.2485   0.2530
  0.2569   0.2601   0.2627   0.2629   0.2653   0.2696   0.2717   0.2742
  0.2767   0.2813   0.2823   0.2864   0.2941   0.2964   0.2985   0.2991
  0.3051   0.3095   0.3096   0.3122   0.3155   0.3177   0.3210   0.3232
  0.3259   0.3271   0.3307   0.3331   0.3366   0.3394   0.3455   0.3463
  0.3490   0.3515   0.3543   0.3555   0.3581   0.3626   0.3646   0.3686
  0.3724   0.3737   0.3765   0.3782   0.3801   0.3823   0.3839   0.3860
  0.3918   0.3952   0.3972   0.3984   0.4023   0.4060   0.4077   0.4109
  0.4115   0.4136   0.4160   0.4273   0.4287   0.4304   0.4326   0.4340
  0.4361   0.4403   0.4432   0.4470   0.4508   0.4530   0.4548   0.4581
  0.4619   0.4629   0.4663   0.4683   0.4727   0.4742   0.4764   0.4793
  0.4821   0.4848   0.4878   0.4899   0.4961   0.4968   0.5023   0.5063
  0.5091   0.5101   0.5121   0.5156   0.5186   0.5222   0.5252   0.5302
  0.5329   0.5375   0.5391   0.5410   0.5473   0.5501   0.5517   0.5552
  0.5565   0.5626   0.5653   0.5672   0.5690   0.5752   0.5803   0.5821
  0.5889   0.5910   0.5964   0.6022   0.6045   0.6086   0.6107   0.6191
  0.6212   0.6229   0.6244   0.6310   0.6377   0.6401   0.6444   0.6493
  0.6509   0.6565   0.6614   0.6664   0.6700   0.6739   0.6793   0.6808
  0.6851   0.6883   0.6930   0.6942   0.7004   0.7023   0.7042   0.7102
  0.7106   0.7150   0.7184   0.7221   0.7276   0.7293   0.7313   0.7383
  0.7406   0.7432   0.7449   0.7516   0.7548   0.7599   0.7610   0.7643
  0.7685   0.7701   0.7726   0.7743   0.7774   0.7779   0.7820   0.7871
  0.7883   0.7906   0.7931   0.7965   0.8003   0.8035   0.8054   0.8088
  0.8140   0.8172   0.8184   0.8238   0.8254   0.8280   0.8296   0.8330
  0.8390   0.8435   0.8447   0.8511   0.8535   0.8566   0.8622   0.8644
  0.8670   0.8688   0.8755   0.8784   0.8846   0.8860   0.8894   0.8928
  0.9041   0.9075   0.9108   0.9115   0.9132   0.9157   0.9230   0.9304
  0.9320   0.9385   0.9456   0.9497   0.9576   0.9617   0.9635   0.9707
  0.9765   0.9796   0.9912   0.9941   1.0022   1.0045   1.0106   1.0148
  1.0176   1.0259   1.0341   1.0367   1.0455   1.0485   1.0552   1.0572
  1.0613   1.0676   1.0755   1.0831   1.0867   1.0938   1.0990   1.1046
  1.1128   1.1162   1.1247   1.1261   1.1330   1.1440   1.1454   1.1527
  1.1558   1.1661   1.1712   1.1807   1.1915   1.2032   1.2106   1.2151
  1.2273   1.2383   1.2470   1.2550   1.2638   1.2828   1.2892   1.3050
  1.3167   1.3190   1.3204   1.3227   1.3432   1.3482   1.3591   1.3733
  1.3750   1.3781   1.3877   1.4033   1.4079   1.4104   1.4217   1.4362
  1.4399   1.4467   1.4547   1.4593   1.4815   1.4845   1.4956   1.5005
  1.5071   1.5120   1.5233   1.5412   1.5527   1.5615   1.5683   1.5832
  1.5973   1.6034   1.6154   1.6282   1.6375   1.6400   1.6537   1.6607
  1.6626   1.6784   1.6870   1.6961   1.7005   1.7126   1.7226   1.7369
  1.7505   1.7700   1.7729   1.7834   1.8050   1.8114   1.8250   1.8269
  1.8394   1.8404   1.8455   1.8609   1.8637   1.8754   1.8860   1.8964
  1.8995   1.9016   1.9032   1.9191   1.9257   1.9357   1.9407   1.9512
  1.9597   1.9668   1.9682   1.9754   1.9776   1.9861   1.9900   1.9934
  2.0066   2.0118   2.0146   2.0231   2.0377   2.0413   2.0456   2.0502
  2.0570   2.0639   2.0693   2.0822   2.0948   2.1105   2.1126   2.1162
  2.1234   2.1287   2.1382   2.1458   2.1613   2.1705   2.1832   2.1970
  2.2040   2.2103   2.2174   2.2299   2.2340   2.2508   2.2714   2.2757
  2.2851   2.2913   2.2960   2.3057   2.3189   2.3261   2.3350   2.3426
  2.3536   2.3610   2.3685   2.3738   2.3934   2.4132   2.4157   2.4169
  2.4249   2.4376   2.4441   2.4567   2.4694   2.4832   2.5003   2.5092
  2.5129   2.5203   2.5295   2.5432   2.5673   2.5751   2.5788   2.5889
  2.6023   2.6050   2.6102   2.6275   2.6390   2.6418   2.6476   2.6552
  2.6641   2.6743   2.6912   2.6946   2.7002   2.7197   2.7272   2.7480
  2.7595   2.7632   2.7683   2.7729   2.7752   2.7893   2.7946   2.8040
  2.8120   2.8207   2.8250   2.8281   2.8290   2.8457   2.8547   2.8601
  2.8787   2.8888   2.8953   2.9028   2.9103   2.9221   2.9250   2.9408
  2.9474   2.9538   2.9558   2.9638   2.9727   2.9781   2.9872   2.9965
  3.0007   3.0041   3.0154   3.0214   3.0280   3.0357   3.0480   3.0564
  3.0694   3.0780   3.0864   3.0986   3.1055   3.1112   3.1184   3.1323
  3.1334   3.1397   3.1520   3.1605   3.1747   3.1930   3.1994   3.2012
  3.2089   3.2163   3.2201   3.2332   3.2376   3.2408   3.2543   3.2555
  3.2631   3.2746   3.2828   3.2951   3.3043   3.3090   3.3118   3.3191
  3.3323   3.3403   3.3489   3.3565   3.3642   3.3684   3.3841   3.3979
  3.4014   3.4051   3.4112   3.4220   3.4236   3.4314   3.4342   3.4461
  3.4550   3.4587   3.4670   3.4758   3.4820   3.4853   3.4862   3.4922
  3.4932   3.5088   3.5135   3.5197   3.5256   3.5310   3.5341   3.5360
  3.5501   3.5579   3.5581   3.5609   3.5639   3.5723   3.5800   3.5856
  3.5918   3.5989   3.6061   3.6116   3.6162   3.6258   3.6347   3.6387
  3.6441   3.6499   3.6627   3.6677   3.6826   3.6954   3.6961   3.7000
  3.7041   3.7153   3.7229   3.7309   3.7381   3.7564   3.7583   3.7657
  3.7796   3.7848   3.7976   3.8173   3.8358   3.8492   3.8789   3.8972
  3.9008   3.9154   3.9286   3.9432   3.9500   3.9665   3.9735   3.9861
  4.0049   4.0453   4.0490   4.0518   4.0651   4.0917   4.1165   4.1516
  4.1551   4.1678   4.1924   4.2084   4.2194   4.2404   4.2524   4.2578
  4.2679   4.2804   4.2905   4.2996   4.3059   4.3129   4.3197   4.3266
  4.3344   4.3402   4.3480   4.3630   4.3718   4.3765   4.3777   4.4043
  4.4079   4.4274   4.4314   4.4459   4.4534   4.4620   4.4865   4.5052
  4.5185   4.5411   4.5481   4.5978   4.6154   4.6201   4.6389   4.6518
  4.6768   4.7396   4.7459   4.7540   4.7657   4.8037   4.8157   4.8282
  4.8371   4.8682   4.9298   4.9371   4.9445   4.9716   4.9873   4.9961
  5.0280   5.0321   5.0629   5.0663   5.0794   5.0945   5.1247   5.1294
  5.1485   5.1648   5.1754   5.2125   5.2245   5.2635   5.3009   5.3392
  5.3757   5.4142   5.4158   5.4520   5.4527   5.4953   5.5334   5.5507
  5.6012   5.6308   5.6475   5.6576   5.7080   5.7307   5.7563   5.8060
  5.8282   5.9513   5.9805   5.9867   6.2397   6.2765   6.3394   6.5069
  6.6208   6.6660   6.9136   7.0498   7.3176   7.4860  22.6658  22.6682
 22.7288  22.7843  22.9328  22.9567  22.9730  22.9805  23.0025  23.0690
 23.1903  23.2145  23.2707  23.4784  23.5344  23.7901  32.8630  44.4641
 --------------------------------------------------------------

          Ground-State Mulliken Net Atomic Charges

     Atom                 Charge (a.u.)
  ----------------------------------------
      1 C                    -1.046103
      2 C                    -0.232793
      3 C                    -0.806498
      4 C                     0.704968
      5 C                     0.453303
      6 C                    -0.705699
      7 C                    -0.311934
      8 O                    -0.528060
      9 H                     0.392559
     10 H                     0.365233
     11 H                     0.248507
     12 H                     0.345275
     13 H                     0.266133
     14 H                     0.271664
     15 H                     0.330271
     16 H                     0.221807
     17 C                    -1.019128
     18 C                    -0.278927
     19 C                     0.499267
     20 C                     0.566829
     21 C                    -0.618155
     22 C                    -0.415712
     23 C                    -0.447507
     24 C                    -0.583066
     25 C                    -0.531524
     26 N                     0.142309
     27 H                     0.340875
     28 H                     0.404577
     29 H                     0.365836
     30 H                     0.402094
     31 H                     0.200967
     32 H                     0.251902
     33 H                     0.268120
     34 H                     0.273940
     35 H                     0.208674
  ----------------------------------------
  Sum of atomic charges =     0.000000

 -----------------------------------------------------------------
                    Cartesian Multipole Moments
 -----------------------------------------------------------------
    Charge (ESU x 10^10)
                 0.0000
    Dipole Moment (Debye)
         X       2.3242      Y      -1.0834      Z       2.3112
       Tot       3.4521
    Quadrupole Moments (Debye-Ang)
        XX     -97.0336     XY      -4.0890     YY    -108.6455
        XZ       0.5505     YZ      -3.4248     ZZ    -107.6563
    Octopole Moments (Debye-Ang^2)
       XXX       4.3221    XXY      15.5329    XYY      23.8649
       YYY     -16.2185    XXZ      -9.6161    XYZ     -10.4726
       YYZ      20.3447    XZZ      15.5180    YZZ     -28.3879
       ZZZ      26.3506
    Hexadecapole Moments (Debye-Ang^3)
      XXXX   -2980.0625   XXXY    -938.4755   XXYY    -915.5059
      XYYY   -1033.7444   YYYY   -2588.2562   XXXZ     852.1614
      XXYZ     367.8064   XYYZ     324.3851   YYYZ    1346.5801
      XXZZ   -1115.2414   XYZZ    -296.6053   YYZZ   -1065.8332
      XZZZ     820.5226   YZZZ    1228.2480   ZZZZ   -4006.4807
 -----------------------------------------------------------------
Archival summary:
1\1\compute-0-6.local\SP\ProcedureUnspecified\BasisUnspecified\111617\meili\ThuSep3007:20:132021ThuSep3007:20:132021\0\\#,ProcedureUnspecified,BasisUnspecified,\\0,1\N\H,1,1.01817\C,1,1.36541,2,124.791\C,1,1.37138,2,124.726,3,174.704,0\H,4,1.08603,1,125.383,2,1.65413,0\C,4,1.35522,1,109.479,2,-176.485,0\C,3,1.38314,1,130.82,2,-6.4173,0\H,7,1.08011,3,120.565,1,3.31515,0\C,7,1.38079,3,118.047,1,-179.49,0\H,9,1.081,7,119.426,3,-177.299,0\C,9,1.41186,7,121.504,3,3.0839,0\H,11,1.08027,9,120.01,7,179.781,0\C,11,1.41114,9,120.132,7,-3.04251,0\H,13,1.0612,11,119.589,9,-177.335,0\C,13,1.40593,11,118.991,9,3.13907,0\C,6,1.48773,4,125.771,1,176.06,0\H,16,1.08663,6,110.207,4,135.243,0\H,16,1.09103,6,109.354,4,16.4739,0\H,16,1.1,6,110.61,4,-104.128,0\H,10,2.17829,9,134.014,7,-47.3275,0\O,20,0.956666,10,143.993,9,92.6377,0\C,21,1.34981,20,111.493,10,-99.0932,0\C,22,1.39381,21,122.982,20,-177.628,0\H,23,1.07788,22,119.709,21,-0.491086,0\C,22,1.39466,21,116.484,20,0.65144,0\H,25,1.07249,22,120.227,21,2.89282,0\C,25,1.38823,22,119.587,21,-177.949,0\H,27,1.08072,25,119.135,22,179.539,0\C,27,1.39092,25,121.225,22,-0.441592,0\C,29,1.39541,27,118.549,25,-0.0969432,0\H,30,1.08202,29,119.453,27,-179.924,0\C,29,1.51471,27,119.903,25,-179,0\H,32,1.08824,29,106.81,27,-45.7654,0\H,32,1.09114,29,109.62,27,-161.473,0\H,32,1.1,29,114.321,27,74.7066,0\\\@

 Total job time:  69718.01s(wall), 145217.88s(cpu) 
 Thu Sep 30 07:20:13 2021

        *************************************************************
        *                                                           *
        *  Thank you very much for using Q-Chem.  Have a nice day.  *
        *                                                           *
        *************************************************************


