
Running Job 1 of 1 SSI-048PHE-058PHE-1_PCM_TZVPD.in
qchem SSI-048PHE-058PHE-1_PCM_TZVPD.in_32273.0 /tmp/qchem32273/ 0
/global/common/cori/software/qchem/5.2/exe/qcprog.exe_s SSI-048PHE-058PHE-1_PCM_TZVPD.in_32273.0 /tmp/qchem32273/
                  Welcome to Q-Chem
     A Quantum Leap Into The Future Of Chemistry


 Q-Chem 5.2, Q-Chem, Inc., Pleasanton, CA (2019)

 License issued to: National Energy Research Scientific Computing Center

 Yihan Shao,  Zhengting Gan,  E. Epifanovsky,  A. T. B. Gilbert,  M. Wormit,  
 J. Kussmann,  A. W. Lange,  A. Behn,  Jia Deng,  Xintian Feng,  D. Ghosh,  
 M. Goldey,  P. R. Horn,  L. D. Jacobson,  I. Kaliman,  T. Kus,  A. Landau,  
 Jie Liu,  E. I. Proynov,  R. M. Richard,  R. P. Steele,  E. J. Sundstrom,  
 H. L. Woodcock III,  P. M. Zimmerman,  D. Zuev,  B. Albrecht,  E. Alguire,  
 S. A. Baeppler,  D. Barton,  Z. Benda,  Y. A. Bernard,  E. J. Berquist,  
 K. B. Bravaya,  H. Burton,  D. Casanova,  Chun-Min Chang,  Yunqing Chen,  
 A. Chien,  K. D. Closser,  M. P. Coons,  S. Coriani,  S. Dasgupta,  
 A. L. Dempwolff,  M. Diedenhofen,  Hainam Do,  R. G. Edgar,  Po-Tung Fang,  
 S. Faraji,  S. Fatehi,  Qingguo Feng,  K. D. Fenk,  J. Fosso-Tande,  
 J. Gayvert,  Qinghui Ge,  A. Ghysels,  G. Gidofalvi,  J. Gomes,  
 J. Gonthier,  A. Gunina,  D. Hait,  M. W. D. Hanson-Heine,  
 P. H. P. Harbach,  A. W. Hauser,  M. F. Herbst,  J. E. Herr,  
 E. G. Hohenstein,  Z. C. Holden,  Kerwin Hui,  B. C. Huynh,  T.-C. Jagau,  
 Hyunjun Ji,  B. Kaduk,  K. Khistyaev,  Jaehoon Kim,  P. Klunzinger,  K. Koh,  
 D. Kosenkov,  L. Koulias,  T. Kowalczyk,  C. M. Krauter,  A. Kunitsa,  
 Ka Un Lao,  A. Laurent,  K. V. Lawler,  Joonho Lee,  D. Lefrancois,  
 S. Lehtola,  D. S. Levine,  Yi-Pei Li,  You-Sheng Lin,  Fenglai Liu,  
 E. Livshits,  A. Luenser,  P. Manohar,  E. Mansoor,  S. F. Manzer,  
 Shan-Ping Mao,  Yuezhi Mao,  N. Mardirossian,  A. V. Marenich,  
 T. Markovich,  L. A. Martinez-Martinez,  S. A. Maurer,  N. J. Mayhall,  
 S. C. McKenzie,  J.-M. Mewes,  P. Morgante,  A. F. Morrison,  
 J. W. Mullinax,  K. Nanda,  T. S. Nguyen-Beck,  R. Olivares-Amaya,  
 J. A. Parkhill,  Zheng Pei,  T. M. Perrine,  F. Plasser,  P. Pokhilko,  
 S. Prager,  A. Prociuk,  E. Ramos,  D. R. Rehn,  F. Rob,  M. Scheurer,  
 M. Schneider,  N. Sergueev,  S. M. Sharada,  S. Sharma,  D. W. Small,  
 T. Stauch,  T. Stein,  Yu-Chuan Su,  A. J. W. Thom,  A. Tkatchenko,  
 T. Tsuchimochi,  N. M. Tubman,  L. Vogt,  M. L. Vidal,  O. Vydrov,  
 M. A. Watson,  J. Wenzel,  M. de Wergifosse,  T. A. Wesolowski,  A. White,  
 J. Witte,  A. Yamada,  Jun Yang,  K. Yao,  S. Yeganeh,  S. R. Yost,  
 Zhi-Qiang You,  A. Zech,  Igor Ying Zhang,  Xing Zhang,  Yan Zhao,  
 Ying Zhu,  B. R. Brooks,  G. K. L. Chan,  C. J. Cramer,  M. S. Gordon,  
 W. J. Hehre,  A. Klamt,  M. W. Schmidt,  C. D. Sherrill,  D. G. Truhlar,  
 A. Aspuru-Guzik,  R. Baer,  A. T. Bell,  N. A. Besley,  Jeng-Da Chai,  
 A. E. DePrince, III,  R. A. DiStasio Jr.,  A. Dreuw,  B. D. Dunietz,  
 T. R. Furlani,  Chao-Ping Hsu,  Yousung Jung,  Jing Kong,  D. S. Lambrecht,  
 WanZhen Liang,  C. Ochsenfeld,  V. A. Rassolov,  L. V. Slipchenko,  
 J. E. Subotnik,  T. Van Voorhis,  J. M. Herbert,  A. I. Krylov,  
 P. M. W. Gill,  M. Head-Gordon

 Contributors to earlier versions of Q-Chem not listed above: 
 R. D. Adamson,  B. Austin,  J. Baker,  G. J. O. Beran,  K. Brandhorst,  
 S. T. Brown,  E. F. C. Byrd,  A. K. Chakraborty,  C.-L. Cheng,  
 Siu Hung Chien,  D. M. Chipman,  D. L. Crittenden,  H. Dachsel,  
 R. J. Doerksen,  A. D. Dutoi,  L. Fusti-Molnar,  W. A. Goddard III,  
 A. Golubeva-Zadorozhnaya,  S. R. Gwaltney,  G. Hawkins,  A. Heyden,  
 S. Hirata,  G. Kedziora,  F. J. Keil,  C. Kelley,  Jihan Kim,  R. A. King,  
 R. Z. Khaliullin,  P. P. Korambath,  W. Kurlancheek,  A. M. Lee,  M. S. Lee,  
 S. V. Levchenko,  Ching Yeh Lin,  D. Liotard,  R. C. Lochan,  I. Lotan,  
 P. E. Maslen,  N. Nair,  D. P. O'Neill,  D. Neuhauser,  E. Neuscamman,  
 C. M. Oana,  R. Olson,  B. Peters,  R. Peverati,  P. A. Pieniazek,  
 Y. M. Rhee,  J. Ritchie,  M. A. Rohrdanz,  E. Rosta,  N. J. Russ,  
 H. F. Schaefer III,  N. E. Schultz,  N. Shenvi,  A. C. Simmonett,  A. Sodt,  
 D. Stuck,  K. S. Thanthiriwatte,  V. Vanovschi,  Tao Wang,  A. Warshel,  
 C. F. Williams,  Q. Wu,  X. Xu,  W. Zhang

 Please cite Q-Chem as follows:
 Y. Shao et al., Mol. Phys. 113, 184-215 (2015)
 DOI: 10.1080/00268976.2014.952696

 Q-Chem 5.2.0 for Intel X86 EM64T Linux

 Parts of Q-Chem use Armadillo 8.300.2 (Tropical Shenanigans).
 http://arma.sourceforge.net/

 Q-Chem begins on Sun Sep 26 08:20:54 2021  

Host: cori01
0

     Scratch files written to /tmp/qchem32273//
 May1019 |scratch|qcdevops|jenkins|workspace|build_RNUM -1
Processing $rem in /global/common/cori/software/qchem/5.2/config/preferences:
	 MEM_TOTAL  96000 
NAlpha2: 100
NElect   100
Mult     1
Symmetry turned off for PCM/SM12/SMD calculation

 Q-Chem warning in module libgen/rem_setup.C, line 2803:

 Neither GIA nor STOLL is specified by user. Use STOLL as the default


Checking the input file for inconsistencies... 	...done.

--------------------------------------------------------------
User input:
--------------------------------------------------------------
$comment
SSI-048PHE-058PHE-1.pdb
$end

$molecule
0 1
--
0 1
C   -5.146745353338    0.893494619399    1.218522634958
C   -1.520745353338    0.216494619399    0.335522634958
C   -0.912745353338    0.285494619399    1.581522634958
C   -2.890745353338    0.412494619399    0.221522634958
C   -3.664745353338    0.671494619399    1.348522634958
C   -1.679745353338    0.546494619399    2.711522634958
C   -3.049745353338    0.742494619399    2.593522634958
H   -0.927745353338    0.017494619399   -0.547477365042
H    0.155254646662    0.141494619399    1.670522634958
H   -3.353745353338    0.358494619399   -0.753477365042
H   -1.211745353338    0.592494619399    3.684522634958
H   -5.647745353338    0.461494619399    2.085522634958
H   -5.497745353338    0.359494619399    0.341522634958
H   -3.640745353338    0.946494619399    3.475522634958
H   -5.425305353338    1.953904619399    1.129492634958
--
0 1
C    2.890254646662    0.229494619399   -3.740477365042
C    1.624254646662   -1.451505380601   -0.580477365042
C    2.625254646662   -1.129505380601    0.326522634958
C    1.711254646662   -1.012505380601   -1.897477365042
C    2.796254646662   -0.251505380601   -2.317477365042
C    3.711254646662   -0.368505380601   -0.083477365042
C    3.795254646662    0.069494619399   -1.400477365042
H    0.773254646662   -2.035505380601   -0.258477365042
H    2.560254646662   -1.470505380601    1.351522634958
H    0.924254646662   -1.266505380601   -2.592477365042
H    4.494254646662   -0.124505380601    0.617522634958
H    3.143254646662    1.290494619399   -3.709477365042
H    1.920254646662    0.140494619399   -4.232477365042
H    4.641254646662    0.667494619399   -1.709477365042
H    3.656845646662   -0.293535380601   -4.331047365042
$end

$rem
JOBTYPE			EDA
EDA2			1
method			wB97X-V
BASIS			def2-TZVPD
XC_GRID			000099000590
NL_GRID			1
UNRESTRICTED		FALSE
MAX_SCF_CYCLES		200
SYMMETRY		FALSE
SYM_IGNORE		TRUE
MEM_STATIC		2000
BASIS_LIN_DEP_THRESH 	6
THRESH 			14
SCF_CONVERGENCE 	8
SCF_PRINT_FRGM 		TRUE
SOLVENT_METHOD          PCM
$end

$PCM
THEORY                  CPCM
METHOD                  SWIG
SOLVER                  INVERSION
RADII                   UFF
HPOINTS                 302
HEAVYPOINTS             302
PRINTLEVEL              0
$END

$SOLVENT
DIELECTRIC              78.390000 ! water
$END
--------------------------------------------------------------
 ----------------------------------------------------------------
             Standard Nuclear Orientation (Angstroms)
    I     Atom           X                Y                Z
 ----------------------------------------------------------------
    1      C      -5.1467453533     0.8934946194     1.2185226350
    2      C      -1.5207453533     0.2164946194     0.3355226350
    3      C      -0.9127453533     0.2854946194     1.5815226350
    4      C      -2.8907453533     0.4124946194     0.2215226350
    5      C      -3.6647453533     0.6714946194     1.3485226350
    6      C      -1.6797453533     0.5464946194     2.7115226350
    7      C      -3.0497453533     0.7424946194     2.5935226350
    8      H      -0.9277453533     0.0174946194    -0.5474773650
    9      H       0.1552546467     0.1414946194     1.6705226350
   10      H      -3.3537453533     0.3584946194    -0.7534773650
   11      H      -1.2117453533     0.5924946194     3.6845226350
   12      H      -5.6477453533     0.4614946194     2.0855226350
   13      H      -5.4977453533     0.3594946194     0.3415226350
   14      H      -3.6407453533     0.9464946194     3.4755226350
   15      H      -5.4253053533     1.9539046194     1.1294926350
   16      C       2.8902546467     0.2294946194    -3.7404773650
   17      C       1.6242546467    -1.4515053806    -0.5804773650
   18      C       2.6252546467    -1.1295053806     0.3265226350
   19      C       1.7112546467    -1.0125053806    -1.8974773650
   20      C       2.7962546467    -0.2515053806    -2.3174773650
   21      C       3.7112546467    -0.3685053806    -0.0834773650
   22      C       3.7952546467     0.0694946194    -1.4004773650
   23      H       0.7732546467    -2.0355053806    -0.2584773650
   24      H       2.5602546467    -1.4705053806     1.3515226350
   25      H       0.9242546467    -1.2665053806    -2.5924773650
   26      H       4.4942546467    -0.1245053806     0.6175226350
   27      H       3.1432546467     1.2904946194    -3.7094773650
   28      H       1.9202546467     0.1404946194    -4.2324773650
   29      H       4.6412546467     0.6674946194    -1.7094773650
   30      H       3.6568456467    -0.2935353806    -4.3310473650
 ----------------------------------------------------------------
 Nuclear Repulsion Energy =         754.11220126 hartrees
 There are       50 alpha and       50 beta electrons
 Requested basis set is def2-TZVPD
 There are 262 shells and 662 basis functions

 Total QAlloc Memory Limit  96000 MB
 Mega-Array Size      1956 MB
 MEM_STATIC part      2000 MB
 Discretize the solute cavity surface with Lebedev spheres
	Using 302 Lebedev grid points for each H atom
	Using 302 Lebedev grid points for other atoms
	Atomic van der Waals radii will be scaled by 1.20
 Remove points where switching function is < 1.0e-08
 Keep 3417 surface tesserae and discard 5643 interior tesserae
 Molecular Surface Area = 326.630 Angst**2
 A cutoff of  1.0D-14 yielded  28161 shell pairs
 There are    180129 function pairs (    226812 Cartesian)
 Smallest overlap matrix eigenvalue = 4.41E-07
 Linear dependence detected in AO basis
 Tighter screening thresholds may be required for diffuse basis sets
 Use S2THRESH > 14 and THRESH = 14 in case of SCF convergence issues
 Number of orthogonalized atomic orbitals = 658
 Maximum deviation from orthogonality = 1.515E-10

 Scale SEOQF with 1.000000e-02/1.000000e-01/1.000000e-01

 Standard Electronic Orientation quadrupole field applied
 Nucleus-field energy     =    -0.0000000322 hartrees

 -----------------------------------------------------------------------
  General SCF calculation program by
  Eric Jon Sundstrom, Paul Horn, Yuezhi Mao, Dmitri Zuev, Alec White,
  David Stuck, Shaama M.S., Shane Yost, Joonho Lee, David Small,
  Daniel Levine, Susi Lehtola, Hugh Burton, Evgeny Epifanovsky
 -----------------------------------------------------------------------
================================================================
                 ALMO-EDA with the EDA2 driver                  
================================================================
 The second-generation ALMO-EDA (for DFT):                      
 P. R. Horn, Y. Mao and M. Head-Gordon, PCCP, 18, 23067 (2016)  
 Decomposition of the frozen energy:                            
 P. R. Horn, Y. Mao and M. Head-Gordon, JCP, 144, 114107 (2016) 
 FERF model for polarization:                                   
 P. R. Horn and M. Head-Gordon, JCP, 143, 114111 (2015)         
Using eda2 option set 1
Option set summary: Frozen orbital wavefunction, initial wavefunction decomposition, and nDQ polarization.
--------------------------------
Printing EDA Options
--------------------------------
eda_child_super_basis      0
fragmo_guess_mode          0
child_mp                   1
child_mp_orders            232
cls_elec                   1
cls_disp                   0
scfmi_mode                 1
scfmi_occs                 0
scfmi_virts                0
frz_relax                  0
frz_relax_method           0
dc_pen_start               0
dc_pen_conv                0
dc_pen_increment           0
dc_pen_steps               0
dc_pen_thresh_factor       0
dc_pen_pre_newton_thresh   0
frz_ortho_decomp           1
frz_ortho_decomp_conv      6
frgm_method                2
scfmi_freeze_ss            0
separate_rehyb             0
plot_diff_den              0
eda_nocv                   0
eda_vct_relax              1
disp_free_x                0
disp_free_c                0
eda_bsse                   0
eda_pct_a                  0
eda_covp                   0
--------------------------------
Attempting to make child job directory: /tmp/qchem32273//Frg1/
Attempting to make child job directory: /tmp/qchem32273//Frg2/
Creating input file /tmp/qchem32273/Frg1.input
using default PutDataFrgm: nothing
calling putenv with: QCSCRATCH=/tmp/qchem32273/ 
calling putenv with: QCLOCALSCR=/tmp/qchem32273/ 
Spawning Job For Fragment 0
                  Welcome to Q-Chem
     A Quantum Leap Into The Future Of Chemistry


 Q-Chem 5.2, Q-Chem, Inc., Pleasanton, CA (2019)

 License issued to: National Energy Research Scientific Computing Center

 Yihan Shao,  Zhengting Gan,  E. Epifanovsky,  A. T. B. Gilbert,  M. Wormit,  
 J. Kussmann,  A. W. Lange,  A. Behn,  Jia Deng,  Xintian Feng,  D. Ghosh,  
 M. Goldey,  P. R. Horn,  L. D. Jacobson,  I. Kaliman,  T. Kus,  A. Landau,  
 Jie Liu,  E. I. Proynov,  R. M. Richard,  R. P. Steele,  E. J. Sundstrom,  
 H. L. Woodcock III,  P. M. Zimmerman,  D. Zuev,  B. Albrecht,  E. Alguire,  
 S. A. Baeppler,  D. Barton,  Z. Benda,  Y. A. Bernard,  E. J. Berquist,  
 K. B. Bravaya,  H. Burton,  D. Casanova,  Chun-Min Chang,  Yunqing Chen,  
 A. Chien,  K. D. Closser,  M. P. Coons,  S. Coriani,  S. Dasgupta,  
 A. L. Dempwolff,  M. Diedenhofen,  Hainam Do,  R. G. Edgar,  Po-Tung Fang,  
 S. Faraji,  S. Fatehi,  Qingguo Feng,  K. D. Fenk,  J. Fosso-Tande,  
 J. Gayvert,  Qinghui Ge,  A. Ghysels,  G. Gidofalvi,  J. Gomes,  
 J. Gonthier,  A. Gunina,  D. Hait,  M. W. D. Hanson-Heine,  
 P. H. P. Harbach,  A. W. Hauser,  M. F. Herbst,  J. E. Herr,  
 E. G. Hohenstein,  Z. C. Holden,  Kerwin Hui,  B. C. Huynh,  T.-C. Jagau,  
 Hyunjun Ji,  B. Kaduk,  K. Khistyaev,  Jaehoon Kim,  P. Klunzinger,  K. Koh,  
 D. Kosenkov,  L. Koulias,  T. Kowalczyk,  C. M. Krauter,  A. Kunitsa,  
 Ka Un Lao,  A. Laurent,  K. V. Lawler,  Joonho Lee,  D. Lefrancois,  
 S. Lehtola,  D. S. Levine,  Yi-Pei Li,  You-Sheng Lin,  Fenglai Liu,  
 E. Livshits,  A. Luenser,  P. Manohar,  E. Mansoor,  S. F. Manzer,  
 Shan-Ping Mao,  Yuezhi Mao,  N. Mardirossian,  A. V. Marenich,  
 T. Markovich,  L. A. Martinez-Martinez,  S. A. Maurer,  N. J. Mayhall,  
 S. C. McKenzie,  J.-M. Mewes,  P. Morgante,  A. F. Morrison,  
 J. W. Mullinax,  K. Nanda,  T. S. Nguyen-Beck,  R. Olivares-Amaya,  
 J. A. Parkhill,  Zheng Pei,  T. M. Perrine,  F. Plasser,  P. Pokhilko,  
 S. Prager,  A. Prociuk,  E. Ramos,  D. R. Rehn,  F. Rob,  M. Scheurer,  
 M. Schneider,  N. Sergueev,  S. M. Sharada,  S. Sharma,  D. W. Small,  
 T. Stauch,  T. Stein,  Yu-Chuan Su,  A. J. W. Thom,  A. Tkatchenko,  
 T. Tsuchimochi,  N. M. Tubman,  L. Vogt,  M. L. Vidal,  O. Vydrov,  
 M. A. Watson,  J. Wenzel,  M. de Wergifosse,  T. A. Wesolowski,  A. White,  
 J. Witte,  A. Yamada,  Jun Yang,  K. Yao,  S. Yeganeh,  S. R. Yost,  
 Zhi-Qiang You,  A. Zech,  Igor Ying Zhang,  Xing Zhang,  Yan Zhao,  
 Ying Zhu,  B. R. Brooks,  G. K. L. Chan,  C. J. Cramer,  M. S. Gordon,  
 W. J. Hehre,  A. Klamt,  M. W. Schmidt,  C. D. Sherrill,  D. G. Truhlar,  
 A. Aspuru-Guzik,  R. Baer,  A. T. Bell,  N. A. Besley,  Jeng-Da Chai,  
 A. E. DePrince, III,  R. A. DiStasio Jr.,  A. Dreuw,  B. D. Dunietz,  
 T. R. Furlani,  Chao-Ping Hsu,  Yousung Jung,  Jing Kong,  D. S. Lambrecht,  
 WanZhen Liang,  C. Ochsenfeld,  V. A. Rassolov,  L. V. Slipchenko,  
 J. E. Subotnik,  T. Van Voorhis,  J. M. Herbert,  A. I. Krylov,  
 P. M. W. Gill,  M. Head-Gordon

 Contributors to earlier versions of Q-Chem not listed above: 
 R. D. Adamson,  B. Austin,  J. Baker,  G. J. O. Beran,  K. Brandhorst,  
 S. T. Brown,  E. F. C. Byrd,  A. K. Chakraborty,  C.-L. Cheng,  
 Siu Hung Chien,  D. M. Chipman,  D. L. Crittenden,  H. Dachsel,  
 R. J. Doerksen,  A. D. Dutoi,  L. Fusti-Molnar,  W. A. Goddard III,  
 A. Golubeva-Zadorozhnaya,  S. R. Gwaltney,  G. Hawkins,  A. Heyden,  
 S. Hirata,  G. Kedziora,  F. J. Keil,  C. Kelley,  Jihan Kim,  R. A. King,  
 R. Z. Khaliullin,  P. P. Korambath,  W. Kurlancheek,  A. M. Lee,  M. S. Lee,  
 S. V. Levchenko,  Ching Yeh Lin,  D. Liotard,  R. C. Lochan,  I. Lotan,  
 P. E. Maslen,  N. Nair,  D. P. O'Neill,  D. Neuhauser,  E. Neuscamman,  
 C. M. Oana,  R. Olson,  B. Peters,  R. Peverati,  P. A. Pieniazek,  
 Y. M. Rhee,  J. Ritchie,  M. A. Rohrdanz,  E. Rosta,  N. J. Russ,  
 H. F. Schaefer III,  N. E. Schultz,  N. Shenvi,  A. C. Simmonett,  A. Sodt,  
 D. Stuck,  K. S. Thanthiriwatte,  V. Vanovschi,  Tao Wang,  A. Warshel,  
 C. F. Williams,  Q. Wu,  X. Xu,  W. Zhang

 Please cite Q-Chem as follows:
 Y. Shao et al., Mol. Phys. 113, 184-215 (2015)
 DOI: 10.1080/00268976.2014.952696

 Q-Chem 5.2.0 for Intel X86 EM64T Linux

 Parts of Q-Chem use Armadillo 8.300.2 (Tropical Shenanigans).
 http://arma.sourceforge.net/

 Q-Chem begins on Sun Sep 26 08:21:03 2021  

Host: cori01
0

     Scratch files written to /tmp/qchem32273//Frg1//
 May1019 |scratch|qcdevops|jenkins|workspace|build_RNUM -1
Processing $rem in /global/common/cori/software/qchem/5.2/config/preferences:
	 MEM_TOTAL  96000 
NAlpha2: 50
NElect   50
Mult     1
Symmetry turned off for PCM/SM12/SMD calculation

Checking the input file for inconsistencies... 	...done.

--------------------------------------------------------------
User input:
--------------------------------------------------------------
$molecule
0 1
 6	-5.1467453533	0.8934946194	1.2185226350
 6	-1.5207453533	0.2164946194	0.3355226350
 6	-0.9127453533	0.2854946194	1.5815226350
 6	-2.8907453533	0.4124946194	0.2215226350
 6	-3.6647453533	0.6714946194	1.3485226350
 6	-1.6797453533	0.5464946194	2.7115226350
 6	-3.0497453533	0.7424946194	2.5935226350
 1	-0.9277453533	0.0174946194	-0.5474773650
 1	0.1552546467	0.1414946194	1.6705226350
 1	-3.3537453533	0.3584946194	-0.7534773650
 1	-1.2117453533	0.5924946194	3.6845226350
 1	-5.6477453533	0.4614946194	2.0855226350
 1	-5.4977453533	0.3594946194	0.3415226350
 1	-3.6407453533	0.9464946194	3.4755226350
 1	-5.4253053533	1.9539046194	1.1294926350
$end
$rem
EDA2		1
METHOD		WB97X-V
BASIS		DEF2-TZVPD
XC_GRID		000099000590
NL_GRID		1
UNRESTRICTED		FALSE
MAX_SCF_CYCLES		200
SYMMETRY		FALSE
SYM_IGNORE		TRUE
BASIS_LIN_DEP_THRESH		6
THRESH		14
SCF_CONVERGENCE		8
SCF_PRINT_FRGM		TRUE
SOLVENT_METHOD		PCM
!required keywords
JOBTYPE		SP
SYM_IGNORE		TRUE
SUBSYSTEM		TRUE
GEN_SCFMAN		TRUE
CHILD_INSTRUCTION		2
SYM_IGNORE		TRUE
SCFMI		0
RI_K 0		
PARI_K 0		
MIN_PARI_K 0		
IARI_K 0		
OCC_RI_K 0		
PURECART		1111
MEM_STATIC		2000
MEM_TOTAL		96000
GUI		0
CHILD_MP		1
CHILD_MP_ORDERS		232
FRZ_RELAX		0
FRZ_RELAX_METHOD		0
EDA_CLS_ELEC		1
EDA_CLS_DISP		0
FRZ_ORTHO_DECOMP		1
EDA2		FALSE
FRGM_METHOD		FALSE
CIS_N_ROOTS  0
LOCAL_CIS    0
CIS_RLX_DNS  1
$end
$pcm
THEORY                  CPCM
METHOD                  SWIG
SOLVER                  INVERSION
RADII                   UFF
HPOINTS                 302
HEAVYPOINTS             302
PRINTLEVEL              0
$end
$solvent
DIELECTRIC              78.390000 ! water
$end
--------------------------------------------------------------
 ----------------------------------------------------------------
             Standard Nuclear Orientation (Angstroms)
    I     Atom           X                Y                Z
 ----------------------------------------------------------------
    1      C      -5.1467453533     0.8934946194     1.2185226350
    2      C      -1.5207453533     0.2164946194     0.3355226350
    3      C      -0.9127453533     0.2854946194     1.5815226350
    4      C      -2.8907453533     0.4124946194     0.2215226350
    5      C      -3.6647453533     0.6714946194     1.3485226350
    6      C      -1.6797453533     0.5464946194     2.7115226350
    7      C      -3.0497453533     0.7424946194     2.5935226350
    8      H      -0.9277453533     0.0174946194    -0.5474773650
    9      H       0.1552546467     0.1414946194     1.6705226350
   10      H      -3.3537453533     0.3584946194    -0.7534773650
   11      H      -1.2117453533     0.5924946194     3.6845226350
   12      H      -5.6477453533     0.4614946194     2.0855226350
   13      H      -5.4977453533     0.3594946194     0.3415226350
   14      H      -3.6407453533     0.9464946194     3.4755226350
   15      H      -5.4253053533     1.9539046194     1.1294926350
 ----------------------------------------------------------------
 Nuclear Repulsion Energy =         270.31641792 hartrees
 There are       25 alpha and       25 beta electrons
 Requested basis set is def2-TZVPD
 There are 131 shells and 331 basis functions

 Total QAlloc Memory Limit  96000 MB
 Mega-Array Size      1956 MB
 MEM_STATIC part      2000 MB
 Discretize the solute cavity surface with Lebedev spheres
	Using 302 Lebedev grid points for each H atom
	Using 302 Lebedev grid points for other atoms
	Atomic van der Waals radii will be scaled by 1.20
 Remove points where switching function is < 1.0e-08
 Keep 1815 surface tesserae and discard 2715 interior tesserae
 Molecular Surface Area = 177.758 Angst**2

                       Distance Matrix (Angstroms)
             C (  1)   C (  2)   C (  3)   C (  4)   C (  5)   C (  6)
   C (  2)  3.792874
   C (  3)  4.292807  1.388143
   C (  4)  2.512948  1.388637  2.403791
   C (  5)  1.504164  2.414525  2.788689  1.391505
   C (  6)  3.790719  2.404071  1.390435  2.772107  2.411145
   C (  7)  2.512138  2.777243  2.408270  2.400118  1.390428  1.388971
   H (  8)  4.656833  1.082099  2.145854  2.144937  3.393184  3.386211
   H (  9)  5.374106  2.144021  1.081333  3.383956  3.870011  2.148239
   H ( 10)  2.718429  2.136814  3.378762  1.080699  2.147811  3.852771
   H ( 11)  4.653599  3.384178  2.146220  3.852767  3.388266  1.080680
   H ( 12)  1.090557  4.489394  4.764999  3.328355  2.125925  4.017975
   H ( 13)  1.085120  3.979575  4.750295  2.610298  2.114541  4.497665
   H ( 14)  2.713834  3.858355  3.386169  3.381741  2.144838  2.142246
   H ( 15)  1.099996  4.346789  4.832300  3.102313  2.189091  4.302655
             C (  7)   H (  8)   H (  9)   H ( 10)   H ( 11)   H ( 12)
   H (  8)  3.859325
   H (  9)  3.388976  2.471394
   H ( 10)  3.382644  2.458494  4.270357
   H ( 11)  2.142668  4.280316  2.475538  4.933433
   H ( 12)  2.662072  5.422935  5.826614  3.651433  4.717209
   H ( 13)  3.348268  4.668210  5.811211  2.407439  5.440564  1.753408
   H ( 14)  1.081120  4.940439  4.279681  4.279317  2.463542  2.489051
   H ( 15)  3.042069  5.175902  5.892384  3.222153  5.112309  1.786270
             H ( 13)   H ( 14)
   H ( 14)  3.689847
   H ( 15)  1.779968  3.115026
 
 A cutoff of  1.0D-14 yielded   8360 shell pairs
 There are     54502 function pairs (     69456 Cartesian)
 Smallest overlap matrix eigenvalue = 5.41E-07
 Linear dependence detected in AO basis
 Tighter screening thresholds may be required for diffuse basis sets
 Use S2THRESH > 14 and THRESH = 14 in case of SCF convergence issues
 Number of orthogonalized atomic orbitals = 330
 Maximum deviation from orthogonality = 2.040E-10

 Scale SEOQF with 1.000000e-02/1.000000e-01/1.000000e-01

 Standard Electronic Orientation quadrupole field applied
 Nucleus-field energy     =    -0.0000000134 hartrees
 Guess from superposition of atomic densities
 Warning:  Energy on first SCF cycle will be non-variational
 SAD guess density has 49.913408 electrons

 -----------------------------------------------------------------------
  General SCF calculation program by
  Eric Jon Sundstrom, Paul Horn, Yuezhi Mao, Dmitri Zuev, Alec White,
  David Stuck, Shaama M.S., Shane Yost, Joonho Lee, David Small,
  Daniel Levine, Susi Lehtola, Hugh Burton, Evgeny Epifanovsky
 -----------------------------------------------------------------------
 Exchange:     0.1670 Hartree-Fock + 1.0000 wB97X-V + LR-HF
 Correlation:  1.0000 wB97X-V
 Using Euler-Maclaurin-Lebedev (99,590) quadrature formula
 Nonlocal Correlation:  VV10 with C = 0.0100 and b = 6.00 and scale = 1.00000
 Grid used for NLC:  SG-1 standard quadrature
Energy prior to optimization (guess energy) = -271.519451317003
Begin Timing: Total SCF Calculation
begin iterations for algorithm: DIIS         
the SCF tolerance is set to 1.00e-08
    1    -271.5194513170      1.98e-03     00000 
    2    -271.5588633963      1.27e-03     00000 
    3    -271.5813691439      1.39e-04     00000 
    4    -271.5817831867      4.95e-05     00000 
    5    -271.5818188260      1.66e-05     00000 
    6    -271.5818235294      4.31e-06     00000 
    7    -271.5818238794      1.97e-06     00000 
    8    -271.5818239458      3.37e-07     00000 
    9    -271.5818239489      6.34e-08     00000 
   10    -271.5818239490      3.26e-08     00000 
   11    -271.5818239490      7.54e-09     00000 Convergence criterion met
Timing for Total SCF: 1252.00s (wall), 2463.42s (cpu)

************** Final PCM Free Energy Summary **************
 G_electrostatic  =      -0.00244456 hartree =      -1.53398735 kcal/mol
 G_cavitation     =       0.00000000 hartree =       0.00000000 kcal/mol
 G_dispersion     =       0.00000000 hartree =       0.00000000 kcal/mol
 G_repulsion      =       0.00000000 hartree =       0.00000000 kcal/mol
 --------------------------------------------------
 Non-electrostatic Free Energy =       0.00000000 hartree =       0.00000000 kcal/mol
 Total                         =      -0.00244456 hartree =      -1.53398735 kcal/mol
 --------------------------------------------------
 SCF Energy (H0 + V/2)                       =    -271.58182395 
 Solute Internal Energy (H0)                 =    -271.57937938 
 Total Free Energy (H0 + V/2 + non-elec)     =    -271.58182395 hartree
                                             = -170420.16667947 kcal/mol
***********************************************************

E_pcm = -0.0024445645
Multipole orders to be included
        2
        3
computing dipole RHS
computing quadrupole RHS
total number of RHS in solve_reponses: 8
RHS batch sizes
        8
Beginning Block Conjugate Gradient Iterations. Batch Number: 0
computing hessian-vector products by finite difference
              1      5.83e-01     00000 Conjugate Gradient Iteration
computing hessian-vector products by finite difference
              2      1.94e-01     00000 Conjugate Gradient Iteration
computing hessian-vector products by finite difference
              3      4.47e-02     00000 Conjugate Gradient Iteration
computing hessian-vector products by finite difference
              4      1.07e-02     00000 Conjugate Gradient Iteration
computing hessian-vector products by finite difference
              5      2.53e-03     00000 Conjugate Gradient Iteration
computing hessian-vector products by finite difference
              6      6.44e-04     00000 Conjugate Gradient Iteration
computing hessian-vector products by finite difference
              7      2.07e-04     00000 Conjugate Gradient Iteration
computing hessian-vector products by finite difference
              8      3.20e-05     00000 Conjugate Gradient Iteration
computing hessian-vector products by finite difference
              9      3.71e-06     00000 Conjugate Gradient Iteration
computing hessian-vector products by finite difference
             10      7.98e-07     00000 Conjugate Gradient Iteration
computing hessian-vector products by finite difference
             11      1.70e-07     00000 Conjugate Gradient Iteration
computing hessian-vector products by finite difference
             12      2.29e-08     00000 Conjugate Gradient Iteration
computing hessian-vector products by finite difference
             13      3.90e-09     00000 CG Converged
batch 0 complete
Done Calculating Responses
TESTING ORTHOGONALIZATION OF MULTIPOLE BASIS
Multipole virts passed orthogonality test
Virts Per Order
           75
          125
 
 --------------------------------------------------------------
 
                    Orbital Energies (a.u.)
 --------------------------------------------------------------
 
 Alpha MOs
 -- Occupied --
-10.2810 -10.2727 -10.2725 -10.2699 -10.2689 -10.2689 -10.2617  -0.9989
 -0.9079  -0.8803  -0.8139  -0.7310  -0.7067  -0.6309  -0.5750  -0.5669
 -0.5366  -0.5310  -0.5143  -0.4885  -0.4744  -0.4418  -0.4411  -0.3501
 -0.3386
 -- Virtual --
  0.0633   0.0639   0.0680   0.0790   0.0845   0.1044   0.1104   0.1136
  0.1355   0.1528   0.1657   0.1674   0.1868   0.1893   0.1946   0.2006
  0.2220   0.2246   0.2335   0.2400   0.2495   0.2579   0.2604   0.2697
  0.2802   0.2807   0.2827   0.2924   0.2930   0.3011   0.3042   0.3102
  0.3210   0.3241   0.3322   0.3345   0.3504   0.3531   0.3655   0.3724
  0.3787   0.3822   0.3830   0.3882   0.3896   0.4013   0.4035   0.4080
  0.4100   0.4279   0.4292   0.4359   0.4416   0.4488   0.4510   0.4520
  0.4625   0.4688   0.4739   0.4810   0.4930   0.4959   0.5122   0.5158
  0.5177   0.5251   0.5337   0.5379   0.5410   0.5469   0.5492   0.5661
  0.5842   0.5880   0.5967   0.5986   0.6005   0.6217   0.6409   0.6432
  0.6604   0.6736   0.6842   0.6855   0.6885   0.6964   0.7217   0.7233
  0.7294   0.7311   0.7437   0.7594   0.7642   0.7650   0.7775   0.7858
  0.7901   0.7945   0.7973   0.8024   0.8077   0.8219   0.8255   0.8323
  0.8344   0.8352   0.8420   0.8512   0.8590   0.8746   0.8883   0.8944
  0.9093   0.9158   0.9338   0.9477   0.9516   1.0107   1.0216   1.0407
  1.0454   1.0606   1.0736   1.0788   1.0894   1.0911   1.1031   1.1428
  1.1652   1.1797   1.2500   1.2757   1.2953   1.3189   1.3489   1.3498
  1.3797   1.4355   1.4514   1.4591   1.4648   1.4858   1.5254   1.5391
  1.5996   1.6028   1.6199   1.6229   1.6656   1.6790   1.7364   1.7791
  1.7917   1.7983   1.8048   1.8161   1.8297   1.8687   1.8848   1.9104
  1.9178   1.9267   1.9502   1.9588   1.9820   1.9961   2.0116   2.0247
  2.0308   2.0455   2.0694   2.0936   2.1133   2.1223   2.1708   2.1763
  2.1945   2.2333   2.2408   2.2671   2.2865   2.3126   2.3946   2.4019
  2.4077   2.4090   2.4837   2.5067   2.5376   2.5538   2.5655   2.6075
  2.6167   2.6250   2.6676   2.6717   2.6966   2.7111   2.7572   2.7706
  2.7898   2.8132   2.8206   2.8480   2.8630   2.9019   2.9088   2.9154
  2.9398   2.9423   2.9611   2.9753   2.9909   3.0149   3.0190   3.0505
  3.0620   3.0881   3.0995   3.1321   3.1811   3.1894   3.2019   3.2232
  3.2292   3.2383   3.2895   3.3064   3.3315   3.3557   3.3652   3.3792
  3.4001   3.4458   3.4469   3.4511   3.4604   3.4752   3.4914   3.5011
  3.5088   3.5279   3.5412   3.5436   3.5638   3.5736   3.5897   3.6062
  3.6182   3.6367   3.6554   3.6923   3.7099   3.7544   3.7821   3.8156
  3.8402   3.8905   3.9106   3.9613   3.9633   3.9950   4.0381   4.0571
  4.1167   4.1998   4.2690   4.2813   4.2982   4.3202   4.3269   4.3320
  4.3558   4.3762   4.3930   4.4043   4.4394   4.4503   4.4806   4.5325
  4.5997   4.6352   4.7609   4.7652   4.8347   4.8942   4.9046   4.9475
  5.0290   5.0512   5.1690   5.2679   5.3779   5.3897   5.5069   5.5330
  5.6772   5.8512  22.5739  22.6718  22.8951  22.9063  23.0239  23.0868
 23.4341
 --------------------------------------------------------------
 
          Ground-State Mulliken Net Atomic Charges

     Atom                 Charge (a.u.)
  ----------------------------------------
      1 C                    -1.044051
      2 C                    -0.510273
      3 C                    -0.477813
      4 C                    -0.369761
      5 C                     0.891856
      6 C                    -0.488787
      7 C                    -0.357101
      8 H                     0.309068
      9 H                     0.331007
     10 H                     0.313712
     11 H                     0.312455
     12 H                     0.269812
     13 H                     0.278283
     14 H                     0.328613
     15 H                     0.212981
  ----------------------------------------
  Sum of atomic charges =     0.000000

 -----------------------------------------------------------------
                    Cartesian Multipole Moments
 -----------------------------------------------------------------
    Charge (ESU x 10^10)
                -0.0000
    Dipole Moment (Debye)
         X      -0.4661      Y       0.0888      Z      -0.0398
       Tot       0.4761
    Quadrupole Moments (Debye-Ang)
        XX     -35.7623     XY      -1.7357     YY     -45.8392
        XZ      -0.4433     YZ       1.0678     ZZ     -38.5103
    Octopole Moments (Debye-Ang^2)
       XXX     312.5865    XXY     -13.6242    XYY     121.7580
       YYY     -73.1089    XXZ     -51.4172    XYZ      -4.4203
       YYZ     -64.8298    XZZ     107.1546    YZZ     -18.8612
       ZZZ    -163.8411
    Hexadecapole Moments (Debye-Ang^3)
      XXXX   -2368.3529   XXXY     187.8780   XXYY    -453.9674
      XYYY     235.2422   YYYY    -155.1110   XXXZ     429.1610
      XXYZ     -18.5319   XYYZ     167.3395   YYYZ    -120.3146
      XXZZ    -516.9783   XYZZ      64.3814   YYZZ    -174.0750
      XZZZ     443.6485   YZZZ     -94.0482   ZZZZ    -748.3502
 -----------------------------------------------------------------
Archival summary:
1\1\nid00507\SP\ProcedureUnspecified\BasisUnspecified\78\meili\SunSep2616:04:122021SunSep2616:04:122021\0\\#,ProcedureUnspecified,BasisUnspecified,\\0,1\C\C,1,1.39043\H,2,1.08112,1,119.89\C,2,1.38897,1,120.34,3,179.702,0\H,4,1.08068,2,119.843,1,-179.315,0\C,4,1.39044,2,120.102,1,0.385238,0\H,6,1.08133,4,120.194,2,179.449,0\C,6,1.38814,4,119.815,2,-0.234336,0\H,8,1.0821,6,120.104,4,179.76,0\C,8,1.38864,6,119.92,4,0.209901,0\H,10,1.0807,8,119.32,6,179.883,0\C,1,1.50416,2,120.374,3,0.743232,0\H,12,1.08512,1,108.416,2,-153.434,0\H,12,1.09056,1,108.993,2,-36.8258,0\H,12,1.1,1,113.502,2,85.1868,0\\\@

 Total job time:  27791.63s(wall), 54914.90s(cpu) 
 Sun Sep 26 16:04:14 2021

        *************************************************************
        *                                                           *
        *  Thank you very much for using Q-Chem.  Have a nice day.  *
        *                                                           *
        *************************************************************


Done Job For Fragment 0
calling putenv with: QCSCRATCH=/global/cscratch1/sd/meili 
calling putenv with: QCLOCALSCR=/tmp 
calling putenv with: QCTHREADS=32 
Creating input file /tmp/qchem32273/Frg2.input
using default PutDataFrgm: nothing
calling putenv with: QCSCRATCH=/tmp/qchem32273/ 
calling putenv with: QCLOCALSCR=/tmp/qchem32273/ 
Spawning Job For Fragment 1
                  Welcome to Q-Chem
     A Quantum Leap Into The Future Of Chemistry


 Q-Chem 5.2, Q-Chem, Inc., Pleasanton, CA (2019)

 License issued to: National Energy Research Scientific Computing Center

 Yihan Shao,  Zhengting Gan,  E. Epifanovsky,  A. T. B. Gilbert,  M. Wormit,  
 J. Kussmann,  A. W. Lange,  A. Behn,  Jia Deng,  Xintian Feng,  D. Ghosh,  
 M. Goldey,  P. R. Horn,  L. D. Jacobson,  I. Kaliman,  T. Kus,  A. Landau,  
 Jie Liu,  E. I. Proynov,  R. M. Richard,  R. P. Steele,  E. J. Sundstrom,  
 H. L. Woodcock III,  P. M. Zimmerman,  D. Zuev,  B. Albrecht,  E. Alguire,  
 S. A. Baeppler,  D. Barton,  Z. Benda,  Y. A. Bernard,  E. J. Berquist,  
 K. B. Bravaya,  H. Burton,  D. Casanova,  Chun-Min Chang,  Yunqing Chen,  
 A. Chien,  K. D. Closser,  M. P. Coons,  S. Coriani,  S. Dasgupta,  
 A. L. Dempwolff,  M. Diedenhofen,  Hainam Do,  R. G. Edgar,  Po-Tung Fang,  
 S. Faraji,  S. Fatehi,  Qingguo Feng,  K. D. Fenk,  J. Fosso-Tande,  
 J. Gayvert,  Qinghui Ge,  A. Ghysels,  G. Gidofalvi,  J. Gomes,  
 J. Gonthier,  A. Gunina,  D. Hait,  M. W. D. Hanson-Heine,  
 P. H. P. Harbach,  A. W. Hauser,  M. F. Herbst,  J. E. Herr,  
 E. G. Hohenstein,  Z. C. Holden,  Kerwin Hui,  B. C. Huynh,  T.-C. Jagau,  
 Hyunjun Ji,  B. Kaduk,  K. Khistyaev,  Jaehoon Kim,  P. Klunzinger,  K. Koh,  
 D. Kosenkov,  L. Koulias,  T. Kowalczyk,  C. M. Krauter,  A. Kunitsa,  
 Ka Un Lao,  A. Laurent,  K. V. Lawler,  Joonho Lee,  D. Lefrancois,  
 S. Lehtola,  D. S. Levine,  Yi-Pei Li,  You-Sheng Lin,  Fenglai Liu,  
 E. Livshits,  A. Luenser,  P. Manohar,  E. Mansoor,  S. F. Manzer,  
 Shan-Ping Mao,  Yuezhi Mao,  N. Mardirossian,  A. V. Marenich,  
 T. Markovich,  L. A. Martinez-Martinez,  S. A. Maurer,  N. J. Mayhall,  
 S. C. McKenzie,  J.-M. Mewes,  P. Morgante,  A. F. Morrison,  
 J. W. Mullinax,  K. Nanda,  T. S. Nguyen-Beck,  R. Olivares-Amaya,  
 J. A. Parkhill,  Zheng Pei,  T. M. Perrine,  F. Plasser,  P. Pokhilko,  
 S. Prager,  A. Prociuk,  E. Ramos,  D. R. Rehn,  F. Rob,  M. Scheurer,  
 M. Schneider,  N. Sergueev,  S. M. Sharada,  S. Sharma,  D. W. Small,  
 T. Stauch,  T. Stein,  Yu-Chuan Su,  A. J. W. Thom,  A. Tkatchenko,  
 T. Tsuchimochi,  N. M. Tubman,  L. Vogt,  M. L. Vidal,  O. Vydrov,  
 M. A. Watson,  J. Wenzel,  M. de Wergifosse,  T. A. Wesolowski,  A. White,  
 J. Witte,  A. Yamada,  Jun Yang,  K. Yao,  S. Yeganeh,  S. R. Yost,  
 Zhi-Qiang You,  A. Zech,  Igor Ying Zhang,  Xing Zhang,  Yan Zhao,  
 Ying Zhu,  B. R. Brooks,  G. K. L. Chan,  C. J. Cramer,  M. S. Gordon,  
 W. J. Hehre,  A. Klamt,  M. W. Schmidt,  C. D. Sherrill,  D. G. Truhlar,  
 A. Aspuru-Guzik,  R. Baer,  A. T. Bell,  N. A. Besley,  Jeng-Da Chai,  
 A. E. DePrince, III,  R. A. DiStasio Jr.,  A. Dreuw,  B. D. Dunietz,  
 T. R. Furlani,  Chao-Ping Hsu,  Yousung Jung,  Jing Kong,  D. S. Lambrecht,  
 WanZhen Liang,  C. Ochsenfeld,  V. A. Rassolov,  L. V. Slipchenko,  
 J. E. Subotnik,  T. Van Voorhis,  J. M. Herbert,  A. I. Krylov,  
 P. M. W. Gill,  M. Head-Gordon

 Contributors to earlier versions of Q-Chem not listed above: 
 R. D. Adamson,  B. Austin,  J. Baker,  G. J. O. Beran,  K. Brandhorst,  
 S. T. Brown,  E. F. C. Byrd,  A. K. Chakraborty,  C.-L. Cheng,  
 Siu Hung Chien,  D. M. Chipman,  D. L. Crittenden,  H. Dachsel,  
 R. J. Doerksen,  A. D. Dutoi,  L. Fusti-Molnar,  W. A. Goddard III,  
 A. Golubeva-Zadorozhnaya,  S. R. Gwaltney,  G. Hawkins,  A. Heyden,  
 S. Hirata,  G. Kedziora,  F. J. Keil,  C. Kelley,  Jihan Kim,  R. A. King,  
 R. Z. Khaliullin,  P. P. Korambath,  W. Kurlancheek,  A. M. Lee,  M. S. Lee,  
 S. V. Levchenko,  Ching Yeh Lin,  D. Liotard,  R. C. Lochan,  I. Lotan,  
 P. E. Maslen,  N. Nair,  D. P. O'Neill,  D. Neuhauser,  E. Neuscamman,  
 C. M. Oana,  R. Olson,  B. Peters,  R. Peverati,  P. A. Pieniazek,  
 Y. M. Rhee,  J. Ritchie,  M. A. Rohrdanz,  E. Rosta,  N. J. Russ,  
 H. F. Schaefer III,  N. E. Schultz,  N. Shenvi,  A. C. Simmonett,  A. Sodt,  
 D. Stuck,  K. S. Thanthiriwatte,  V. Vanovschi,  Tao Wang,  A. Warshel,  
 C. F. Williams,  Q. Wu,  X. Xu,  W. Zhang

 Please cite Q-Chem as follows:
 Y. Shao et al., Mol. Phys. 113, 184-215 (2015)
 DOI: 10.1080/00268976.2014.952696

 Q-Chem 5.2.0 for Intel X86 EM64T Linux

 Parts of Q-Chem use Armadillo 8.300.2 (Tropical Shenanigans).
 http://arma.sourceforge.net/

 Q-Chem begins on Sun Sep 26 16:04:18 2021  

Host: cori01
0

     Scratch files written to /tmp/qchem32273//Frg2//
 May1019 |scratch|qcdevops|jenkins|workspace|build_RNUM -1
Processing $rem in /global/common/cori/software/qchem/5.2/config/preferences:
	 MEM_TOTAL  96000 
NAlpha2: 50
NElect   50
Mult     1
Symmetry turned off for PCM/SM12/SMD calculation

Checking the input file for inconsistencies... 	...done.

--------------------------------------------------------------
User input:
--------------------------------------------------------------
$molecule
0 1
 6	2.8902546467	0.2294946194	-3.7404773650
 6	1.6242546467	-1.4515053806	-0.5804773650
 6	2.6252546467	-1.1295053806	0.3265226350
 6	1.7112546467	-1.0125053806	-1.8974773650
 6	2.7962546467	-0.2515053806	-2.3174773650
 6	3.7112546467	-0.3685053806	-0.0834773650
 6	3.7952546467	0.0694946194	-1.4004773650
 1	0.7732546467	-2.0355053806	-0.2584773650
 1	2.5602546467	-1.4705053806	1.3515226350
 1	0.9242546467	-1.2665053806	-2.5924773650
 1	4.4942546467	-0.1245053806	0.6175226350
 1	3.1432546467	1.2904946194	-3.7094773650
 1	1.9202546467	0.1404946194	-4.2324773650
 1	4.6412546467	0.6674946194	-1.7094773650
 1	3.6568456467	-0.2935353806	-4.3310473650
$end
$rem
EDA2		1
METHOD		WB97X-V
BASIS		DEF2-TZVPD
XC_GRID		000099000590
NL_GRID		1
UNRESTRICTED		FALSE
MAX_SCF_CYCLES		200
SYMMETRY		FALSE
SYM_IGNORE		TRUE
BASIS_LIN_DEP_THRESH		6
THRESH		14
SCF_CONVERGENCE		8
SCF_PRINT_FRGM		TRUE
SOLVENT_METHOD		PCM
!required keywords
JOBTYPE		SP
SYM_IGNORE		TRUE
SUBSYSTEM		TRUE
GEN_SCFMAN		TRUE
CHILD_INSTRUCTION		2
SYM_IGNORE		TRUE
SCFMI		0
RI_K 0		
PARI_K 0		
MIN_PARI_K 0		
IARI_K 0		
OCC_RI_K 0		
PURECART		1111
MEM_STATIC		2000
MEM_TOTAL		96000
GUI		0
CHILD_MP		1
CHILD_MP_ORDERS		232
FRZ_RELAX		0
FRZ_RELAX_METHOD		0
EDA_CLS_ELEC		1
EDA_CLS_DISP		0
FRZ_ORTHO_DECOMP		1
EDA2		FALSE
FRGM_METHOD		FALSE
CIS_N_ROOTS  0
LOCAL_CIS    0
CIS_RLX_DNS  1
$end
$pcm
THEORY                  CPCM
METHOD                  SWIG
SOLVER                  INVERSION
RADII                   UFF
HPOINTS                 302
HEAVYPOINTS             302
PRINTLEVEL              0
$end
$solvent
DIELECTRIC              78.390000 ! water
$end
--------------------------------------------------------------
 ----------------------------------------------------------------
             Standard Nuclear Orientation (Angstroms)
    I     Atom           X                Y                Z
 ----------------------------------------------------------------
    1      C       2.8902546467     0.2294946194    -3.7404773650
    2      C       1.6242546467    -1.4515053806    -0.5804773650
    3      C       2.6252546467    -1.1295053806     0.3265226350
    4      C       1.7112546467    -1.0125053806    -1.8974773650
    5      C       2.7962546467    -0.2515053806    -2.3174773650
    6      C       3.7112546467    -0.3685053806    -0.0834773650
    7      C       3.7952546467     0.0694946194    -1.4004773650
    8      H       0.7732546467    -2.0355053806    -0.2584773650
    9      H       2.5602546467    -1.4705053806     1.3515226350
   10      H       0.9242546467    -1.2665053806    -2.5924773650
   11      H       4.4942546467    -0.1245053806     0.6175226350
   12      H       3.1432546467     1.2904946194    -3.7094773650
   13      H       1.9202546467     0.1404946194    -4.2324773650
   14      H       4.6412546467     0.6674946194    -1.7094773650
   15      H       3.6568456467    -0.2935353806    -4.3310473650
 ----------------------------------------------------------------
 Nuclear Repulsion Energy =         270.16803937 hartrees
 There are       25 alpha and       25 beta electrons
 Requested basis set is def2-TZVPD
 There are 131 shells and 331 basis functions

 Total QAlloc Memory Limit  96000 MB
 Mega-Array Size      1956 MB
 MEM_STATIC part      2000 MB
 Discretize the solute cavity surface with Lebedev spheres
	Using 302 Lebedev grid points for each H atom
	Using 302 Lebedev grid points for other atoms
	Atomic van der Waals radii will be scaled by 1.20
 Remove points where switching function is < 1.0e-08
 Keep 1815 surface tesserae and discard 2715 interior tesserae
 Molecular Surface Area = 178.113 Angst**2

                       Distance Matrix (Angstroms)
             C (  1)   C (  2)   C (  3)   C (  4)   C (  5)   C (  6)
   C (  2)  3.796593
   C (  3)  4.296230  1.388645
   C (  4)  2.515801  1.390963  2.407335
   C (  5)  1.505034  2.414695  2.791211  1.390232
   C (  6)  3.795431  2.403220  1.388026  2.775848  2.416955
   C (  7)  2.514006  2.774722  2.406040  2.400164  1.393532  1.390464
   H (  8)  4.662214  1.081176  2.143120  2.147718  3.393327  3.382508
   H (  9)  5.378416  2.146877  1.082188  3.389184  3.873399  2.144395
   H ( 10)  2.724165  2.138310  3.381232  1.080236  2.147146  3.856015
   H ( 11)  4.657284  3.381277  2.141931  3.854719  3.393163  1.078900
   H ( 12)  1.091188  4.429059  4.734345  3.261561  2.106143  4.027751
   H ( 13)  1.091277  3.994895  4.784810  2.612530  2.142024  4.547633
   H ( 14)  2.717132  3.855787  3.382124  3.382698  2.149011  2.140577
   H ( 15)  1.099998  4.420305  4.843138  3.197578  2.190171  4.248580
             C (  7)   H (  8)   H (  9)   H ( 10)   H ( 11)   H ( 12)
   H (  8)  3.855862
   H (  9)  3.386787  2.470768
   H ( 10)  3.383549  2.462056  4.274722
   H ( 11)  2.144426  4.273773  2.467960  4.934893
   H ( 12)  2.692104  5.346829  5.794543  3.565095  4.748721
   H ( 13)  3.397189  4.673677  5.846878  2.379341  5.497108  1.758340
   H ( 14)  1.081111  4.936905  4.274497  4.282071  2.462479  2.575293
   H ( 15)  2.956212  5.285393  5.905876  3.381767  5.021770  1.777435
             H ( 13)   H ( 14)
   H ( 14)  3.747946
   H ( 15)  1.792720  2.960620
 
 A cutoff of  1.0D-14 yielded   8364 shell pairs
 There are     54516 function pairs (     69470 Cartesian)
 Smallest overlap matrix eigenvalue = 5.42E-07
 Linear dependence detected in AO basis
 Tighter screening thresholds may be required for diffuse basis sets
 Use S2THRESH > 14 and THRESH = 14 in case of SCF convergence issues
 Number of orthogonalized atomic orbitals = 330
 Maximum deviation from orthogonality = 2.045E-10

 Scale SEOQF with 1.000000e-01/1.000000e-01/1.000000e-01

 Standard Electronic Orientation quadrupole field applied
 Nucleus-field energy     =    -0.0000000054 hartrees
 Guess from superposition of atomic densities
 Warning:  Energy on first SCF cycle will be non-variational
 SAD guess density has 49.913408 electrons

 -----------------------------------------------------------------------
  General SCF calculation program by
  Eric Jon Sundstrom, Paul Horn, Yuezhi Mao, Dmitri Zuev, Alec White,
  David Stuck, Shaama M.S., Shane Yost, Joonho Lee, David Small,
  Daniel Levine, Susi Lehtola, Hugh Burton, Evgeny Epifanovsky
 -----------------------------------------------------------------------
 Exchange:     0.1670 Hartree-Fock + 1.0000 wB97X-V + LR-HF
 Correlation:  1.0000 wB97X-V
 Using Euler-Maclaurin-Lebedev (99,590) quadrature formula
 Nonlocal Correlation:  VV10 with C = 0.0100 and b = 6.00 and scale = 1.00000
 Grid used for NLC:  SG-1 standard quadrature
Energy prior to optimization (guess energy) = -271.519705288756
Begin Timing: Total SCF Calculation
begin iterations for algorithm: DIIS         
the SCF tolerance is set to 1.00e-08
    1    -271.5197052888      1.97e-03     00000 
    2    -271.5589950654      1.27e-03     00000 
    3    -271.5813793213      1.39e-04     00000 
    4    -271.5817936364      4.84e-05     00000 
    5    -271.5818281554      1.60e-05     00000 
    6    -271.5818326479      3.89e-06     00000 
    7    -271.5818329576      1.79e-06     00000 
    8    -271.5818330126      3.66e-07     00000 
    9    -271.5818330162      7.43e-08     00000 
   10    -271.5818330165      4.02e-08     00000 
   11    -271.5818330166      1.58e-08     00000 
   12    -271.5818330166      5.25e-09     00000 Convergence criterion met
Timing for Total SCF: 1419.00s (wall), 2803.19s (cpu)

************** Final PCM Free Energy Summary **************
 G_electrostatic  =      -0.00245104 hartree =      -1.53804808 kcal/mol
 G_cavitation     =       0.00000000 hartree =       0.00000000 kcal/mol
 G_dispersion     =       0.00000000 hartree =       0.00000000 kcal/mol
 G_repulsion      =       0.00000000 hartree =       0.00000000 kcal/mol
 --------------------------------------------------
 Non-electrostatic Free Energy =       0.00000000 hartree =       0.00000000 kcal/mol
 Total                         =      -0.00245104 hartree =      -1.53804808 kcal/mol
 --------------------------------------------------
 SCF Energy (H0 + V/2)                       =    -271.58183302 
 Solute Internal Energy (H0)                 =    -271.57938198 
 Total Free Energy (H0 + V/2 + non-elec)     =    -271.58183302 hartree
                                             = -170420.17236947 kcal/mol
***********************************************************

E_pcm = -0.0024510356
Multipole orders to be included
        2
        3
computing dipole RHS
computing quadrupole RHS
total number of RHS in solve_reponses: 8
RHS batch sizes
        8
Beginning Block Conjugate Gradient Iterations. Batch Number: 0
computing hessian-vector products by finite difference
              1      5.79e-01     00000 Conjugate Gradient Iteration
computing hessian-vector products by finite difference
              2      1.86e-01     00000 Conjugate Gradient Iteration
computing hessian-vector products by finite difference
              3      4.34e-02     00000 Conjugate Gradient Iteration
computing hessian-vector products by finite difference
              4      1.06e-02     00000 Conjugate Gradient Iteration
computing hessian-vector products by finite difference
              5      2.33e-03     00000 Conjugate Gradient Iteration
computing hessian-vector products by finite difference
              6      6.18e-04     00000 Conjugate Gradient Iteration
computing hessian-vector products by finite difference
              7      1.82e-04     00000 Conjugate Gradient Iteration
computing hessian-vector products by finite difference
              8      2.79e-05     00000 Conjugate Gradient Iteration
computing hessian-vector products by finite difference
              9      3.26e-06     00000 Conjugate Gradient Iteration
computing hessian-vector products by finite difference
             10      6.67e-07     00000 Conjugate Gradient Iteration
computing hessian-vector products by finite difference
             11      1.44e-07     00000 Conjugate Gradient Iteration
computing hessian-vector products by finite difference
             12      2.08e-08     00000 Conjugate Gradient Iteration
computing hessian-vector products by finite difference
             13      3.97e-09     00000 CG Converged
batch 0 complete
Done Calculating Responses
TESTING ORTHOGONALIZATION OF MULTIPOLE BASIS
Multipole virts passed orthogonality test
Virts Per Order
           75
          125
 
 --------------------------------------------------------------
 
                    Orbital Energies (a.u.)
 --------------------------------------------------------------
 
 Alpha MOs
 -- Occupied --
-10.2816 -10.2725 -10.2725 -10.2696 -10.2694 -10.2691 -10.2628  -0.9986
 -0.9078  -0.8798  -0.8137  -0.7311  -0.7064  -0.6307  -0.5748  -0.5673
 -0.5359  -0.5307  -0.5143  -0.4888  -0.4740  -0.4422  -0.4408  -0.3498
 -0.3385
 -- Virtual --
  0.0628   0.0633   0.0692   0.0789   0.0844   0.1043   0.1102   0.1134
  0.1355   0.1537   0.1651   0.1703   0.1831   0.1901   0.1942   0.1996
  0.2219   0.2260   0.2332   0.2407   0.2486   0.2567   0.2594   0.2703
  0.2794   0.2828   0.2865   0.2908   0.2933   0.2999   0.3023   0.3113
  0.3215   0.3242   0.3303   0.3393   0.3494   0.3524   0.3657   0.3729
  0.3746   0.3813   0.3861   0.3883   0.3917   0.3989   0.4032   0.4041
  0.4130   0.4279   0.4305   0.4361   0.4405   0.4474   0.4520   0.4553
  0.4666   0.4703   0.4754   0.4826   0.4913   0.4975   0.5107   0.5146
  0.5169   0.5236   0.5333   0.5409   0.5440   0.5497   0.5528   0.5663
  0.5757   0.5823   0.5900   0.5959   0.5984   0.6230   0.6358   0.6424
  0.6664   0.6734   0.6827   0.6856   0.6928   0.7010   0.7204   0.7231
  0.7277   0.7322   0.7439   0.7599   0.7635   0.7661   0.7742   0.7835
  0.7919   0.7933   0.7992   0.8008   0.8073   0.8222   0.8263   0.8287
  0.8328   0.8363   0.8486   0.8565   0.8606   0.8661   0.8855   0.8933
  0.9134   0.9247   0.9355   0.9473   0.9518   1.0062   1.0288   1.0405
  1.0464   1.0626   1.0700   1.0754   1.0909   1.0968   1.1024   1.1417
  1.1624   1.1736   1.2594   1.2740   1.2943   1.3281   1.3533   1.3550
  1.3770   1.4383   1.4510   1.4600   1.4639   1.4786   1.5289   1.5380
  1.6044   1.6110   1.6182   1.6258   1.6551   1.6799   1.7341   1.7749
  1.7857   1.7980   1.8009   1.8129   1.8321   1.8604   1.8852   1.9117
  1.9161   1.9215   1.9335   1.9669   1.9880   1.9930   2.0121   2.0268
  2.0334   2.0445   2.0676   2.0893   2.1088   2.1230   2.1735   2.1840
  2.1999   2.2325   2.2428   2.2701   2.2887   2.3135   2.3817   2.4016
  2.4084   2.4181   2.4726   2.5110   2.5410   2.5576   2.5624   2.6031
  2.6094   2.6378   2.6676   2.6732   2.7014   2.7133   2.7628   2.7749
  2.7871   2.8111   2.8139   2.8477   2.8610   2.8962   2.9107   2.9182
  2.9330   2.9405   2.9740   2.9778   2.9939   3.0139   3.0214   3.0499
  3.0600   3.0898   3.0998   3.1265   3.1738   3.1887   3.2036   3.2139
  3.2284   3.2483   3.2812   3.2888   3.3386   3.3587   3.3616   3.3807
  3.4075   3.4376   3.4460   3.4514   3.4568   3.4785   3.4868   3.4986
  3.5071   3.5377   3.5403   3.5446   3.5536   3.5740   3.5795   3.6055
  3.6195   3.6368   3.6586   3.6969   3.7145   3.7516   3.7717   3.8078
  3.8547   3.8992   3.9213   3.9559   3.9591   3.9929   4.0367   4.0560
  4.1247   4.2047   4.2703   4.2788   4.2923   4.3156   4.3288   4.3463
  4.3566   4.3754   4.3910   4.4007   4.4279   4.4550   4.4963   4.5370
  4.5973   4.6181   4.7555   4.7816   4.8270   4.8694   4.9082   4.9474
  5.0293   5.0463   5.1707   5.2659   5.3770   5.3937   5.5031   5.5320
  5.6752   5.8519  22.5783  22.6724  22.8972  22.9058  23.0193  23.0852
 23.4310
 --------------------------------------------------------------
 
          Ground-State Mulliken Net Atomic Charges

     Atom                 Charge (a.u.)
  ----------------------------------------
      1 C                    -1.024609
      2 C                    -0.514651
      3 C                    -0.471752
      4 C                    -0.405579
      5 C                     0.874432
      6 C                    -0.477470
      7 C                    -0.311017
      8 H                     0.309515
      9 H                     0.330128
     10 H                     0.297201
     11 H                     0.315633
     12 H                     0.246195
     13 H                     0.273054
     14 H                     0.338495
     15 H                     0.220424
  ----------------------------------------
  Sum of atomic charges =     0.000000

 -----------------------------------------------------------------
                    Cartesian Multipole Moments
 -----------------------------------------------------------------
    Charge (ESU x 10^10)
                -0.0000
    Dipole Moment (Debye)
         X       0.0582      Y       0.1865      Z      -0.4424
       Tot       0.4837
    Quadrupole Moments (Debye-Ang)
        XX     -39.8189     XY       3.7555     YY     -44.1027
        XZ      -0.3879     YZ      -1.7487     ZZ     -37.3425
    Octopole Moments (Debye-Ang^2)
       XXX    -329.0620    XXY      39.9475    XYY    -125.1619
       YYY      73.1171    XXZ      59.2094    XYZ      -7.9401
       YYZ      64.7353    XZZ    -103.4806    YZZ      22.5373
       ZZZ     169.4330
    Hexadecapole Moments (Debye-Ang^3)
      XXXX   -2051.5456   XXXY     205.8904   XXYY    -430.4717
      XYYY     151.5747   YYYY    -253.5346   XXXZ     485.3806
      XXYZ     -35.7100   XYYZ     175.1479   YYYZ     -34.1451
      XXZZ    -499.8105   XYZZ      49.0493   YYZZ    -228.8064
      XZZZ     462.9713   YZZZ     -22.7836   ZZZZ   -1064.4029
 -----------------------------------------------------------------
Archival summary:
1\1\nid00507\SP\ProcedureUnspecified\BasisUnspecified\78\meili\SunSep2623:55:512021SunSep2623:55:512021\0\\#,ProcedureUnspecified,BasisUnspecified,\\0,1\C\C,1,1.39023\H,2,1.08024,1,120.194\C,2,1.39096,1,120.505,3,-179.817,0\H,4,1.08118,2,120.112,1,179.453,0\C,4,1.38864,2,120.01,1,0.0471166,0\H,6,1.08219,4,120.151,2,-179.953,0\C,6,1.38803,4,119.881,2,0.0468072,0\H,8,1.0789,6,119.993,4,-179.469,0\C,8,1.39046,6,119.983,4,-0.0163154,0\H,10,1.08111,8,119.487,6,179.581,0\C,1,1.50503,2,120.619,3,0.0639237,0\H,12,1.09119,1,107.36,2,132.286,0\H,12,1.09128,1,110.163,2,15.6952,0\H,12,1.1,1,113.527,2,-107.899,0\\\@

 Total job time:  28299.02s(wall), 55966.13s(cpu) 
 Sun Sep 26 23:55:56 2021

        *************************************************************
        *                                                           *
        *  Thank you very much for using Q-Chem.  Have a nice day.  *
        *                                                           *
        *************************************************************


Done Job For Fragment 1
calling putenv with: QCSCRATCH=/global/cscratch1/sd/meili 
calling putenv with: QCLOCALSCR=/tmp 
calling putenv with: QCTHREADS=32 
Doing General SCFMI
 Exchange:     0.1670 Hartree-Fock + 1.0000 wB97X-V + LR-HF
 Correlation:  1.0000 wB97X-V
 Using Euler-Maclaurin-Lebedev (99,590) quadrature formula
 Nonlocal Correlation:  VV10 with C = 0.0100 and b = 6.00 and scale = 1.00000
 Grid used for NLC:  SG-1 standard quadrature
performing fock build before subrot guess so that all methods have access
Printing subrot_rss_gen Method Specification:
Occupied Subspace Method is 0
Virtual Subspace Method is 0
Energy of the unrelaxed supersystem initial determinant -543.161029388806
performing fock build before subrot guess so that all methods have access
Printing subrot_rss_gen Method Specification:
Occupied Subspace Method is 0
Virtual Subspace Method is 0
Energy of the unrelaxed supersystem initial determinant w/ solvent -543.165602743807
write pseudocanon occs and virts to disk
write pseudocanon orbital energies to disk
Tolerance of ortho_decomp_scf: 1.00e-06
GDM subspace size: 20
Beginning the Orthogonal Decomposition of the Initial Supersystem Wavefunction
    1    -543.1489062386      1.47e-02     ortho_decomp Preconditoned Steepest Descent
    2    -543.1498626462      3.57e-04     ortho_decomp BFGS Step
    3    -543.1498655033      2.72e-05     ortho_decomp BFGS Step
    4    -543.1498655090      1.14e-06     ortho_decomp BFGS Step
    5    -543.1498655090      3.95e-08     ortho_decomp 00000 Convergence criterion met
 Hartree-Fock
 Hartree-Fock
 Hartree-Fock
Doing General SCFMI
 Exchange:     0.1670 Hartree-Fock + 1.0000 wB97X-V + LR-HF
 Correlation:  1.0000 wB97X-V
 Using Euler-Maclaurin-Lebedev (99,590) quadrature formula
 Nonlocal Correlation:  VV10 with C = 0.0100 and b = 6.00 and scale = 1.00000
 Grid used for NLC:  SG-1 standard quadrature
performing fock build at end of subrot_r(subrot) constructor so that all methods have access
<S^2> of initial wavefunction before polarization iterations 0.0000000000
Beginning iterations for the determination of the polarized wavefunction
Energy prior to optimization (guess energy) = -543.165602743806
Begin Timing: Total SCF Calculation
begin iterations for algorithm: DIIS         
the SCF tolerance is set to 1.00e-08
    1    -543.1656027438      3.26e-05     00000 
    2    -543.1657219101      1.24e-05     00000 
    3    -543.1657332009      7.43e-06     00000 
    4    -543.1657370607      2.10e-06     00000 
    5    -543.1657374664      9.25e-07     00000 
    6    -543.1657375489      3.29e-07     00000 
    7    -543.1657375584      1.08e-07     00000 
    8    -543.1657375594      4.86e-08     00000 
    9    -543.1657375595      1.58e-08     00000 
   10    -543.1657375596      6.82e-09     00000 Convergence criterion met
write pseudocanon occs and virts to disk
write pseudocanon orbital energies to disk
Timing for Total SCF: 7853.00s (wall), 15637.87s (cpu)
<S^2> of polarized wavefunction after polarization iterations 0.0000000000
relaxing scfmi constraint to allow all rotations in the entire AO span
Doing General SCFMI
 Exchange:     0.1670 Hartree-Fock + 1.0000 wB97X-V + LR-HF
 Correlation:  1.0000 wB97X-V
 Using Euler-Maclaurin-Lebedev (99,590) quadrature formula
 Nonlocal Correlation:  VV10 with C = 0.0100 and b = 6.00 and scale = 1.00000
 Grid used for NLC:  SG-1 standard quadrature
performing fock build at end of subrot_r(subrot) constructor so that all methods have access
<S^2> of polarized wavefunction before ct-allowed iterations 0.0000000000
Beginning iterations for the determination of the CT-Allowed wavefunction
Energy prior to optimization (guess energy) = -543.165737559559
Begin Timing: Total SCF Calculation
begin iterations for algorithm: DIIS         
the SCF tolerance is set to 1.00e-08
    1    -543.1657375596      4.67e-05     00000 
    2    -543.1662174207      4.69e-06     00000 
    3    -543.1662310237      7.57e-07     00000 
    4    -543.1662314528      3.09e-07     00000 
    5    -543.1662314779      1.05e-07     00000 
    6    -543.1662314823      2.43e-08     00000 
    7    -543.1662314825      8.92e-09     00000 Convergence criterion met
write pseudocanon occs and virts to disk
write pseudocanon orbital energies to disk
Timing for Total SCF: 5222.00s (wall), 10375.02s (cpu)
<S^2> of ct_allowed wavefunction after ct-allowed iterations 0.0000000000

================================
        Results of EDA2         
================================
Basic EDA Quantities
--------------------
Fragment Energies (Ha):
1 -271.5818239490
2 -271.5818330166
--------------------
  E_prp (kJ/mol) = 0.0000
  E_sol (kJ/mol) = 0.8461
  E_frz (kJ/mol) = -5.9548
  E_pol (kJ/mol) = -0.3540
  E_vct (kJ/mol) = -1.2968
  E_int (kJ/mol) = -6.7595
--------------------


Initial Wavefunction Decomposition
--------------------
  --------------------
  Orthogonal Fragment Subspace Decomposition:
  --------------------
     E_elec   (ELEC)   (kJ/mol) = -12.6144
     E_pauli  (PAULI)  (kJ/mol) = 17.8571
     E_disp   (DISP)   (kJ/mol) = -11.1975
     --------------------
     Terms summing to E_pauli:
     --------------------
        E_kep_pauli       (kJ/mol) = 23.3563
        E_disp_free_pauli (kJ/mol) = -5.4992
  --------------------
  Classical Frozen Decomposition:
  --------------------
     E_cls_elec  (CLS ELEC)  (kJ/mol) = -4.9839
     E_cls_pauli (CLS PAULI) (kJ/mol) = -0.9708
    [E_mod_pauli (MOD PAULI) (kJ/mol) = 10.2267 (CLS PAULI - DISP from orthogonal decomposition) ]
  --------------------
--------------------

Simplified EDA Summary (kJ/mol)
--------------------
 PREPARATION     0.0000
 SOLVATION       0.8461
 FROZEN          5.2428      (does not include dispersion)
[PAULI           17.8571]     (if this is negligible, then frozen describes electrostatics)
 DISPERSION      -11.1975
 POLARIZATION    -0.3540
 CHARGE TRANSFER -1.2968
 TOTAL           -6.7595     (PRP + SOL + FRZ + DISP + POL + CT)
--------------------
 
 --------------------------------------------------------------
 
                    Orbital Energies (a.u.)
 --------------------------------------------------------------
 
 Alpha MOs
 -- Occupied --
-10.2824 -10.2807 -10.2734 -10.2733 -10.2724 -10.2716 -10.2705 -10.2700
-10.2699 -10.2691 -10.2686 -10.2685 -10.2631 -10.2616  -0.9995  -0.9984
 -0.9088  -0.9073  -0.8811  -0.8794  -0.8146  -0.8134  -0.7324  -0.7302
 -0.7077  -0.7057  -0.6334  -0.6288  -0.5757  -0.5748  -0.5683  -0.5661
 -0.5367  -0.5363  -0.5328  -0.5291  -0.5163  -0.5127  -0.4893  -0.4882
 -0.4744  -0.4740  -0.4430  -0.4421  -0.4411  -0.4402  -0.3507  -0.3495
 -0.3395  -0.3377
 -- Virtual --
  0.0565   0.0605   0.0647   0.0663   0.0673   0.0690   0.0731   0.0826
  0.0875   0.0978   0.1019   0.1048   0.1077   0.1168   0.1231   0.1276
  0.1372   0.1439   0.1516   0.1548   0.1629   0.1664   0.1703   0.1727
  0.1874   0.1910   0.1931   0.1954   0.2041   0.2068   0.2143   0.2197
  0.2241   0.2263   0.2289   0.2328   0.2367   0.2459   0.2504   0.2520
  0.2578   0.2588   0.2623   0.2664   0.2672   0.2715   0.2742   0.2762
  0.2791   0.2839   0.2862   0.2905   0.2943   0.2974   0.2982   0.3003
  0.3047   0.3128   0.3148   0.3188   0.3226   0.3255   0.3303   0.3325
  0.3341   0.3397   0.3416   0.3475   0.3487   0.3543   0.3560   0.3623
  0.3634   0.3671   0.3691   0.3698   0.3762   0.3789   0.3803   0.3808
  0.3855   0.3884   0.3893   0.3947   0.3964   0.3986   0.4014   0.4056
  0.4089   0.4120   0.4153   0.4184   0.4221   0.4289   0.4346   0.4360
  0.4384   0.4405   0.4475   0.4499   0.4516   0.4558   0.4578   0.4609
  0.4640   0.4669   0.4685   0.4723   0.4756   0.4770   0.4788   0.4862
  0.4880   0.4909   0.4963   0.4978   0.5010   0.5032   0.5075   0.5136
  0.5152   0.5210   0.5244   0.5269   0.5298   0.5355   0.5388   0.5408
  0.5451   0.5458   0.5516   0.5540   0.5595   0.5691   0.5696   0.5724
  0.5751   0.5836   0.5861   0.5941   0.5970   0.6021   0.6050   0.6131
  0.6181   0.6210   0.6289   0.6302   0.6333   0.6352   0.6414   0.6503
  0.6598   0.6655   0.6689   0.6727   0.6739   0.6840   0.6846   0.6899
  0.6940   0.7018   0.7042   0.7078   0.7129   0.7211   0.7220   0.7260
  0.7303   0.7337   0.7402   0.7442   0.7456   0.7485   0.7530   0.7557
  0.7574   0.7642   0.7717   0.7757   0.7792   0.7832   0.7845   0.7865
  0.7884   0.7912   0.7953   0.7971   0.8005   0.8049   0.8084   0.8158
  0.8170   0.8185   0.8239   0.8256   0.8311   0.8376   0.8410   0.8434
  0.8473   0.8512   0.8533   0.8582   0.8649   0.8671   0.8703   0.8736
  0.8774   0.8813   0.8865   0.8912   0.8984   0.9045   0.9055   0.9079
  0.9131   0.9171   0.9213   0.9336   0.9358   0.9472   0.9492   0.9594
  0.9613   0.9726   0.9788   0.9855   0.9999   1.0112   1.0208   1.0281
  1.0303   1.0398   1.0446   1.0591   1.0607   1.0676   1.0709   1.0785
  1.0868   1.0888   1.0975   1.1013   1.1102   1.1189   1.1258   1.1313
  1.1352   1.1499   1.1554   1.1618   1.1696   1.1896   1.1939   1.2084
  1.2398   1.2456   1.2744   1.2891   1.3003   1.3116   1.3241   1.3387
  1.3464   1.3634   1.3667   1.3776   1.3811   1.3915   1.4214   1.4331
  1.4491   1.4645   1.4705   1.4752   1.4769   1.4855   1.4906   1.4951
  1.5053   1.5249   1.5384   1.5470   1.5585   1.5687   1.6022   1.6080
  1.6208   1.6230   1.6258   1.6350   1.6455   1.6571   1.6698   1.6848
  1.6924   1.6981   1.7051   1.7581   1.7821   1.7898   1.7998   1.8025
  1.8057   1.8110   1.8178   1.8225   1.8259   1.8335   1.8526   1.8899
  1.8960   1.9091   1.9169   1.9217   1.9268   1.9333   1.9377   1.9467
  1.9514   1.9625   1.9763   1.9795   1.9863   1.9928   1.9978   2.0103
  2.0167   2.0266   2.0333   2.0447   2.0474   2.0546   2.0692   2.0715
  2.0800   2.0842   2.0924   2.1163   2.1269   2.1325   2.1491   2.1525
  2.1572   2.1859   2.1989   2.2012   2.2196   2.2219   2.2268   2.2370
  2.2470   2.2524   2.2598   2.2638   2.2829   2.2923   2.3119   2.3200
  2.3479   2.3665   2.3940   2.4069   2.4164   2.4196   2.4219   2.4352
  2.4392   2.4499   2.4941   2.4988   2.5165   2.5223   2.5516   2.5636
  2.5703   2.5743   2.5880   2.5977   2.6142   2.6176   2.6213   2.6287
  2.6398   2.6524   2.6783   2.6802   2.6906   2.7047   2.7119   2.7156
  2.7261   2.7321   2.7597   2.7690   2.7797   2.7863   2.7968   2.8098
  2.8152   2.8241   2.8289   2.8324   2.8512   2.8644   2.8697   2.8742
  2.9090   2.9150   2.9178   2.9239   2.9355   2.9422   2.9454   2.9512
  2.9639   2.9673   2.9787   2.9803   2.9930   3.0028   3.0095   3.0157
  3.0224   3.0273   3.0383   3.0472   3.0634   3.0658   3.0804   3.0867
  3.1015   3.1017   3.1130   3.1219   3.1347   3.1451   3.1916   3.1954
  3.1985   3.2090   3.2199   3.2289   3.2343   3.2406   3.2471   3.2523
  3.2627   3.2748   3.2981   3.3081   3.3190   3.3344   3.3475   3.3630
  3.3661   3.3768   3.3790   3.3891   3.3984   3.4056   3.4156   3.4201
  3.4467   3.4502   3.4530   3.4558   3.4654   3.4696   3.4747   3.4752
  3.4805   3.4855   3.5042   3.5113   3.5156   3.5230   3.5272   3.5390
  3.5434   3.5465   3.5530   3.5547   3.5589   3.5618   3.5697   3.5729
  3.5772   3.5887   3.6029   3.6065   3.6161   3.6272   3.6294   3.6331
  3.6453   3.6474   3.6583   3.6763   3.7012   3.7056   3.7064   3.7095
  3.7196   3.7230   3.7762   3.7957   3.8133   3.8253   3.8441   3.8577
  3.8958   3.9043   3.9181   3.9373   3.9608   3.9637   3.9754   3.9808
  3.9996   4.0039   4.0461   4.0482   4.0722   4.0874   4.1344   4.1387
  4.2152   4.2324   4.2791   4.2845   4.2925   4.2968   4.3006   4.3092
  4.3221   4.3256   4.3355   4.3409   4.3456   4.3551   4.3624   4.3690
  4.3826   4.3878   4.3974   4.4044   4.4076   4.4220   4.4387   4.4531
  4.4685   4.4758   4.4986   4.5022   4.5419   4.5503   4.6080   4.6151
  4.6237   4.6407   4.7600   4.7650   4.7716   4.7852   4.8279   4.8364
  4.8744   4.8994   4.9162   4.9271   4.9611   4.9657   5.0480   5.0509
  5.0656   5.0710   5.1780   5.1858   5.2729   5.2817   5.3781   5.3904
  5.3917   5.3956   5.5032   5.5105   5.5304   5.5465   5.6790   5.6985
  5.8161   5.8252  22.6050  22.6280  22.6752  22.6798  22.9174  22.9260
 22.9338  22.9500  23.0362  23.0461  23.0990  23.1067  23.4373  23.4501
 --------------------------------------------------------------
 
          Ground-State Mulliken Net Atomic Charges

     Atom                 Charge (a.u.)
  ----------------------------------------
      1 C                    -1.076447
      2 C                    -0.259264
      3 C                    -0.314061
      4 C                    -0.548430
      5 C                     0.629338
      6 C                    -0.546919
      7 C                    -0.377756
      8 H                     0.362895
      9 H                     0.345411
     10 H                     0.331331
     11 H                     0.327672
     12 H                     0.272779
     13 H                     0.283034
     14 H                     0.353578
     15 H                     0.215643
     16 C                    -1.095478
     17 C                    -0.451230
     18 C                    -0.450107
     19 C                    -0.389309
     20 C                     0.679650
     21 C                    -0.425698
     22 C                    -0.369436
     23 H                     0.360401
     24 H                     0.355982
     25 H                     0.335002
     26 H                     0.330534
     27 H                     0.251295
     28 H                     0.279773
     29 H                     0.358781
     30 H                     0.231037
  ----------------------------------------
  Sum of atomic charges =     0.000000

 -----------------------------------------------------------------
                    Cartesian Multipole Moments
 -----------------------------------------------------------------
    Charge (ESU x 10^10)
                 0.0000
    Dipole Moment (Debye)
         X      -0.3069      Y       0.2642      Z      -0.5308
       Tot       0.6676
    Quadrupole Moments (Debye-Ang)
        XX     -75.4671     XY       2.0230     YY     -89.9497
        XZ      -0.8894     YZ      -0.6930     ZZ     -75.8383
    Octopole Moments (Debye-Ang^2)
       XXX     -14.4328    XXY      26.1582    XYY      -3.2363
       YYY      -0.0454    XXZ       7.1737    XYZ     -12.3271
       YYZ      -0.1898    XZZ       4.2877    YZZ       3.6250
       ZZZ       4.8149
    Hexadecapole Moments (Debye-Ang^3)
      XXXX   -4417.7154   XXXY     394.0942   XXYY    -884.4384
      XYYY     386.9747   YYYY    -408.9798   XXXZ     913.9063
      XXYZ     -54.4542   XYYZ     342.4437   YYYZ    -154.5508
      XXZZ   -1016.0703   XYZZ     113.5692   YYZZ    -402.9086
      XZZZ     905.7995   YZZZ    -117.0267   ZZZZ   -1811.9584
 -----------------------------------------------------------------
Archival summary:
1\1\nid00507\SP\ProcedureUnspecified\BasisUnspecified\1416\meili\MonSep2707:00:042021MonSep2707:00:042021\0\\#,ProcedureUnspecified,BasisUnspecified,\\0,1\C\H,1,1.0821\C,1,1.38814,2,120.104\H,3,1.08133,1,119.99,2,0.0766461,0\C,1,1.38864,2,119.975,3,179.55,0\H,5,1.0807,1,119.32,2,0.332473,0\C,3,1.39044,1,119.815,2,179.76,0\H,7,1.08068,3,120.054,1,179.465,0\C,7,1.38897,3,120.102,1,-0.234336,0\H,9,1.08112,7,119.769,3,-179.912,0\C,9,1.39043,7,120.34,3,0.385238,0\C,11,1.50416,9,120.374,7,-179.555,0\H,12,1.08512,11,108.416,9,-153.434,0\H,12,1.09056,11,108.993,9,-36.8258,0\H,12,1.1,11,113.502,9,85.1868,0\H,2,2.68174,1,113.606,3,47.3249,0\C,16,1.08118,2,93.0751,1,-127.227,0\C,17,1.38864,16,119.875,2,111.93,0\H,18,1.08219,17,120.151,16,0.640571,0\C,18,1.38803,17,119.881,16,-179.36,0\H,20,1.0789,18,119.993,17,-179.469,0\C,20,1.39046,18,119.983,17,-0.0163154,0\H,22,1.08111,20,119.487,18,179.581,0\C,17,1.39096,16,120.112,2,-67.4764,0\H,24,1.08024,17,119.3,16,-0.366404,0\C,24,1.39023,17,120.505,16,179.453,0\C,26,1.50503,24,120.619,17,-179.753,0\H,27,1.09119,26,107.36,24,132.286,0\H,27,1.09128,26,110.163,24,15.6952,0\H,27,1.1,26,113.527,24,-107.899,0\\\@

 Total job time:  81554.54s(wall), 50704.56s(cpu) 
 Mon Sep 27 07:00:08 2021

        *************************************************************
        *                                                           *
        *  Thank you very much for using Q-Chem.  Have a nice day.  *
        *                                                           *
        *************************************************************


