
Running Job 1 of 1 SSI-115GLU-160GLU-1_PCM_TZVPD.in
qchem SSI-115GLU-160GLU-1_PCM_TZVPD.in_3569.0 /tmp/qchem3569/ 0
/global/common/cori/software/qchem/5.2/exe/qcprog.exe_s SSI-115GLU-160GLU-1_PCM_TZVPD.in_3569.0 /tmp/qchem3569/
                  Welcome to Q-Chem
     A Quantum Leap Into The Future Of Chemistry


 Q-Chem 5.2, Q-Chem, Inc., Pleasanton, CA (2019)

 License issued to: National Energy Research Scientific Computing Center

 Yihan Shao,  Zhengting Gan,  E. Epifanovsky,  A. T. B. Gilbert,  M. Wormit,  
 J. Kussmann,  A. W. Lange,  A. Behn,  Jia Deng,  Xintian Feng,  D. Ghosh,  
 M. Goldey,  P. R. Horn,  L. D. Jacobson,  I. Kaliman,  T. Kus,  A. Landau,  
 Jie Liu,  E. I. Proynov,  R. M. Richard,  R. P. Steele,  E. J. Sundstrom,  
 H. L. Woodcock III,  P. M. Zimmerman,  D. Zuev,  B. Albrecht,  E. Alguire,  
 S. A. Baeppler,  D. Barton,  Z. Benda,  Y. A. Bernard,  E. J. Berquist,  
 K. B. Bravaya,  H. Burton,  D. Casanova,  Chun-Min Chang,  Yunqing Chen,  
 A. Chien,  K. D. Closser,  M. P. Coons,  S. Coriani,  S. Dasgupta,  
 A. L. Dempwolff,  M. Diedenhofen,  Hainam Do,  R. G. Edgar,  Po-Tung Fang,  
 S. Faraji,  S. Fatehi,  Qingguo Feng,  K. D. Fenk,  J. Fosso-Tande,  
 J. Gayvert,  Qinghui Ge,  A. Ghysels,  G. Gidofalvi,  J. Gomes,  
 J. Gonthier,  A. Gunina,  D. Hait,  M. W. D. Hanson-Heine,  
 P. H. P. Harbach,  A. W. Hauser,  M. F. Herbst,  J. E. Herr,  
 E. G. Hohenstein,  Z. C. Holden,  Kerwin Hui,  B. C. Huynh,  T.-C. Jagau,  
 Hyunjun Ji,  B. Kaduk,  K. Khistyaev,  Jaehoon Kim,  P. Klunzinger,  K. Koh,  
 D. Kosenkov,  L. Koulias,  T. Kowalczyk,  C. M. Krauter,  A. Kunitsa,  
 Ka Un Lao,  A. Laurent,  K. V. Lawler,  Joonho Lee,  D. Lefrancois,  
 S. Lehtola,  D. S. Levine,  Yi-Pei Li,  You-Sheng Lin,  Fenglai Liu,  
 E. Livshits,  A. Luenser,  P. Manohar,  E. Mansoor,  S. F. Manzer,  
 Shan-Ping Mao,  Yuezhi Mao,  N. Mardirossian,  A. V. Marenich,  
 T. Markovich,  L. A. Martinez-Martinez,  S. A. Maurer,  N. J. Mayhall,  
 S. C. McKenzie,  J.-M. Mewes,  P. Morgante,  A. F. Morrison,  
 J. W. Mullinax,  K. Nanda,  T. S. Nguyen-Beck,  R. Olivares-Amaya,  
 J. A. Parkhill,  Zheng Pei,  T. M. Perrine,  F. Plasser,  P. Pokhilko,  
 S. Prager,  A. Prociuk,  E. Ramos,  D. R. Rehn,  F. Rob,  M. Scheurer,  
 M. Schneider,  N. Sergueev,  S. M. Sharada,  S. Sharma,  D. W. Small,  
 T. Stauch,  T. Stein,  Yu-Chuan Su,  A. J. W. Thom,  A. Tkatchenko,  
 T. Tsuchimochi,  N. M. Tubman,  L. Vogt,  M. L. Vidal,  O. Vydrov,  
 M. A. Watson,  J. Wenzel,  M. de Wergifosse,  T. A. Wesolowski,  A. White,  
 J. Witte,  A. Yamada,  Jun Yang,  K. Yao,  S. Yeganeh,  S. R. Yost,  
 Zhi-Qiang You,  A. Zech,  Igor Ying Zhang,  Xing Zhang,  Yan Zhao,  
 Ying Zhu,  B. R. Brooks,  G. K. L. Chan,  C. J. Cramer,  M. S. Gordon,  
 W. J. Hehre,  A. Klamt,  M. W. Schmidt,  C. D. Sherrill,  D. G. Truhlar,  
 A. Aspuru-Guzik,  R. Baer,  A. T. Bell,  N. A. Besley,  Jeng-Da Chai,  
 A. E. DePrince, III,  R. A. DiStasio Jr.,  A. Dreuw,  B. D. Dunietz,  
 T. R. Furlani,  Chao-Ping Hsu,  Yousung Jung,  Jing Kong,  D. S. Lambrecht,  
 WanZhen Liang,  C. Ochsenfeld,  V. A. Rassolov,  L. V. Slipchenko,  
 J. E. Subotnik,  T. Van Voorhis,  J. M. Herbert,  A. I. Krylov,  
 P. M. W. Gill,  M. Head-Gordon

 Contributors to earlier versions of Q-Chem not listed above: 
 R. D. Adamson,  B. Austin,  J. Baker,  G. J. O. Beran,  K. Brandhorst,  
 S. T. Brown,  E. F. C. Byrd,  A. K. Chakraborty,  C.-L. Cheng,  
 Siu Hung Chien,  D. M. Chipman,  D. L. Crittenden,  H. Dachsel,  
 R. J. Doerksen,  A. D. Dutoi,  L. Fusti-Molnar,  W. A. Goddard III,  
 A. Golubeva-Zadorozhnaya,  S. R. Gwaltney,  G. Hawkins,  A. Heyden,  
 S. Hirata,  G. Kedziora,  F. J. Keil,  C. Kelley,  Jihan Kim,  R. A. King,  
 R. Z. Khaliullin,  P. P. Korambath,  W. Kurlancheek,  A. M. Lee,  M. S. Lee,  
 S. V. Levchenko,  Ching Yeh Lin,  D. Liotard,  R. C. Lochan,  I. Lotan,  
 P. E. Maslen,  N. Nair,  D. P. O'Neill,  D. Neuhauser,  E. Neuscamman,  
 C. M. Oana,  R. Olson,  B. Peters,  R. Peverati,  P. A. Pieniazek,  
 Y. M. Rhee,  J. Ritchie,  M. A. Rohrdanz,  E. Rosta,  N. J. Russ,  
 H. F. Schaefer III,  N. E. Schultz,  N. Shenvi,  A. C. Simmonett,  A. Sodt,  
 D. Stuck,  K. S. Thanthiriwatte,  V. Vanovschi,  Tao Wang,  A. Warshel,  
 C. F. Williams,  Q. Wu,  X. Xu,  W. Zhang

 Please cite Q-Chem as follows:
 Y. Shao et al., Mol. Phys. 113, 184-215 (2015)
 DOI: 10.1080/00268976.2014.952696

 Q-Chem 5.2.0 for Intel X86 EM64T Linux

 Parts of Q-Chem use Armadillo 8.300.2 (Tropical Shenanigans).
 http://arma.sourceforge.net/

 Q-Chem begins on Sun Sep 26 13:53:56 2021  

Host: cori01
0

     Scratch files written to /tmp/qchem3569//
 May1019 |scratch|qcdevops|jenkins|workspace|build_RNUM -1
Processing $rem in /global/common/cori/software/qchem/5.2/config/preferences:
	 MEM_TOTAL  96000 
NAlpha2: 72
NElect   72
Mult     1
Symmetry turned off for PCM/SM12/SMD calculation

 Q-Chem warning in module libgen/rem_setup.C, line 2803:

 Neither GIA nor STOLL is specified by user. Use STOLL as the default


Checking the input file for inconsistencies... 	...done.

--------------------------------------------------------------
User input:
--------------------------------------------------------------
$comment
SSI-115GLU-160GLU-1.pdb
$end

$molecule
-2 1
--
-1 1
C   -0.432544574593    1.269356782572   -2.328860074433
C   -0.496544574593   -0.239643217428   -2.104860074433
O   -0.014544574593   -0.980643217428   -2.981860074433
O   -1.022544574593   -0.685643217428   -1.059860074433
H   -0.377544574593    1.501356782572   -3.395860074433
H    0.487455425407    1.655356782572   -1.880860074433
H   -1.281864574593    1.811536782572   -1.887620074433
--
-1 1
C    0.981455425407   -0.726643217428    1.397139925567
C    0.162455425407   -1.806643217428    2.103139925567
C    0.429455425407    0.678356782572    1.618139925567
O   -0.518544574593    0.845356782572    2.419139925567
O    0.961455425407    1.625356782572    0.994139925567
H    1.997455425407   -0.772643217428    1.797139925567
H    1.068455425407   -0.933643217428    0.331139925567
H   -0.904544574593   -1.622643217428    1.970139925567
H    0.389455425407   -1.766643217428    3.169139925567
H    0.379875425407   -2.813813217428    1.717982925567
$end

$rem
JOBTYPE			EDA
EDA2			1
method			wB97X-V
BASIS			def2-TZVPD
XC_GRID			000099000590
NL_GRID			1
UNRESTRICTED		FALSE
MAX_SCF_CYCLES		200
SYMMETRY		FALSE
SYM_IGNORE		TRUE
MEM_STATIC		2000
BASIS_LIN_DEP_THRESH 	6
THRESH 			14
SCF_CONVERGENCE 	8
SCF_PRINT_FRGM 		TRUE
SOLVENT_METHOD          PCM
$end

$PCM
THEORY                  CPCM
METHOD                  SWIG
SOLVER                  INVERSION
RADII                   UFF
HPOINTS                 302
HEAVYPOINTS             302
PRINTLEVEL              0
$END

$SOLVENT
DIELECTRIC              78.390000 ! water
$END
--------------------------------------------------------------
 ----------------------------------------------------------------
             Standard Nuclear Orientation (Angstroms)
    I     Atom           X                Y                Z
 ----------------------------------------------------------------
    1      C      -0.4325445746     1.2693567826    -2.3288600744
    2      C      -0.4965445746    -0.2396432174    -2.1048600744
    3      O      -0.0145445746    -0.9806432174    -2.9818600744
    4      O      -1.0225445746    -0.6856432174    -1.0598600744
    5      H      -0.3775445746     1.5013567826    -3.3958600744
    6      H       0.4874554254     1.6553567826    -1.8808600744
    7      H      -1.2818645746     1.8115367826    -1.8876200744
    8      C       0.9814554254    -0.7266432174     1.3971399256
    9      C       0.1624554254    -1.8066432174     2.1031399256
   10      C       0.4294554254     0.6783567826     1.6181399256
   11      O      -0.5185445746     0.8453567826     2.4191399256
   12      O       0.9614554254     1.6253567826     0.9941399256
   13      H       1.9974554254    -0.7726432174     1.7971399256
   14      H       1.0684554254    -0.9336432174     0.3311399256
   15      H      -0.9045445746    -1.6226432174     1.9701399256
   16      H       0.3894554254    -1.7666432174     3.1691399256
   17      H       0.3798754254    -2.8138132174     1.7179829256
 ----------------------------------------------------------------
 Nuclear Repulsion Energy =         433.03149648 hartrees
 There are       36 alpha and       36 beta electrons
 Requested basis set is def2-TZVPD
 There are 161 shells and 417 basis functions

 Total QAlloc Memory Limit  96000 MB
 Mega-Array Size      1956 MB
 MEM_STATIC part      2000 MB
 Discretize the solute cavity surface with Lebedev spheres
	Using 302 Lebedev grid points for each H atom
	Using 302 Lebedev grid points for other atoms
	Atomic van der Waals radii will be scaled by 1.20
 Remove points where switching function is < 1.0e-08
 Keep 2036 surface tesserae and discard 3098 interior tesserae
 Molecular Surface Area = 225.656 Angst**2
 A cutoff of  1.0D-14 yielded  11869 shell pairs
 There are     80457 function pairs (    102292 Cartesian)
 Smallest overlap matrix eigenvalue = 5.84E-06

 Scale SEOQF with 1.000000e-01/1.000000e-01/1.000000e-01

 Standard Electronic Orientation quadrupole field applied
 Nucleus-field energy     =    -0.0000000225 hartrees

 -----------------------------------------------------------------------
  General SCF calculation program by
  Eric Jon Sundstrom, Paul Horn, Yuezhi Mao, Dmitri Zuev, Alec White,
  David Stuck, Shaama M.S., Shane Yost, Joonho Lee, David Small,
  Daniel Levine, Susi Lehtola, Hugh Burton, Evgeny Epifanovsky
 -----------------------------------------------------------------------
================================================================
                 ALMO-EDA with the EDA2 driver                  
================================================================
 The second-generation ALMO-EDA (for DFT):                      
 P. R. Horn, Y. Mao and M. Head-Gordon, PCCP, 18, 23067 (2016)  
 Decomposition of the frozen energy:                            
 P. R. Horn, Y. Mao and M. Head-Gordon, JCP, 144, 114107 (2016) 
 FERF model for polarization:                                   
 P. R. Horn and M. Head-Gordon, JCP, 143, 114111 (2015)         
Using eda2 option set 1
Option set summary: Frozen orbital wavefunction, initial wavefunction decomposition, and nDQ polarization.
--------------------------------
Printing EDA Options
--------------------------------
eda_child_super_basis      0
fragmo_guess_mode          0
child_mp                   1
child_mp_orders            232
cls_elec                   1
cls_disp                   0
scfmi_mode                 1
scfmi_occs                 0
scfmi_virts                0
frz_relax                  0
frz_relax_method           0
dc_pen_start               0
dc_pen_conv                0
dc_pen_increment           0
dc_pen_steps               0
dc_pen_thresh_factor       0
dc_pen_pre_newton_thresh   0
frz_ortho_decomp           1
frz_ortho_decomp_conv      6
frgm_method                2
scfmi_freeze_ss            0
separate_rehyb             0
plot_diff_den              0
eda_nocv                   0
eda_vct_relax              1
disp_free_x                0
disp_free_c                0
eda_bsse                   0
eda_pct_a                  0
eda_covp                   0
--------------------------------
Attempting to make child job directory: /tmp/qchem3569//Frg1/
Attempting to make child job directory: /tmp/qchem3569//Frg2/
Creating input file /tmp/qchem3569/Frg1.input
using default PutDataFrgm: nothing
calling putenv with: QCSCRATCH=/tmp/qchem3569/ 
calling putenv with: QCLOCALSCR=/tmp/qchem3569/ 
Spawning Job For Fragment 0
                  Welcome to Q-Chem
     A Quantum Leap Into The Future Of Chemistry


 Q-Chem 5.2, Q-Chem, Inc., Pleasanton, CA (2019)

 License issued to: National Energy Research Scientific Computing Center

 Yihan Shao,  Zhengting Gan,  E. Epifanovsky,  A. T. B. Gilbert,  M. Wormit,  
 J. Kussmann,  A. W. Lange,  A. Behn,  Jia Deng,  Xintian Feng,  D. Ghosh,  
 M. Goldey,  P. R. Horn,  L. D. Jacobson,  I. Kaliman,  T. Kus,  A. Landau,  
 Jie Liu,  E. I. Proynov,  R. M. Richard,  R. P. Steele,  E. J. Sundstrom,  
 H. L. Woodcock III,  P. M. Zimmerman,  D. Zuev,  B. Albrecht,  E. Alguire,  
 S. A. Baeppler,  D. Barton,  Z. Benda,  Y. A. Bernard,  E. J. Berquist,  
 K. B. Bravaya,  H. Burton,  D. Casanova,  Chun-Min Chang,  Yunqing Chen,  
 A. Chien,  K. D. Closser,  M. P. Coons,  S. Coriani,  S. Dasgupta,  
 A. L. Dempwolff,  M. Diedenhofen,  Hainam Do,  R. G. Edgar,  Po-Tung Fang,  
 S. Faraji,  S. Fatehi,  Qingguo Feng,  K. D. Fenk,  J. Fosso-Tande,  
 J. Gayvert,  Qinghui Ge,  A. Ghysels,  G. Gidofalvi,  J. Gomes,  
 J. Gonthier,  A. Gunina,  D. Hait,  M. W. D. Hanson-Heine,  
 P. H. P. Harbach,  A. W. Hauser,  M. F. Herbst,  J. E. Herr,  
 E. G. Hohenstein,  Z. C. Holden,  Kerwin Hui,  B. C. Huynh,  T.-C. Jagau,  
 Hyunjun Ji,  B. Kaduk,  K. Khistyaev,  Jaehoon Kim,  P. Klunzinger,  K. Koh,  
 D. Kosenkov,  L. Koulias,  T. Kowalczyk,  C. M. Krauter,  A. Kunitsa,  
 Ka Un Lao,  A. Laurent,  K. V. Lawler,  Joonho Lee,  D. Lefrancois,  
 S. Lehtola,  D. S. Levine,  Yi-Pei Li,  You-Sheng Lin,  Fenglai Liu,  
 E. Livshits,  A. Luenser,  P. Manohar,  E. Mansoor,  S. F. Manzer,  
 Shan-Ping Mao,  Yuezhi Mao,  N. Mardirossian,  A. V. Marenich,  
 T. Markovich,  L. A. Martinez-Martinez,  S. A. Maurer,  N. J. Mayhall,  
 S. C. McKenzie,  J.-M. Mewes,  P. Morgante,  A. F. Morrison,  
 J. W. Mullinax,  K. Nanda,  T. S. Nguyen-Beck,  R. Olivares-Amaya,  
 J. A. Parkhill,  Zheng Pei,  T. M. Perrine,  F. Plasser,  P. Pokhilko,  
 S. Prager,  A. Prociuk,  E. Ramos,  D. R. Rehn,  F. Rob,  M. Scheurer,  
 M. Schneider,  N. Sergueev,  S. M. Sharada,  S. Sharma,  D. W. Small,  
 T. Stauch,  T. Stein,  Yu-Chuan Su,  A. J. W. Thom,  A. Tkatchenko,  
 T. Tsuchimochi,  N. M. Tubman,  L. Vogt,  M. L. Vidal,  O. Vydrov,  
 M. A. Watson,  J. Wenzel,  M. de Wergifosse,  T. A. Wesolowski,  A. White,  
 J. Witte,  A. Yamada,  Jun Yang,  K. Yao,  S. Yeganeh,  S. R. Yost,  
 Zhi-Qiang You,  A. Zech,  Igor Ying Zhang,  Xing Zhang,  Yan Zhao,  
 Ying Zhu,  B. R. Brooks,  G. K. L. Chan,  C. J. Cramer,  M. S. Gordon,  
 W. J. Hehre,  A. Klamt,  M. W. Schmidt,  C. D. Sherrill,  D. G. Truhlar,  
 A. Aspuru-Guzik,  R. Baer,  A. T. Bell,  N. A. Besley,  Jeng-Da Chai,  
 A. E. DePrince, III,  R. A. DiStasio Jr.,  A. Dreuw,  B. D. Dunietz,  
 T. R. Furlani,  Chao-Ping Hsu,  Yousung Jung,  Jing Kong,  D. S. Lambrecht,  
 WanZhen Liang,  C. Ochsenfeld,  V. A. Rassolov,  L. V. Slipchenko,  
 J. E. Subotnik,  T. Van Voorhis,  J. M. Herbert,  A. I. Krylov,  
 P. M. W. Gill,  M. Head-Gordon

 Contributors to earlier versions of Q-Chem not listed above: 
 R. D. Adamson,  B. Austin,  J. Baker,  G. J. O. Beran,  K. Brandhorst,  
 S. T. Brown,  E. F. C. Byrd,  A. K. Chakraborty,  C.-L. Cheng,  
 Siu Hung Chien,  D. M. Chipman,  D. L. Crittenden,  H. Dachsel,  
 R. J. Doerksen,  A. D. Dutoi,  L. Fusti-Molnar,  W. A. Goddard III,  
 A. Golubeva-Zadorozhnaya,  S. R. Gwaltney,  G. Hawkins,  A. Heyden,  
 S. Hirata,  G. Kedziora,  F. J. Keil,  C. Kelley,  Jihan Kim,  R. A. King,  
 R. Z. Khaliullin,  P. P. Korambath,  W. Kurlancheek,  A. M. Lee,  M. S. Lee,  
 S. V. Levchenko,  Ching Yeh Lin,  D. Liotard,  R. C. Lochan,  I. Lotan,  
 P. E. Maslen,  N. Nair,  D. P. O'Neill,  D. Neuhauser,  E. Neuscamman,  
 C. M. Oana,  R. Olson,  B. Peters,  R. Peverati,  P. A. Pieniazek,  
 Y. M. Rhee,  J. Ritchie,  M. A. Rohrdanz,  E. Rosta,  N. J. Russ,  
 H. F. Schaefer III,  N. E. Schultz,  N. Shenvi,  A. C. Simmonett,  A. Sodt,  
 D. Stuck,  K. S. Thanthiriwatte,  V. Vanovschi,  Tao Wang,  A. Warshel,  
 C. F. Williams,  Q. Wu,  X. Xu,  W. Zhang

 Please cite Q-Chem as follows:
 Y. Shao et al., Mol. Phys. 113, 184-215 (2015)
 DOI: 10.1080/00268976.2014.952696

 Q-Chem 5.2.0 for Intel X86 EM64T Linux

 Parts of Q-Chem use Armadillo 8.300.2 (Tropical Shenanigans).
 http://arma.sourceforge.net/

 Q-Chem begins on Sun Sep 26 13:53:59 2021  

Host: cori01
0

     Scratch files written to /tmp/qchem3569//Frg1//
 May1019 |scratch|qcdevops|jenkins|workspace|build_RNUM -1
Processing $rem in /global/common/cori/software/qchem/5.2/config/preferences:
	 MEM_TOTAL  96000 
NAlpha2: 32
NElect   32
Mult     1
Symmetry turned off for PCM/SM12/SMD calculation

Checking the input file for inconsistencies... 	...done.

--------------------------------------------------------------
User input:
--------------------------------------------------------------
$molecule
-1 1
 6	-0.4325445746	1.2693567826	-2.3288600744
 6	-0.4965445746	-0.2396432174	-2.1048600744
 8	-0.0145445746	-0.9806432174	-2.9818600744
 8	-1.0225445746	-0.6856432174	-1.0598600744
 1	-0.3775445746	1.5013567826	-3.3958600744
 1	0.4874554254	1.6553567826	-1.8808600744
 1	-1.2818645746	1.8115367826	-1.8876200744
$end
$rem
EDA2		1
METHOD		WB97X-V
BASIS		DEF2-TZVPD
XC_GRID		000099000590
NL_GRID		1
UNRESTRICTED		FALSE
MAX_SCF_CYCLES		200
SYMMETRY		FALSE
SYM_IGNORE		TRUE
BASIS_LIN_DEP_THRESH		6
THRESH		14
SCF_CONVERGENCE		8
SCF_PRINT_FRGM		TRUE
SOLVENT_METHOD		PCM
!required keywords
JOBTYPE		SP
SYM_IGNORE		TRUE
SUBSYSTEM		TRUE
GEN_SCFMAN		TRUE
CHILD_INSTRUCTION		2
SYM_IGNORE		TRUE
SCFMI		0
RI_K 0		
PARI_K 0		
MIN_PARI_K 0		
IARI_K 0		
OCC_RI_K 0		
PURECART		1111
MEM_STATIC		2000
MEM_TOTAL		96000
GUI		0
CHILD_MP		1
CHILD_MP_ORDERS		232
FRZ_RELAX		0
FRZ_RELAX_METHOD		0
EDA_CLS_ELEC		1
EDA_CLS_DISP		0
FRZ_ORTHO_DECOMP		1
EDA2		FALSE
FRGM_METHOD		FALSE
CIS_N_ROOTS  0
LOCAL_CIS    0
CIS_RLX_DNS  1
$end
$pcm
THEORY                  CPCM
METHOD                  SWIG
SOLVER                  INVERSION
RADII                   UFF
HPOINTS                 302
HEAVYPOINTS             302
PRINTLEVEL              0
$end
$solvent
DIELECTRIC              78.390000 ! water
$end
--------------------------------------------------------------
 ----------------------------------------------------------------
             Standard Nuclear Orientation (Angstroms)
    I     Atom           X                Y                Z
 ----------------------------------------------------------------
    1      C      -0.4325445746     1.2693567826    -2.3288600744
    2      C      -0.4965445746    -0.2396432174    -2.1048600744
    3      O      -0.0145445746    -0.9806432174    -2.9818600744
    4      O      -1.0225445746    -0.6856432174    -1.0598600744
    5      H      -0.3775445746     1.5013567826    -3.3958600744
    6      H       0.4874554254     1.6553567826    -1.8808600744
    7      H      -1.2818645746     1.8115367826    -1.8876200744
 ----------------------------------------------------------------
 Nuclear Repulsion Energy =         112.61454856 hartrees
 There are       16 alpha and       16 beta electrons
 Requested basis set is def2-TZVPD
 There are 69 shells and 181 basis functions

 Total QAlloc Memory Limit  96000 MB
 Mega-Array Size      1956 MB
 MEM_STATIC part      2000 MB
 Discretize the solute cavity surface with Lebedev spheres
	Using 302 Lebedev grid points for each H atom
	Using 302 Lebedev grid points for other atoms
	Atomic van der Waals radii will be scaled by 1.20
 Remove points where switching function is < 1.0e-08
 Keep 1016 surface tesserae and discard 1098 interior tesserae
 Molecular Surface Area = 120.126 Angst**2

                       Distance Matrix (Angstroms)
             C (  1)   C (  2)   O (  3)   O (  4)   H (  5)   H (  6)
   C (  2)  1.526877
   O (  3)  2.379839  1.245204
   O (  4)  2.404264  1.252045  2.190245
   H (  5)  1.093315  2.170696  2.542339  3.264336
   H (  6)  1.093664  2.146965  2.900466  2.904208  1.751333
   H (  7)  1.099998  2.207093  3.255723  2.643547  1.785720  1.776213

 
 A cutoff of  1.0D-14 yielded   2390 shell pairs
 There are     16694 function pairs (     21490 Cartesian)
 Smallest overlap matrix eigenvalue = 1.74E-05

 Scale SEOQF with 1.000000e-01/1.000000e-01/1.000000e-01

 Standard Electronic Orientation quadrupole field applied
 Nucleus-field energy     =    -0.0000000143 hartrees
 Guess from superposition of atomic densities
 Warning:  Energy on first SCF cycle will be non-variational
 SAD guess density has 30.625312 electrons

 -----------------------------------------------------------------------
  General SCF calculation program by
  Eric Jon Sundstrom, Paul Horn, Yuezhi Mao, Dmitri Zuev, Alec White,
  David Stuck, Shaama M.S., Shane Yost, Joonho Lee, David Small,
  Daniel Levine, Susi Lehtola, Hugh Burton, Evgeny Epifanovsky
 -----------------------------------------------------------------------
 Exchange:     0.1670 Hartree-Fock + 1.0000 wB97X-V + LR-HF
 Correlation:  1.0000 wB97X-V
 Using Euler-Maclaurin-Lebedev (99,590) quadrature formula
 Nonlocal Correlation:  VV10 with C = 0.0100 and b = 6.00 and scale = 1.00000
 Grid used for NLC:  SG-1 standard quadrature
Energy prior to optimization (guess energy) = -227.763697389763
Begin Timing: Total SCF Calculation
begin iterations for algorithm: DIIS         
the SCF tolerance is set to 1.00e-08
    1    -227.7636973898      1.66e-02     00000 
    2    -225.6020634579      2.54e-02     00000 
    3    -228.5770664028      4.13e-03     00000 
    4    -228.6360468310      1.37e-03     00000 
    5    -228.6421233291      2.11e-04     00000 
    6    -228.6423520208      1.37e-04     00000 
    7    -228.6424015502      5.53e-05     00000 
    8    -228.6424131376      1.39e-05     00000 
    9    -228.6424144289      2.89e-06     00000 
   10    -228.6424145305      3.97e-07     00000 
   11    -228.6424145332      1.55e-07     00000 
   12    -228.6424145335      5.84e-08     00000 
   13    -228.6424145336      1.68e-08     00000 
   14    -228.6424145336      2.76e-09     00000 Convergence criterion met
Timing for Total SCF: 277.00s (wall), 543.92s (cpu)

************** Final PCM Free Energy Summary **************
 G_electrostatic  =      -0.10188444 hartree =     -63.93345374 kcal/mol
 G_cavitation     =       0.00000000 hartree =       0.00000000 kcal/mol
 G_dispersion     =       0.00000000 hartree =       0.00000000 kcal/mol
 G_repulsion      =       0.00000000 hartree =       0.00000000 kcal/mol
 --------------------------------------------------
 Non-electrostatic Free Energy =       0.00000000 hartree =       0.00000000 kcal/mol
 Total                         =      -0.10188444 hartree =     -63.93345374 kcal/mol
 --------------------------------------------------
 SCF Energy (H0 + V/2)                       =    -228.64241453 
 Solute Internal Energy (H0)                 =    -228.54053009 
 Total Free Energy (H0 + V/2 + non-elec)     =    -228.64241453 hartree
                                             = -143475.28059212 kcal/mol
***********************************************************

E_pcm = -0.1018844443
Multipole orders to be included
        2
        3
computing dipole RHS
computing quadrupole RHS
total number of RHS in solve_reponses: 8
RHS batch sizes
        8
Beginning Block Conjugate Gradient Iterations. Batch Number: 0
computing hessian-vector products by finite difference
              1      6.90e-01     00000 Conjugate Gradient Iteration
computing hessian-vector products by finite difference
              2      2.41e-01     00000 Conjugate Gradient Iteration
computing hessian-vector products by finite difference
              3      6.42e-02     00000 Conjugate Gradient Iteration
computing hessian-vector products by finite difference
              4      1.72e-02     00000 Conjugate Gradient Iteration
computing hessian-vector products by finite difference
              5      3.03e-03     00000 Conjugate Gradient Iteration
computing hessian-vector products by finite difference
              6      7.29e-04     00000 Conjugate Gradient Iteration
computing hessian-vector products by finite difference
              7      1.20e-04     00000 Conjugate Gradient Iteration
computing hessian-vector products by finite difference
              8      1.48e-05     00000 Conjugate Gradient Iteration
computing hessian-vector products by finite difference
              9      2.33e-06     00000 Conjugate Gradient Iteration
computing hessian-vector products by finite difference
             10      2.68e-07     00000 Conjugate Gradient Iteration
computing hessian-vector products by finite difference
             11      5.56e-08     00000 Conjugate Gradient Iteration
computing hessian-vector products by finite difference
             12      7.80e-09     00000 CG Converged
batch 0 complete
Done Calculating Responses
TESTING ORTHOGONALIZATION OF MULTIPOLE BASIS
Multipole virts passed orthogonality test
Virts Per Order
        48
        80
 
 --------------------------------------------------------------
 
                    Orbital Energies (a.u.)
 --------------------------------------------------------------
 
 Alpha MOs
 -- Occupied --
-19.1214 -19.1210 -10.3248 -10.2406  -1.1336  -1.0317  -0.8277  -0.5932
 -0.5273  -0.5181  -0.5154  -0.4632  -0.4431  -0.3289  -0.3265  -0.3081
 -- Virtual --
  0.0633   0.0953   0.0956   0.1054   0.1303   0.1403   0.1426   0.1460
  0.1686   0.1905   0.2002   0.2195   0.2340   0.2354   0.2628   0.2695
  0.2985   0.3097   0.3341   0.3477   0.3565   0.3661   0.3717   0.3749
  0.3869   0.4082   0.4243   0.4305   0.4323   0.4593   0.4731   0.4786
  0.4927   0.4945   0.5047   0.5226   0.5581   0.5836   0.5972   0.6128
  0.6375   0.6432   0.6478   0.6604   0.6687   0.6799   0.6887   0.7120
  0.7230   0.7336   0.7914   0.7984   0.8104   0.8235   0.8531   0.8536
  0.8655   0.9827   0.9985   1.0060   1.0086   1.0388   1.0739   1.1021
  1.1497   1.2423   1.2563   1.2635   1.2913   1.3167   1.3571   1.3883
  1.4358   1.5563   1.6051   1.7453   1.8274   1.8685   1.8876   1.9238
  1.9276   1.9515   1.9642   1.9746   2.0247   2.1084   2.1320   2.1989
  2.2002   2.2232   2.3152   2.3410   2.4205   2.4651   2.4796   2.5003
  2.5740   2.5822   2.6492   2.6618   2.7813   2.8180   2.8517   2.9159
  2.9447   3.0371   3.0978   3.1377   3.2265   3.2337   3.2823   3.2937
  3.3501   3.3600   3.3906   3.4050   3.4197   3.5351   3.5981   3.6012
  3.6224   3.6778   3.7209   3.7453   3.7478   3.8313   3.9750   4.0470
  4.0895   4.2235   4.3325   4.5724   4.6163   4.6475   4.8028   4.8222
  4.9874   5.3330   5.3599   5.3691   5.3780   5.5030   5.7165   5.7833
  5.8307   6.0360   6.2461   6.3439   6.3667   6.6298   6.6328   6.7258
  6.7511   6.7632   6.9572   6.9847   7.0500   7.2504   7.3527   7.3933
  7.4202  22.5817  23.7445  44.2221  44.3737
 --------------------------------------------------------------
 
          Ground-State Mulliken Net Atomic Charges

     Atom                 Charge (a.u.)
  ----------------------------------------
      1 C                    -0.421093
      2 C                     0.300302
      3 O                    -0.668139
      4 O                    -0.678952
      5 H                     0.165312
      6 H                     0.129655
      7 H                     0.172916
  ----------------------------------------
  Sum of atomic charges =    -1.000000

 -----------------------------------------------------------------
                    Cartesian Multipole Moments
 -----------------------------------------------------------------
    Charge (ESU x 10^10)
                -4.8032
    Dipole Moment (Debye)
         X       2.6115      Y       5.6262      Z       9.4224
       Tot      11.2808
    Quadrupole Moments (Debye-Ang)
        XX     -29.1586     XY      -2.2768     YY     -32.1646
        XZ      -0.8617     YZ     -12.3507     ZZ     -52.2111
    Octopole Moments (Debye-Ang^2)
       XXX      41.5295    XXY       4.9088    XYY      14.7767
       YYY      11.1599    XXZ      57.8107    XYZ       1.9885
       YYZ      69.7396    XZZ       9.3665    YZZ      34.8783
       ZZZ     248.6426
    Hexadecapole Moments (Debye-Ang^3)
      XXXX     -98.3689   XXXY      -5.8390   XXYY     -47.0592
      XYYY      -5.0830   YYYY    -196.7734   XXXZ     -62.3146
      XXYZ      -5.0939   XYYZ     -22.8099   YYYZ     -19.1029
      XXZZ    -154.6955   XYZZ      -1.9551   YYZZ    -205.7158
      XZZZ     -46.5511   YZZZ    -105.3420   ZZZZ   -1088.1727
 -----------------------------------------------------------------
Archival summary:
1\1\nid00541\SP\ProcedureUnspecified\BasisUnspecified\223(1-,1)\meili\SunSep2615:13:022021SunSep2615:13:022021\0\\#,ProcedureUnspecified,BasisUnspecified,\\-1,1\C\O,1,1.2452\O,1,1.25205,2,122.58\C,1,1.52688,2,117.941,3,179.9,0\H,4,1.09332,1,110.793,2,25.2651,0\H,4,1.09366,1,108.903,2,-91.4474,0\H,4,1.1,1,113.323,2,148.162,0\\\@

 Total job time:  4743.05s(wall), 9277.09s(cpu) 
 Sun Sep 26 15:13:02 2021

        *************************************************************
        *                                                           *
        *  Thank you very much for using Q-Chem.  Have a nice day.  *
        *                                                           *
        *************************************************************


Done Job For Fragment 0
calling putenv with: QCSCRATCH=/global/cscratch1/sd/meili 
calling putenv with: QCLOCALSCR=/tmp 
calling putenv with: QCTHREADS=32 
Creating input file /tmp/qchem3569/Frg2.input
using default PutDataFrgm: nothing
calling putenv with: QCSCRATCH=/tmp/qchem3569/ 
calling putenv with: QCLOCALSCR=/tmp/qchem3569/ 
Spawning Job For Fragment 1
                  Welcome to Q-Chem
     A Quantum Leap Into The Future Of Chemistry


 Q-Chem 5.2, Q-Chem, Inc., Pleasanton, CA (2019)

 License issued to: National Energy Research Scientific Computing Center

 Yihan Shao,  Zhengting Gan,  E. Epifanovsky,  A. T. B. Gilbert,  M. Wormit,  
 J. Kussmann,  A. W. Lange,  A. Behn,  Jia Deng,  Xintian Feng,  D. Ghosh,  
 M. Goldey,  P. R. Horn,  L. D. Jacobson,  I. Kaliman,  T. Kus,  A. Landau,  
 Jie Liu,  E. I. Proynov,  R. M. Richard,  R. P. Steele,  E. J. Sundstrom,  
 H. L. Woodcock III,  P. M. Zimmerman,  D. Zuev,  B. Albrecht,  E. Alguire,  
 S. A. Baeppler,  D. Barton,  Z. Benda,  Y. A. Bernard,  E. J. Berquist,  
 K. B. Bravaya,  H. Burton,  D. Casanova,  Chun-Min Chang,  Yunqing Chen,  
 A. Chien,  K. D. Closser,  M. P. Coons,  S. Coriani,  S. Dasgupta,  
 A. L. Dempwolff,  M. Diedenhofen,  Hainam Do,  R. G. Edgar,  Po-Tung Fang,  
 S. Faraji,  S. Fatehi,  Qingguo Feng,  K. D. Fenk,  J. Fosso-Tande,  
 J. Gayvert,  Qinghui Ge,  A. Ghysels,  G. Gidofalvi,  J. Gomes,  
 J. Gonthier,  A. Gunina,  D. Hait,  M. W. D. Hanson-Heine,  
 P. H. P. Harbach,  A. W. Hauser,  M. F. Herbst,  J. E. Herr,  
 E. G. Hohenstein,  Z. C. Holden,  Kerwin Hui,  B. C. Huynh,  T.-C. Jagau,  
 Hyunjun Ji,  B. Kaduk,  K. Khistyaev,  Jaehoon Kim,  P. Klunzinger,  K. Koh,  
 D. Kosenkov,  L. Koulias,  T. Kowalczyk,  C. M. Krauter,  A. Kunitsa,  
 Ka Un Lao,  A. Laurent,  K. V. Lawler,  Joonho Lee,  D. Lefrancois,  
 S. Lehtola,  D. S. Levine,  Yi-Pei Li,  You-Sheng Lin,  Fenglai Liu,  
 E. Livshits,  A. Luenser,  P. Manohar,  E. Mansoor,  S. F. Manzer,  
 Shan-Ping Mao,  Yuezhi Mao,  N. Mardirossian,  A. V. Marenich,  
 T. Markovich,  L. A. Martinez-Martinez,  S. A. Maurer,  N. J. Mayhall,  
 S. C. McKenzie,  J.-M. Mewes,  P. Morgante,  A. F. Morrison,  
 J. W. Mullinax,  K. Nanda,  T. S. Nguyen-Beck,  R. Olivares-Amaya,  
 J. A. Parkhill,  Zheng Pei,  T. M. Perrine,  F. Plasser,  P. Pokhilko,  
 S. Prager,  A. Prociuk,  E. Ramos,  D. R. Rehn,  F. Rob,  M. Scheurer,  
 M. Schneider,  N. Sergueev,  S. M. Sharada,  S. Sharma,  D. W. Small,  
 T. Stauch,  T. Stein,  Yu-Chuan Su,  A. J. W. Thom,  A. Tkatchenko,  
 T. Tsuchimochi,  N. M. Tubman,  L. Vogt,  M. L. Vidal,  O. Vydrov,  
 M. A. Watson,  J. Wenzel,  M. de Wergifosse,  T. A. Wesolowski,  A. White,  
 J. Witte,  A. Yamada,  Jun Yang,  K. Yao,  S. Yeganeh,  S. R. Yost,  
 Zhi-Qiang You,  A. Zech,  Igor Ying Zhang,  Xing Zhang,  Yan Zhao,  
 Ying Zhu,  B. R. Brooks,  G. K. L. Chan,  C. J. Cramer,  M. S. Gordon,  
 W. J. Hehre,  A. Klamt,  M. W. Schmidt,  C. D. Sherrill,  D. G. Truhlar,  
 A. Aspuru-Guzik,  R. Baer,  A. T. Bell,  N. A. Besley,  Jeng-Da Chai,  
 A. E. DePrince, III,  R. A. DiStasio Jr.,  A. Dreuw,  B. D. Dunietz,  
 T. R. Furlani,  Chao-Ping Hsu,  Yousung Jung,  Jing Kong,  D. S. Lambrecht,  
 WanZhen Liang,  C. Ochsenfeld,  V. A. Rassolov,  L. V. Slipchenko,  
 J. E. Subotnik,  T. Van Voorhis,  J. M. Herbert,  A. I. Krylov,  
 P. M. W. Gill,  M. Head-Gordon

 Contributors to earlier versions of Q-Chem not listed above: 
 R. D. Adamson,  B. Austin,  J. Baker,  G. J. O. Beran,  K. Brandhorst,  
 S. T. Brown,  E. F. C. Byrd,  A. K. Chakraborty,  C.-L. Cheng,  
 Siu Hung Chien,  D. M. Chipman,  D. L. Crittenden,  H. Dachsel,  
 R. J. Doerksen,  A. D. Dutoi,  L. Fusti-Molnar,  W. A. Goddard III,  
 A. Golubeva-Zadorozhnaya,  S. R. Gwaltney,  G. Hawkins,  A. Heyden,  
 S. Hirata,  G. Kedziora,  F. J. Keil,  C. Kelley,  Jihan Kim,  R. A. King,  
 R. Z. Khaliullin,  P. P. Korambath,  W. Kurlancheek,  A. M. Lee,  M. S. Lee,  
 S. V. Levchenko,  Ching Yeh Lin,  D. Liotard,  R. C. Lochan,  I. Lotan,  
 P. E. Maslen,  N. Nair,  D. P. O'Neill,  D. Neuhauser,  E. Neuscamman,  
 C. M. Oana,  R. Olson,  B. Peters,  R. Peverati,  P. A. Pieniazek,  
 Y. M. Rhee,  J. Ritchie,  M. A. Rohrdanz,  E. Rosta,  N. J. Russ,  
 H. F. Schaefer III,  N. E. Schultz,  N. Shenvi,  A. C. Simmonett,  A. Sodt,  
 D. Stuck,  K. S. Thanthiriwatte,  V. Vanovschi,  Tao Wang,  A. Warshel,  
 C. F. Williams,  Q. Wu,  X. Xu,  W. Zhang

 Please cite Q-Chem as follows:
 Y. Shao et al., Mol. Phys. 113, 184-215 (2015)
 DOI: 10.1080/00268976.2014.952696

 Q-Chem 5.2.0 for Intel X86 EM64T Linux

 Parts of Q-Chem use Armadillo 8.300.2 (Tropical Shenanigans).
 http://arma.sourceforge.net/

 Q-Chem begins on Sun Sep 26 15:13:04 2021  

Host: cori01
0

     Scratch files written to /tmp/qchem3569//Frg2//
 May1019 |scratch|qcdevops|jenkins|workspace|build_RNUM -1
Processing $rem in /global/common/cori/software/qchem/5.2/config/preferences:
	 MEM_TOTAL  96000 
NAlpha2: 40
NElect   40
Mult     1
Symmetry turned off for PCM/SM12/SMD calculation

Checking the input file for inconsistencies... 	...done.

--------------------------------------------------------------
User input:
--------------------------------------------------------------
$molecule
-1 1
 6	0.9814554254	-0.7266432174	1.3971399256
 6	0.1624554254	-1.8066432174	2.1031399256
 6	0.4294554254	0.6783567826	1.6181399256
 8	-0.5185445746	0.8453567826	2.4191399256
 8	0.9614554254	1.6253567826	0.9941399256
 1	1.9974554254	-0.7726432174	1.7971399256
 1	1.0684554254	-0.9336432174	0.3311399256
 1	-0.9045445746	-1.6226432174	1.9701399256
 1	0.3894554254	-1.7666432174	3.1691399256
 1	0.3798754254	-2.8138132174	1.7179829256
$end
$rem
EDA2		1
METHOD		WB97X-V
BASIS		DEF2-TZVPD
XC_GRID		000099000590
NL_GRID		1
UNRESTRICTED		FALSE
MAX_SCF_CYCLES		200
SYMMETRY		FALSE
SYM_IGNORE		TRUE
BASIS_LIN_DEP_THRESH		6
THRESH		14
SCF_CONVERGENCE		8
SCF_PRINT_FRGM		TRUE
SOLVENT_METHOD		PCM
!required keywords
JOBTYPE		SP
SYM_IGNORE		TRUE
SUBSYSTEM		TRUE
GEN_SCFMAN		TRUE
CHILD_INSTRUCTION		2
SYM_IGNORE		TRUE
SCFMI		0
RI_K 0		
PARI_K 0		
MIN_PARI_K 0		
IARI_K 0		
OCC_RI_K 0		
PURECART		1111
MEM_STATIC		2000
MEM_TOTAL		96000
GUI		0
CHILD_MP		1
CHILD_MP_ORDERS		232
FRZ_RELAX		0
FRZ_RELAX_METHOD		0
EDA_CLS_ELEC		1
EDA_CLS_DISP		0
FRZ_ORTHO_DECOMP		1
EDA2		FALSE
FRGM_METHOD		FALSE
CIS_N_ROOTS  0
LOCAL_CIS    0
CIS_RLX_DNS  1
$end
$pcm
THEORY                  CPCM
METHOD                  SWIG
SOLVER                  INVERSION
RADII                   UFF
HPOINTS                 302
HEAVYPOINTS             302
PRINTLEVEL              0
$end
$solvent
DIELECTRIC              78.390000 ! water
$end
--------------------------------------------------------------
 ----------------------------------------------------------------
             Standard Nuclear Orientation (Angstroms)
    I     Atom           X                Y                Z
 ----------------------------------------------------------------
    1      C       0.9814554254    -0.7266432174     1.3971399256
    2      C       0.1624554254    -1.8066432174     2.1031399256
    3      C       0.4294554254     0.6783567826     1.6181399256
    4      O      -0.5185445746     0.8453567826     2.4191399256
    5      O       0.9614554254     1.6253567826     0.9941399256
    6      H       1.9974554254    -0.7726432174     1.7971399256
    7      H       1.0684554254    -0.9336432174     0.3311399256
    8      H      -0.9045445746    -1.6226432174     1.9701399256
    9      H       0.3894554254    -1.7666432174     3.1691399256
   10      H       0.3798754254    -2.8138132174     1.7179829256
 ----------------------------------------------------------------
 Nuclear Repulsion Energy =         169.31883591 hartrees
 There are       20 alpha and       20 beta electrons
 Requested basis set is def2-TZVPD
 There are 92 shells and 236 basis functions

 Total QAlloc Memory Limit  96000 MB
 Mega-Array Size      1956 MB
 MEM_STATIC part      2000 MB
 Discretize the solute cavity surface with Lebedev spheres
	Using 302 Lebedev grid points for each H atom
	Using 302 Lebedev grid points for other atoms
	Atomic van der Waals radii will be scaled by 1.20
 Remove points where switching function is < 1.0e-08
 Keep 1281 surface tesserae and discard 1739 interior tesserae
 Molecular Surface Area = 143.264 Angst**2

                       Distance Matrix (Angstroms)
             C (  1)   C (  2)   C (  3)   O (  4)   O (  5)   H (  6)
   C (  2)  1.528266
   C (  3)  1.525638  2.545926
   O (  4)  2.401181  2.756215  1.252276
   O (  5)  2.386360  3.694172  1.252681  2.197595
   H (  6)  1.092873  2.128384  2.143844  3.055334  2.732857
   H (  7)  1.089392  2.173235  2.159452  3.169094  2.645657  1.743020
   H (  8)  2.165212  1.090887  2.682920  2.538035  3.870922  3.028867
   H (  9)  2.138235  1.090635  2.895725  2.865224  4.069825  2.335826
   H ( 10)  2.195704  1.100004  3.493949  3.832532  4.535241  2.605610
             H (  7)   H (  8)   H (  9)
   H (  8)  2.655894
   H (  9)  3.034662  1.769964
   H ( 10)  2.435676  1.769803  1.789557
 
 A cutoff of  1.0D-14 yielded   4189 shell pairs
 There are     27991 function pairs (     35665 Cartesian)
 Smallest overlap matrix eigenvalue = 8.21E-06

 Scale SEOQF with 1.000000e-01/1.000000e-01/1.000000e-01

 Standard Electronic Orientation quadrupole field applied
 Nucleus-field energy     =    -0.0000000082 hartrees
 Guess from superposition of atomic densities
 Warning:  Energy on first SCF cycle will be non-variational
 SAD guess density has 38.612942 electrons

 -----------------------------------------------------------------------
  General SCF calculation program by
  Eric Jon Sundstrom, Paul Horn, Yuezhi Mao, Dmitri Zuev, Alec White,
  David Stuck, Shaama M.S., Shane Yost, Joonho Lee, David Small,
  Daniel Levine, Susi Lehtola, Hugh Burton, Evgeny Epifanovsky
 -----------------------------------------------------------------------
 Exchange:     0.1670 Hartree-Fock + 1.0000 wB97X-V + LR-HF
 Correlation:  1.0000 wB97X-V
 Using Euler-Maclaurin-Lebedev (99,590) quadrature formula
 Nonlocal Correlation:  VV10 with C = 0.0100 and b = 6.00 and scale = 1.00000
 Grid used for NLC:  SG-1 standard quadrature
Energy prior to optimization (guess energy) = -267.068894904120
Begin Timing: Total SCF Calculation
begin iterations for algorithm: DIIS         
the SCF tolerance is set to 1.00e-08
    1    -267.0688949041      1.28e-02     00000 
    2    -263.1141843954      2.08e-02     00000 
    3    -267.7974277087      4.98e-03     00000 
    4    -267.9299744828      2.15e-03     00000 
    5    -267.9558285451      3.43e-04     00000 
    6    -267.9568982737      1.82e-04     00000 
    7    -267.9570437519      7.04e-05     00000 
    8    -267.9570708320      1.57e-05     00000 
    9    -267.9570729149      5.81e-06     00000 
   10    -267.9570732385      2.09e-06     00000 
   11    -267.9570733056      3.47e-07     00000 
   12    -267.9570733096      1.05e-07     00000 
   13    -267.9570733098      4.51e-08     00000 
   14    -267.9570733098      1.33e-08     00000 
   15    -267.9570733098      1.88e-09     00000 Convergence criterion met
Timing for Total SCF: 623.00s (wall), 1233.61s (cpu)

************** Final PCM Free Energy Summary **************
 G_electrostatic  =      -0.10040827 hartree =     -63.00713930 kcal/mol
 G_cavitation     =       0.00000000 hartree =       0.00000000 kcal/mol
 G_dispersion     =       0.00000000 hartree =       0.00000000 kcal/mol
 G_repulsion      =       0.00000000 hartree =       0.00000000 kcal/mol
 --------------------------------------------------
 Non-electrostatic Free Energy =       0.00000000 hartree =       0.00000000 kcal/mol
 Total                         =      -0.10040827 hartree =     -63.00713930 kcal/mol
 --------------------------------------------------
 SCF Energy (H0 + V/2)                       =    -267.95707331 
 Solute Internal Energy (H0)                 =    -267.85666504 
 Total Free Energy (H0 + V/2 + non-elec)     =    -267.95707331 hartree
                                             = -168145.60132334 kcal/mol
***********************************************************

E_pcm = -0.1004082683
Multipole orders to be included
        2
        3
computing dipole RHS
computing quadrupole RHS
total number of RHS in solve_reponses: 8
RHS batch sizes
        8
Beginning Block Conjugate Gradient Iterations. Batch Number: 0
computing hessian-vector products by finite difference
              1      5.87e-01     00000 Conjugate Gradient Iteration
computing hessian-vector products by finite difference
              2      2.15e-01     00000 Conjugate Gradient Iteration
computing hessian-vector products by finite difference
              3      5.67e-02     00000 Conjugate Gradient Iteration
computing hessian-vector products by finite difference
              4      1.44e-02     00000 Conjugate Gradient Iteration
computing hessian-vector products by finite difference
              5      2.73e-03     00000 Conjugate Gradient Iteration
computing hessian-vector products by finite difference
              6      5.21e-04     00000 Conjugate Gradient Iteration
computing hessian-vector products by finite difference
              7      8.84e-05     00000 Conjugate Gradient Iteration
computing hessian-vector products by finite difference
              8      2.02e-05     00000 Conjugate Gradient Iteration
computing hessian-vector products by finite difference
              9      3.62e-06     00000 Conjugate Gradient Iteration
computing hessian-vector products by finite difference
             10      5.38e-07     00000 Conjugate Gradient Iteration
computing hessian-vector products by finite difference
             11      1.10e-07     00000 Conjugate Gradient Iteration
computing hessian-vector products by finite difference
             12      2.33e-08     00000 Conjugate Gradient Iteration
computing hessian-vector products by finite difference
             13      4.92e-09     00000 CG Converged
batch 0 complete
Done Calculating Responses
TESTING ORTHOGONALIZATION OF MULTIPOLE BASIS
Multipole virts passed orthogonality test
Virts Per Order
           60
          100
 
 --------------------------------------------------------------
 
                    Orbital Energies (a.u.)
 --------------------------------------------------------------
 
 Alpha MOs
 -- Occupied --
-19.1210 -19.1193 -10.3217 -10.2436 -10.2393  -1.1304  -1.0294  -0.8792
 -0.7413  -0.5944  -0.5548  -0.5338  -0.5010  -0.4757  -0.4622  -0.4388
 -0.4228  -0.3268  -0.3239  -0.3068
 -- Virtual --
  0.0637   0.0831   0.0917   0.1023   0.1178   0.1297   0.1385   0.1422
  0.1577   0.1712   0.1776   0.1977   0.2032   0.2108   0.2210   0.2353
  0.2534   0.2618   0.2716   0.2866   0.2986   0.3126   0.3144   0.3195
  0.3362   0.3439   0.3535   0.3669   0.3813   0.3896   0.3952   0.3989
  0.4060   0.4143   0.4171   0.4230   0.4355   0.4527   0.4595   0.4723
  0.4835   0.4915   0.5011   0.5075   0.5142   0.5220   0.5381   0.5399
  0.5491   0.5596   0.5825   0.5964   0.6105   0.6266   0.6291   0.6468
  0.6705   0.6768   0.6943   0.6996   0.7170   0.7247   0.7323   0.7538
  0.7698   0.7813   0.7864   0.8016   0.8121   0.8141   0.8171   0.8232
  0.8391   0.8502   0.8696   0.8902   0.9133   0.9721   1.0030   1.0228
  1.0318   1.0520   1.0781   1.0968   1.1342   1.1573   1.1636   1.2126
  1.2559   1.2816   1.3003   1.3225   1.3563   1.3937   1.3966   1.4100
  1.4218   1.4532   1.5054   1.6155   1.7002   1.7690   1.8365   1.8896
  1.9177   1.9241   1.9298   1.9568   1.9625   1.9736   1.9837   2.0013
  2.0211   2.0425   2.0938   2.1540   2.1783   2.2004   2.2213   2.2428
  2.2736   2.3182   2.3569   2.4040   2.4610   2.4981   2.5023   2.5412
  2.5502   2.5872   2.6164   2.6538   2.6883   2.7387   2.7887   2.8162
  2.8248   2.8548   2.8892   2.9148   2.9534   3.0186   3.0470   3.0872
  3.1083   3.2084   3.2307   3.2788   3.2989   3.3164   3.3360   3.3680
  3.3910   3.4168   3.4326   3.4642   3.4962   3.5076   3.5670   3.5929
  3.5983   3.6180   3.6436   3.6661   3.6967   3.7296   3.7461   3.7509
  3.8402   3.8500   3.9635   4.0532   4.0971   4.1464   4.1566   4.2250
  4.3301   4.4384   4.5583   4.6182   4.6654   4.7581   4.7871   4.8231
  4.8855   5.0478   5.1551   5.3400   5.3774   5.3778   5.3914   5.5075
  5.7320   5.7795   5.8272   6.0415   6.2426   6.3550   6.3686   6.6293
  6.6499   6.7382   6.7680   6.7891   6.9920   6.9929   7.0602   7.2814
  7.3712   7.4118   7.4256  22.6502  22.7754  23.7734  44.2589  44.4200
 --------------------------------------------------------------
 
          Ground-State Mulliken Net Atomic Charges

     Atom                 Charge (a.u.)
  ----------------------------------------
      1 C                     0.042751
      2 C                    -0.626909
      3 C                     0.148081
      4 O                    -0.663854
      5 O                    -0.698012
      6 H                     0.113534
      7 H                     0.168174
      8 H                     0.160186
      9 H                     0.143191
     10 H                     0.212858
  ----------------------------------------
  Sum of atomic charges =    -1.000000

 -----------------------------------------------------------------
                    Cartesian Multipole Moments
 -----------------------------------------------------------------
    Charge (ESU x 10^10)
                -4.8032
    Dipole Moment (Debye)
         X      -0.5492      Y      -7.3707      Z      -8.3635
       Tot      11.1614
    Quadrupole Moments (Debye-Ang)
        XX     -37.1379     XY      -3.7224     YY     -46.1214
        XZ       3.9188     YZ     -10.0206     ZZ     -51.2836
    Octopole Moments (Debye-Ang^2)
       XXX     -43.4344    XXY      -7.3656    XYY     -20.6832
       YYY     -19.4776    XXZ     -60.6459    XYZ      -0.5146
       YYZ     -75.2147    XZZ       0.9049    YZZ     -18.4239
       ZZZ    -214.5384
    Hexadecapole Moments (Debye-Ang^3)
      XXXX    -156.5496   XXXY     -10.8275   XXYY    -101.5401
      XYYY     -19.4687   YYYY    -426.5362   XXXZ     -39.0437
      XXYZ      -0.0784   XYYZ     -17.3769   YYYZ       5.7688
      XXZZ    -145.2980   XYZZ       3.9505   YYZZ    -212.3703
      XZZZ      -0.0712   YZZZ     -16.2588   ZZZZ    -801.5748
 -----------------------------------------------------------------
Archival summary:
1\1\nid00541\SP\ProcedureUnspecified\BasisUnspecified\235(1-,1)\meili\SunSep2618:07:392021SunSep2618:07:392021\0\\#,ProcedureUnspecified,BasisUnspecified,\\-1,1\C\O,1,1.25228\O,1,1.25268,2,122.636\C,1,1.52564,2,119.299,3,179.159,0\H,4,1.08939,1,110.22,2,131.529,0\H,4,1.09287,1,108.791,2,-112.628,0\C,4,1.52827,1,112.954,2,6.5503,0\H,7,1.09064,4,108.305,1,-75.2529,0\H,7,1.09089,4,110.405,1,43.3546,0\H,7,1.1,4,112.295,1,163.641,0\\\@

 Total job time:  10476.97s(wall), 20464.29s(cpu) 
 Sun Sep 26 18:07:41 2021

        *************************************************************
        *                                                           *
        *  Thank you very much for using Q-Chem.  Have a nice day.  *
        *                                                           *
        *************************************************************


Done Job For Fragment 1
calling putenv with: QCSCRATCH=/global/cscratch1/sd/meili 
calling putenv with: QCLOCALSCR=/tmp 
calling putenv with: QCTHREADS=32 
Doing General SCFMI
 Exchange:     0.1670 Hartree-Fock + 1.0000 wB97X-V + LR-HF
 Correlation:  1.0000 wB97X-V
 Using Euler-Maclaurin-Lebedev (99,590) quadrature formula
 Nonlocal Correlation:  VV10 with C = 0.0100 and b = 6.00 and scale = 1.00000
 Grid used for NLC:  SG-1 standard quadrature
performing fock build before subrot guess so that all methods have access
Printing subrot_rss_gen Method Specification:
Occupied Subspace Method is 0
Virtual Subspace Method is 0
Energy of the unrelaxed supersystem initial determinant -496.291490249268
performing fock build before subrot guess so that all methods have access
Printing subrot_rss_gen Method Specification:
Occupied Subspace Method is 0
Virtual Subspace Method is 0
Energy of the unrelaxed supersystem initial determinant w/ solvent -496.591955065110
write pseudocanon occs and virts to disk
write pseudocanon orbital energies to disk
Tolerance of ortho_decomp_scf: 1.00e-06
GDM subspace size: 20
Beginning the Orthogonal Decomposition of the Initial Supersystem Wavefunction
    1    -496.3656372687      5.44e-02     ortho_decomp Preconditoned Steepest Descent
    2    -496.3724546321      1.84e-03     ortho_decomp BFGS Step
    3    -496.3724902337      1.25e-04     ortho_decomp BFGS Step
    4    -496.3724902751      5.61e-06     ortho_decomp BFGS Step
    5    -496.3724902753      2.32e-07     ortho_decomp 00000 Convergence criterion met
 Hartree-Fock
 Hartree-Fock
 Hartree-Fock
Doing General SCFMI
 Exchange:     0.1670 Hartree-Fock + 1.0000 wB97X-V + LR-HF
 Correlation:  1.0000 wB97X-V
 Using Euler-Maclaurin-Lebedev (99,590) quadrature formula
 Nonlocal Correlation:  VV10 with C = 0.0100 and b = 6.00 and scale = 1.00000
 Grid used for NLC:  SG-1 standard quadrature
performing fock build at end of subrot_r(subrot) constructor so that all methods have access
<S^2> of initial wavefunction before polarization iterations 0.0000000000
Beginning iterations for the determination of the polarized wavefunction
Energy prior to optimization (guess energy) = -496.591955065110
Begin Timing: Total SCF Calculation
begin iterations for algorithm: DIIS         
the SCF tolerance is set to 1.00e-08
    1    -496.5919550651      1.97e-04     00000 
    2    -496.5933568764      1.38e-04     00000 
    3    -496.5937381653      5.31e-05     00000 
    4    -496.5938006284      1.92e-05     00000 
    5    -496.5938165673      6.64e-06     00000 
    6    -496.5938198834      3.43e-06     00000 
    7    -496.5938206411      1.51e-06     00000 
    8    -496.5938207808      4.70e-07     00000 
    9    -496.5938208072      1.19e-07     00000 
   10    -496.5938208088      4.80e-08     00000 
   11    -496.5938208090      2.12e-08     00000 
   12    -496.5938208090      9.08e-09     00000 Convergence criterion met
write pseudocanon occs and virts to disk
write pseudocanon orbital energies to disk
Timing for Total SCF: 2288.00s (wall), 4533.20s (cpu)
<S^2> of polarized wavefunction after polarization iterations 0.0000000000
relaxing scfmi constraint to allow all rotations in the entire AO span
Doing General SCFMI
 Exchange:     0.1670 Hartree-Fock + 1.0000 wB97X-V + LR-HF
 Correlation:  1.0000 wB97X-V
 Using Euler-Maclaurin-Lebedev (99,590) quadrature formula
 Nonlocal Correlation:  VV10 with C = 0.0100 and b = 6.00 and scale = 1.00000
 Grid used for NLC:  SG-1 standard quadrature
performing fock build at end of subrot_r(subrot) constructor so that all methods have access
<S^2> of polarized wavefunction before ct-allowed iterations 0.0000000000
Beginning iterations for the determination of the CT-Allowed wavefunction
Energy prior to optimization (guess energy) = -496.593820809041
Begin Timing: Total SCF Calculation
begin iterations for algorithm: DIIS         
the SCF tolerance is set to 1.00e-08
    1    -496.5938208090      9.90e-05     00000 
    2    -496.5946219875      1.06e-05     00000 
    3    -496.5946487613      3.42e-06     00000 
    4    -496.5946496265      3.38e-06     00000 
    5    -496.5946503558      3.77e-07     00000 
    6    -496.5946503723      2.37e-07     00000 
    7    -496.5946503782      5.51e-08     00000 
    8    -496.5946503786      1.98e-08     00000 
    9    -496.5946503787      5.26e-09     00000 Convergence criterion met
write pseudocanon occs and virts to disk
write pseudocanon orbital energies to disk
Timing for Total SCF: 1647.00s (wall), 3266.60s (cpu)
<S^2> of ct_allowed wavefunction after ct-allowed iterations 0.0000000000

================================
        Results of EDA2         
================================
Basic EDA Quantities
--------------------
Fragment Energies (Ha):
1 -228.6424145336
2 -267.9570733098
--------------------
  E_prp (kJ/mol) = -0.0000
  E_sol (kJ/mol) = -257.7539
  E_frz (kJ/mol) = 277.5315
  E_pol (kJ/mol) = -4.8986
  E_vct (kJ/mol) = -2.1781
  E_int (kJ/mol) = 12.7009
--------------------


Initial Wavefunction Decomposition
--------------------
  --------------------
  Orthogonal Fragment Subspace Decomposition:
  --------------------
     E_elec   (ELEC)   (kJ/mol) = 245.9306
     E_pauli  (PAULI)  (kJ/mol) = 50.5686
     E_disp   (DISP)   (kJ/mol) = -18.9677
     --------------------
     Terms summing to E_pauli:
     --------------------
        E_kep_pauli       (kJ/mol) = 64.8634
        E_disp_free_pauli (kJ/mol) = -14.2948
  --------------------
  Classical Frozen Decomposition:
  --------------------
     E_cls_elec  (CLS ELEC)  (kJ/mol) = 273.0849
     E_cls_pauli (CLS PAULI) (kJ/mol) = 4.4466
    [E_mod_pauli (MOD PAULI) (kJ/mol) = 23.4143 (CLS PAULI - DISP from orthogonal decomposition) ]
  --------------------
--------------------

Simplified EDA Summary (kJ/mol)
--------------------
 PREPARATION     -0.0000
 SOLVATION       -257.7539
 FROZEN          296.4991      (does not include dispersion)
[PAULI           50.5686]     (if this is negligible, then frozen describes electrostatics)
 DISPERSION      -18.9677
 POLARIZATION    -4.8986
 CHARGE TRANSFER -2.1781
 TOTAL           12.7009     (PRP + SOL + FRZ + DISP + POL + CT)
--------------------
 
 --------------------------------------------------------------
 
                    Orbital Energies (a.u.)
 --------------------------------------------------------------
 
 Alpha MOs
 -- Occupied --
-19.1151 -19.1121 -19.1106 -19.1092 -10.3162 -10.3113 -10.2316 -10.2304
-10.2288  -1.1255  -1.1201  -1.0232  -1.0194  -0.8668  -0.8186  -0.7300
 -0.5853  -0.5827  -0.5439  -0.5248  -0.5163  -0.5084  -0.5075  -0.4913
 -0.4660  -0.4545  -0.4522  -0.4352  -0.4272  -0.4090  -0.3202  -0.3188
 -0.3162  -0.3138  -0.2994  -0.2973
 -- Virtual --
  0.0615   0.0767   0.0804   0.0895   0.1030   0.1094   0.1134   0.1174
  0.1264   0.1384   0.1459   0.1487   0.1510   0.1651   0.1664   0.1755
  0.1787   0.1926   0.1998   0.2010   0.2056   0.2178   0.2203   0.2367
  0.2384   0.2458   0.2519   0.2565   0.2586   0.2795   0.2831   0.2880
  0.2937   0.2981   0.3058   0.3150   0.3221   0.3299   0.3348   0.3350
  0.3442   0.3498   0.3596   0.3601   0.3705   0.3762   0.3777   0.3827
  0.3859   0.3877   0.3950   0.3978   0.4111   0.4145   0.4209   0.4271
  0.4294   0.4357   0.4442   0.4472   0.4527   0.4575   0.4629   0.4705
  0.4804   0.4855   0.4923   0.4989   0.5045   0.5107   0.5154   0.5220
  0.5241   0.5301   0.5394   0.5512   0.5528   0.5566   0.5641   0.5742
  0.5792   0.5808   0.5873   0.5949   0.6058   0.6117   0.6215   0.6322
  0.6367   0.6414   0.6530   0.6596   0.6679   0.6775   0.6826   0.6891
  0.6998   0.7020   0.7127   0.7146   0.7312   0.7353   0.7480   0.7576
  0.7589   0.7650   0.7753   0.7816   0.7876   0.7916   0.8003   0.8077
  0.8163   0.8223   0.8296   0.8315   0.8378   0.8402   0.8476   0.8552
  0.8657   0.8728   0.8784   0.8890   0.9034   0.9117   0.9158   0.9254
  0.9384   0.9563   0.9663   0.9847   0.9920   1.0070   1.0173   1.0308
  1.0367   1.0620   1.0651   1.0788   1.0907   1.0975   1.1125   1.1387
  1.1497   1.1663   1.1721   1.1903   1.2097   1.2143   1.2358   1.2473
  1.2733   1.2906   1.2938   1.3139   1.3364   1.3518   1.3690   1.3758
  1.3813   1.3984   1.4031   1.4278   1.4363   1.4467   1.4686   1.4860
  1.4930   1.4972   1.5220   1.5497   1.6017   1.6488   1.6598   1.7395
  1.7920   1.8077   1.8995   1.9117   1.9195   1.9271   1.9449   1.9503
  1.9665   1.9740   1.9818   1.9864   2.0004   2.0052   2.0098   2.0216
  2.0295   2.0387   2.0500   2.0733   2.0792   2.0946   2.1121   2.1352
  2.1437   2.1846   2.1961   2.2130   2.2338   2.2451   2.2635   2.2740
  2.2989   2.3054   2.3296   2.3611   2.3624   2.3877   2.4041   2.4472
  2.4868   2.5073   2.5153   2.5310   2.5355   2.5426   2.5725   2.5782
  2.5985   2.6116   2.6340   2.6443   2.6788   2.6846   2.6954   2.7118
  2.7331   2.7922   2.8076   2.8426   2.8548   2.8645   2.8727   2.8922
  2.8968   2.9157   2.9404   2.9606   2.9889   3.0053   3.0536   3.1066
  3.1341   3.1445   3.1664   3.1974   3.2195   3.2296   3.2687   3.2806
  3.2940   3.3111   3.3176   3.3388   3.3424   3.3596   3.3842   3.3985
  3.4054   3.4204   3.4298   3.4426   3.4505   3.4730   3.4827   3.4920
  3.5134   3.5322   3.5427   3.5893   3.6036   3.6240   3.6424   3.6512
  3.6609   3.6769   3.6885   3.6970   3.7104   3.7208   3.7495   3.7512
  3.7669   3.7706   3.7865   3.8052   3.8282   3.8586   3.8826   3.9080
  3.9956   4.0129   4.0813   4.0836   4.1136   4.1311   4.1764   4.1876
  4.2504   4.2663   4.3549   4.3732   4.4565   4.5900   4.5916   4.6456
  4.6561   4.6741   4.6884   4.8009   4.8244   4.8409   4.8653   4.8898
  4.9143   5.0293   5.0825   5.1779   5.3470   5.3527   5.3764   5.3907
  5.3914   5.3943   5.4017   5.4095   5.5187   5.5220   5.7335   5.7460
  5.7952   5.8029   5.8381   5.8438   6.0542   6.0553   6.2709   6.2858
  6.3758   6.3799   6.3893   6.3982   6.6477   6.6552   6.6731   6.6883
  6.7623   6.7705   6.7880   6.8057   6.8158   6.8228   6.9801   7.0095
  7.0333   7.0416   7.0838   7.1083   7.2855   7.2981   7.3757   7.3866
  7.4194   7.4298   7.4478   7.4601  22.6365  22.6892  22.8553  23.7868
 23.8075  44.3475  44.3860  44.4400  44.4793
 --------------------------------------------------------------
 
          Ground-State Mulliken Net Atomic Charges

     Atom                 Charge (a.u.)
  ----------------------------------------
      1 C                    -0.342714
      2 C                     0.319269
      3 O                    -0.701646
      4 O                    -0.673758
      5 H                     0.181692
      6 H                     0.066929
      7 H                     0.152119
      8 C                     0.221966
      9 C                    -0.714958
     10 C                     0.164887
     11 O                    -0.695075
     12 O                    -0.717243
     13 H                     0.209988
     14 H                     0.021771
     15 H                     0.129681
     16 H                     0.175584
     17 H                     0.201506
  ----------------------------------------
  Sum of atomic charges =    -2.000000

 -----------------------------------------------------------------
                    Cartesian Multipole Moments
 -----------------------------------------------------------------
    Charge (ESU x 10^10)
                -9.6064
    Dipole Moment (Debye)
         X       1.9554      Y      -1.7060      Z       0.9169
       Tot       2.7522
    Quadrupole Moments (Debye-Ang)
        XX     -67.3958     XY      -5.8725     YY     -79.5000
        XZ       2.3322     YZ     -22.3569     ZZ    -106.8459
    Octopole Moments (Debye-Ang^2)
       XXX      -2.7434    XXY      -2.3197    XYY      -6.1419
       YYY      -7.8689    XXZ      -3.5579    XYZ       1.5648
       YYZ      -6.6198    XZZ      10.1237    YZZ      16.8856
       ZZZ      34.0914
    Hexadecapole Moments (Debye-Ang^3)
      XXXX    -261.5794   XXXY     -16.3052   XXYY    -151.5873
      XYYY     -24.4134   YYYY    -635.1653   XXXZ    -104.5410
      XXYZ      -4.9418   XYYZ     -41.9325   YYYZ     -11.8821
      XXZZ    -306.0001   XYZZ       3.3024   YYZZ    -428.9488
      XZZZ     -50.0542   YZZZ    -118.5687   ZZZZ   -1931.9604
 -----------------------------------------------------------------
Archival summary:
1\1\nid00541\SP\ProcedureUnspecified\BasisUnspecified\458(2-,1)\meili\SunSep2620:03:402021SunSep2620:03:402021\0\\#,ProcedureUnspecified,BasisUnspecified,\\-2,1\O\C,1,1.25205\O,2,1.2452,1,122.58\C,2,1.52688,1,119.479,3,-179.899,0\H,4,1.09332,2,110.793,1,-154.832,0\H,4,1.09366,2,108.903,1,88.4558,0\H,4,1.1,2,113.323,1,-31.9344,0\H,1,2.52362,2,98.4506,3,85.1732,0\C,8,1.08939,1,117.034,2,144.331,0\H,9,1.09287,8,106.016,1,-173.56,0\C,9,1.52564,8,110.22,1,-55.9882,0\O,11,1.25228,9,119.299,8,131.529,0\O,11,1.25268,9,118.059,8,-49.2729,0\C,9,1.52827,8,111.135,1,70.0237,0\H,14,1.09064,9,108.305,8,160.266,0\H,14,1.09089,9,110.405,8,-81.1266,0\H,14,1.1,9,112.295,8,39.1594,0\\\@

 Total job time:  22186.95s(wall), 13819.95s(cpu) 
 Sun Sep 26 20:03:43 2021

        *************************************************************
        *                                                           *
        *  Thank you very much for using Q-Chem.  Have a nice day.  *
        *                                                           *
        *************************************************************


