
Running Job 1 of 1 SSI-064TYR-078PHE-1_SMD_TZVPD.in
qchem SSI-064TYR-078PHE-1_SMD_TZVPD.in_43918.0 /tmp/qchem43918/ 0
/global/common/cori/software/qchem/5.2/exe/qcprog.exe_s SSI-064TYR-078PHE-1_SMD_TZVPD.in_43918.0 /tmp/qchem43918/
                  Welcome to Q-Chem
     A Quantum Leap Into The Future Of Chemistry


 Q-Chem 5.2, Q-Chem, Inc., Pleasanton, CA (2019)

 License issued to: National Energy Research Scientific Computing Center

 Yihan Shao,  Zhengting Gan,  E. Epifanovsky,  A. T. B. Gilbert,  M. Wormit,  
 J. Kussmann,  A. W. Lange,  A. Behn,  Jia Deng,  Xintian Feng,  D. Ghosh,  
 M. Goldey,  P. R. Horn,  L. D. Jacobson,  I. Kaliman,  T. Kus,  A. Landau,  
 Jie Liu,  E. I. Proynov,  R. M. Richard,  R. P. Steele,  E. J. Sundstrom,  
 H. L. Woodcock III,  P. M. Zimmerman,  D. Zuev,  B. Albrecht,  E. Alguire,  
 S. A. Baeppler,  D. Barton,  Z. Benda,  Y. A. Bernard,  E. J. Berquist,  
 K. B. Bravaya,  H. Burton,  D. Casanova,  Chun-Min Chang,  Yunqing Chen,  
 A. Chien,  K. D. Closser,  M. P. Coons,  S. Coriani,  S. Dasgupta,  
 A. L. Dempwolff,  M. Diedenhofen,  Hainam Do,  R. G. Edgar,  Po-Tung Fang,  
 S. Faraji,  S. Fatehi,  Qingguo Feng,  K. D. Fenk,  J. Fosso-Tande,  
 J. Gayvert,  Qinghui Ge,  A. Ghysels,  G. Gidofalvi,  J. Gomes,  
 J. Gonthier,  A. Gunina,  D. Hait,  M. W. D. Hanson-Heine,  
 P. H. P. Harbach,  A. W. Hauser,  M. F. Herbst,  J. E. Herr,  
 E. G. Hohenstein,  Z. C. Holden,  Kerwin Hui,  B. C. Huynh,  T.-C. Jagau,  
 Hyunjun Ji,  B. Kaduk,  K. Khistyaev,  Jaehoon Kim,  P. Klunzinger,  K. Koh,  
 D. Kosenkov,  L. Koulias,  T. Kowalczyk,  C. M. Krauter,  A. Kunitsa,  
 Ka Un Lao,  A. Laurent,  K. V. Lawler,  Joonho Lee,  D. Lefrancois,  
 S. Lehtola,  D. S. Levine,  Yi-Pei Li,  You-Sheng Lin,  Fenglai Liu,  
 E. Livshits,  A. Luenser,  P. Manohar,  E. Mansoor,  S. F. Manzer,  
 Shan-Ping Mao,  Yuezhi Mao,  N. Mardirossian,  A. V. Marenich,  
 T. Markovich,  L. A. Martinez-Martinez,  S. A. Maurer,  N. J. Mayhall,  
 S. C. McKenzie,  J.-M. Mewes,  P. Morgante,  A. F. Morrison,  
 J. W. Mullinax,  K. Nanda,  T. S. Nguyen-Beck,  R. Olivares-Amaya,  
 J. A. Parkhill,  Zheng Pei,  T. M. Perrine,  F. Plasser,  P. Pokhilko,  
 S. Prager,  A. Prociuk,  E. Ramos,  D. R. Rehn,  F. Rob,  M. Scheurer,  
 M. Schneider,  N. Sergueev,  S. M. Sharada,  S. Sharma,  D. W. Small,  
 T. Stauch,  T. Stein,  Yu-Chuan Su,  A. J. W. Thom,  A. Tkatchenko,  
 T. Tsuchimochi,  N. M. Tubman,  L. Vogt,  M. L. Vidal,  O. Vydrov,  
 M. A. Watson,  J. Wenzel,  M. de Wergifosse,  T. A. Wesolowski,  A. White,  
 J. Witte,  A. Yamada,  Jun Yang,  K. Yao,  S. Yeganeh,  S. R. Yost,  
 Zhi-Qiang You,  A. Zech,  Igor Ying Zhang,  Xing Zhang,  Yan Zhao,  
 Ying Zhu,  B. R. Brooks,  G. K. L. Chan,  C. J. Cramer,  M. S. Gordon,  
 W. J. Hehre,  A. Klamt,  M. W. Schmidt,  C. D. Sherrill,  D. G. Truhlar,  
 A. Aspuru-Guzik,  R. Baer,  A. T. Bell,  N. A. Besley,  Jeng-Da Chai,  
 A. E. DePrince, III,  R. A. DiStasio Jr.,  A. Dreuw,  B. D. Dunietz,  
 T. R. Furlani,  Chao-Ping Hsu,  Yousung Jung,  Jing Kong,  D. S. Lambrecht,  
 WanZhen Liang,  C. Ochsenfeld,  V. A. Rassolov,  L. V. Slipchenko,  
 J. E. Subotnik,  T. Van Voorhis,  J. M. Herbert,  A. I. Krylov,  
 P. M. W. Gill,  M. Head-Gordon

 Contributors to earlier versions of Q-Chem not listed above: 
 R. D. Adamson,  B. Austin,  J. Baker,  G. J. O. Beran,  K. Brandhorst,  
 S. T. Brown,  E. F. C. Byrd,  A. K. Chakraborty,  C.-L. Cheng,  
 Siu Hung Chien,  D. M. Chipman,  D. L. Crittenden,  H. Dachsel,  
 R. J. Doerksen,  A. D. Dutoi,  L. Fusti-Molnar,  W. A. Goddard III,  
 A. Golubeva-Zadorozhnaya,  S. R. Gwaltney,  G. Hawkins,  A. Heyden,  
 S. Hirata,  G. Kedziora,  F. J. Keil,  C. Kelley,  Jihan Kim,  R. A. King,  
 R. Z. Khaliullin,  P. P. Korambath,  W. Kurlancheek,  A. M. Lee,  M. S. Lee,  
 S. V. Levchenko,  Ching Yeh Lin,  D. Liotard,  R. C. Lochan,  I. Lotan,  
 P. E. Maslen,  N. Nair,  D. P. O'Neill,  D. Neuhauser,  E. Neuscamman,  
 C. M. Oana,  R. Olson,  B. Peters,  R. Peverati,  P. A. Pieniazek,  
 Y. M. Rhee,  J. Ritchie,  M. A. Rohrdanz,  E. Rosta,  N. J. Russ,  
 H. F. Schaefer III,  N. E. Schultz,  N. Shenvi,  A. C. Simmonett,  A. Sodt,  
 D. Stuck,  K. S. Thanthiriwatte,  V. Vanovschi,  Tao Wang,  A. Warshel,  
 C. F. Williams,  Q. Wu,  X. Xu,  W. Zhang

 Please cite Q-Chem as follows:
 Y. Shao et al., Mol. Phys. 113, 184-215 (2015)
 DOI: 10.1080/00268976.2014.952696

 Q-Chem 5.2.0 for Intel X86 EM64T Linux

 Parts of Q-Chem use Armadillo 8.300.2 (Tropical Shenanigans).
 http://arma.sourceforge.net/

 Q-Chem begins on Sun Sep 26 09:58:56 2021  

Host: cori01
0

     Scratch files written to /tmp/qchem43918//
 May1019 |scratch|qcdevops|jenkins|workspace|build_RNUM -1
Processing $rem in /global/common/cori/software/qchem/5.2/config/preferences:
	 MEM_TOTAL  96000 
NAlpha2: 108
NElect   108
Mult     1
Symmetry turned off for PCM/SM12/SMD calculation

 Q-Chem warning in module libgen/rem_setup.C, line 2803:

 Neither GIA nor STOLL is specified by user. Use STOLL as the default


Checking the input file for inconsistencies... 	...done.

--------------------------------------------------------------
User input:
--------------------------------------------------------------
$comment
SSI-064TYR-078PHE-1.pdb
$end

$molecule
0 1
--
0 1
C    0.960864940760    1.212260515853   -3.025195839283
C    1.340864940760    2.104260515853   -0.701195839283
C    1.628864940760    1.138260515853   -1.665195839283
C    1.954864940760    2.074260515853    0.563804160717
C    2.846864940760    1.043260515853    0.901804160717
C    2.515864940760    0.102260515853   -1.332195839283
C    3.130864940760    0.051260515853   -0.047195839283
O    3.358864940760    1.004260515853    2.180804160717
H    0.653864940760    2.907260515853   -0.932195839283
H    1.712864940760    2.839260515853    1.287804160717
H    0.125864940760    1.910260515853   -2.958195839283
H    0.532864940760    0.236260515853   -3.260195839283
H    2.727864940760   -0.678739484147   -2.050195839283
H    3.058864940760    1.744260515853    2.714804160717
H    3.801864940760   -0.756739484147    0.208804160717
H    1.616424940760    1.539320515853   -3.845726839283
--
0 1
C   -4.943135059240   -1.196739484147    1.116804160717
C   -1.578135059240   -0.178739484147   -0.289195839283
C   -0.836135059240   -1.347739484147   -0.127195839283
C   -2.913135059240   -0.141739484147    0.110804160717
C   -3.514135059240   -1.265739484147    0.688804160717
C   -1.440135059240   -2.468739484147    0.434804160717
C   -2.773135059240   -2.428739484147    0.849804160717
H   -1.122135059240    0.696260515853   -0.730195839283
H    0.198864940760   -1.383739484147   -0.439195839283
H   -3.482135059240    0.768260515853   -0.023195839283
H   -0.871135059240   -3.381739484147    0.548804160717
H   -5.470135059240   -2.066739484147    0.720804160717
H   -5.399135059240   -0.323739484147    0.662804160717
H   -3.227135059240   -3.306739484147    1.289804160717
H   -5.075645059240   -1.174419484147    2.208564160717
$end

$rem
JOBTYPE			EDA
EDA2			1
method			wB97X-V
BASIS			def2-TZVPD
XC_GRID			000099000590
NL_GRID			1
UNRESTRICTED		FALSE
MAX_SCF_CYCLES		200
SYMMETRY		FALSE
SYM_IGNORE		TRUE
MEM_STATIC		2000
BASIS_LIN_DEP_THRESH 	6
THRESH 			14
SCF_CONVERGENCE 	8
SCF_PRINT_FRGM 		TRUE
SOLVENT_METHOD          SMD
$end

$SMX
SOLVENT			WATER
$END
--------------------------------------------------------------
 ----------------------------------------------------------------
             Standard Nuclear Orientation (Angstroms)
    I     Atom           X                Y                Z
 ----------------------------------------------------------------
    1      C       0.9608649408     1.2122605159    -3.0251958393
    2      C       1.3408649408     2.1042605159    -0.7011958393
    3      C       1.6288649408     1.1382605159    -1.6651958393
    4      C       1.9548649408     2.0742605159     0.5638041607
    5      C       2.8468649408     1.0432605159     0.9018041607
    6      C       2.5158649408     0.1022605159    -1.3321958393
    7      C       3.1308649408     0.0512605159    -0.0471958393
    8      O       3.3588649408     1.0042605159     2.1808041607
    9      H       0.6538649408     2.9072605159    -0.9321958393
   10      H       1.7128649408     2.8392605159     1.2878041607
   11      H       0.1258649408     1.9102605159    -2.9581958393
   12      H       0.5328649408     0.2362605159    -3.2601958393
   13      H       2.7278649408    -0.6787394841    -2.0501958393
   14      H       3.0588649408     1.7442605159     2.7148041607
   15      H       3.8018649408    -0.7567394841     0.2088041607
   16      H       1.6164249408     1.5393205159    -3.8457268393
   17      C      -4.9431350592    -1.1967394841     1.1168041607
   18      C      -1.5781350592    -0.1787394841    -0.2891958393
   19      C      -0.8361350592    -1.3477394841    -0.1271958393
   20      C      -2.9131350592    -0.1417394841     0.1108041607
   21      C      -3.5141350592    -1.2657394841     0.6888041607
   22      C      -1.4401350592    -2.4687394841     0.4348041607
   23      C      -2.7731350592    -2.4287394841     0.8498041607
   24      H      -1.1221350592     0.6962605159    -0.7301958393
   25      H       0.1988649408    -1.3837394841    -0.4391958393
   26      H      -3.4821350592     0.7682605159    -0.0231958393
   27      H      -0.8711350592    -3.3817394841     0.5488041607
   28      H      -5.4701350592    -2.0667394841     0.7208041607
   29      H      -5.3991350592    -0.3237394841     0.6628041607
   30      H      -3.2271350592    -3.3067394841     1.2898041607
   31      H      -5.0756450592    -1.1744194841     2.2085641607
 ----------------------------------------------------------------
 Nuclear Repulsion Energy =         882.59410003 hartrees
 There are       54 alpha and       54 beta electrons
 Requested basis set is def2-TZVPD
 There are 276 shells and 702 basis functions

 Total QAlloc Memory Limit  96000 MB
 Mega-Array Size      1956 MB
 MEM_STATIC part      2000 MB
 
 Citation of the SMD model:
 Marenich, A.V.; Cramer, C.J.; Truhlar, D.G.
 J. Phys. Chem. B 2009, 113, 6378-6396.
 iSolventCode=           1
 Solvent: water                                                           
 
 vradii
            1           2           3           4           5           6
    1   1.8500000   1.8500000   1.8500000   1.8500000   1.8500000   1.8500000
            7           8           9          10          11          12
    1   1.8500000   1.5200000   1.2000000   1.2000000   1.2000000   1.2000000
           13          14          15          16          17          18
    1   1.2000000   1.2000000   1.2000000   1.2000000   1.8500000   1.8500000
           19          20          21          22          23          24
    1   1.8500000   1.8500000   1.8500000   1.8500000   1.8500000   1.2000000
           25          26          27          28          29          30
    1   1.2000000   1.2000000   1.2000000   1.2000000   1.2000000   1.2000000
           31
    1   1.2000000
 Changing PCM_VDW_RADII to SMD_RADIUS
 Discretize the solute cavity surface with Lebedev spheres
	Using 110 Lebedev grid points for each H atom
	Using 194 Lebedev grid points for other atoms
	Atomic van der Waals radii will be scaled by 1.20
 Remove points where switching function is < 1.0e-08
 Keep 2276 surface tesserae and discard 2394 interior tesserae
 Molecular Surface Area = 270.536 Angst**2
 A cutoff of  1.0D-14 yielded  32162 shell pairs
 There are    208424 function pairs (    263203 Cartesian)
 Smallest overlap matrix eigenvalue = 4.51E-07
 Linear dependence detected in AO basis
 Tighter screening thresholds may be required for diffuse basis sets
 Use S2THRESH > 14 and THRESH = 14 in case of SCF convergence issues
 Number of orthogonalized atomic orbitals = 699
 Maximum deviation from orthogonality = 2.952E-10

 Scale SEOQF with 1.000000e-02/1.000000e-01/1.000000e-01

 Standard Electronic Orientation quadrupole field applied
 Nucleus-field energy     =    -0.0000000016 hartrees

 -----------------------------------------------------------------------
  General SCF calculation program by
  Eric Jon Sundstrom, Paul Horn, Yuezhi Mao, Dmitri Zuev, Alec White,
  David Stuck, Shaama M.S., Shane Yost, Joonho Lee, David Small,
  Daniel Levine, Susi Lehtola, Hugh Burton, Evgeny Epifanovsky
 -----------------------------------------------------------------------
================================================================
                 ALMO-EDA with the EDA2 driver                  
================================================================
 The second-generation ALMO-EDA (for DFT):                      
 P. R. Horn, Y. Mao and M. Head-Gordon, PCCP, 18, 23067 (2016)  
 Decomposition of the frozen energy:                            
 P. R. Horn, Y. Mao and M. Head-Gordon, JCP, 144, 114107 (2016) 
 FERF model for polarization:                                   
 P. R. Horn and M. Head-Gordon, JCP, 143, 114111 (2015)         
Using eda2 option set 1
Option set summary: Frozen orbital wavefunction, initial wavefunction decomposition, and nDQ polarization.
--------------------------------
Printing EDA Options
--------------------------------
eda_child_super_basis      0
fragmo_guess_mode          0
child_mp                   1
child_mp_orders            232
cls_elec                   1
cls_disp                   0
scfmi_mode                 1
scfmi_occs                 0
scfmi_virts                0
frz_relax                  0
frz_relax_method           0
dc_pen_start               0
dc_pen_conv                0
dc_pen_increment           0
dc_pen_steps               0
dc_pen_thresh_factor       0
dc_pen_pre_newton_thresh   0
frz_ortho_decomp           1
frz_ortho_decomp_conv      6
frgm_method                2
scfmi_freeze_ss            0
separate_rehyb             0
plot_diff_den              0
eda_nocv                   0
eda_vct_relax              1
disp_free_x                0
disp_free_c                0
eda_bsse                   0
eda_pct_a                  0
eda_covp                   0
--------------------------------
Attempting to make child job directory: /tmp/qchem43918//Frg1/
Attempting to make child job directory: /tmp/qchem43918//Frg2/
Creating input file /tmp/qchem43918/Frg1.input
using default PutDataFrgm: nothing
calling putenv with: QCSCRATCH=/tmp/qchem43918/ 
calling putenv with: QCLOCALSCR=/tmp/qchem43918/ 
Spawning Job For Fragment 0
                  Welcome to Q-Chem
     A Quantum Leap Into The Future Of Chemistry


 Q-Chem 5.2, Q-Chem, Inc., Pleasanton, CA (2019)

 License issued to: National Energy Research Scientific Computing Center

 Yihan Shao,  Zhengting Gan,  E. Epifanovsky,  A. T. B. Gilbert,  M. Wormit,  
 J. Kussmann,  A. W. Lange,  A. Behn,  Jia Deng,  Xintian Feng,  D. Ghosh,  
 M. Goldey,  P. R. Horn,  L. D. Jacobson,  I. Kaliman,  T. Kus,  A. Landau,  
 Jie Liu,  E. I. Proynov,  R. M. Richard,  R. P. Steele,  E. J. Sundstrom,  
 H. L. Woodcock III,  P. M. Zimmerman,  D. Zuev,  B. Albrecht,  E. Alguire,  
 S. A. Baeppler,  D. Barton,  Z. Benda,  Y. A. Bernard,  E. J. Berquist,  
 K. B. Bravaya,  H. Burton,  D. Casanova,  Chun-Min Chang,  Yunqing Chen,  
 A. Chien,  K. D. Closser,  M. P. Coons,  S. Coriani,  S. Dasgupta,  
 A. L. Dempwolff,  M. Diedenhofen,  Hainam Do,  R. G. Edgar,  Po-Tung Fang,  
 S. Faraji,  S. Fatehi,  Qingguo Feng,  K. D. Fenk,  J. Fosso-Tande,  
 J. Gayvert,  Qinghui Ge,  A. Ghysels,  G. Gidofalvi,  J. Gomes,  
 J. Gonthier,  A. Gunina,  D. Hait,  M. W. D. Hanson-Heine,  
 P. H. P. Harbach,  A. W. Hauser,  M. F. Herbst,  J. E. Herr,  
 E. G. Hohenstein,  Z. C. Holden,  Kerwin Hui,  B. C. Huynh,  T.-C. Jagau,  
 Hyunjun Ji,  B. Kaduk,  K. Khistyaev,  Jaehoon Kim,  P. Klunzinger,  K. Koh,  
 D. Kosenkov,  L. Koulias,  T. Kowalczyk,  C. M. Krauter,  A. Kunitsa,  
 Ka Un Lao,  A. Laurent,  K. V. Lawler,  Joonho Lee,  D. Lefrancois,  
 S. Lehtola,  D. S. Levine,  Yi-Pei Li,  You-Sheng Lin,  Fenglai Liu,  
 E. Livshits,  A. Luenser,  P. Manohar,  E. Mansoor,  S. F. Manzer,  
 Shan-Ping Mao,  Yuezhi Mao,  N. Mardirossian,  A. V. Marenich,  
 T. Markovich,  L. A. Martinez-Martinez,  S. A. Maurer,  N. J. Mayhall,  
 S. C. McKenzie,  J.-M. Mewes,  P. Morgante,  A. F. Morrison,  
 J. W. Mullinax,  K. Nanda,  T. S. Nguyen-Beck,  R. Olivares-Amaya,  
 J. A. Parkhill,  Zheng Pei,  T. M. Perrine,  F. Plasser,  P. Pokhilko,  
 S. Prager,  A. Prociuk,  E. Ramos,  D. R. Rehn,  F. Rob,  M. Scheurer,  
 M. Schneider,  N. Sergueev,  S. M. Sharada,  S. Sharma,  D. W. Small,  
 T. Stauch,  T. Stein,  Yu-Chuan Su,  A. J. W. Thom,  A. Tkatchenko,  
 T. Tsuchimochi,  N. M. Tubman,  L. Vogt,  M. L. Vidal,  O. Vydrov,  
 M. A. Watson,  J. Wenzel,  M. de Wergifosse,  T. A. Wesolowski,  A. White,  
 J. Witte,  A. Yamada,  Jun Yang,  K. Yao,  S. Yeganeh,  S. R. Yost,  
 Zhi-Qiang You,  A. Zech,  Igor Ying Zhang,  Xing Zhang,  Yan Zhao,  
 Ying Zhu,  B. R. Brooks,  G. K. L. Chan,  C. J. Cramer,  M. S. Gordon,  
 W. J. Hehre,  A. Klamt,  M. W. Schmidt,  C. D. Sherrill,  D. G. Truhlar,  
 A. Aspuru-Guzik,  R. Baer,  A. T. Bell,  N. A. Besley,  Jeng-Da Chai,  
 A. E. DePrince, III,  R. A. DiStasio Jr.,  A. Dreuw,  B. D. Dunietz,  
 T. R. Furlani,  Chao-Ping Hsu,  Yousung Jung,  Jing Kong,  D. S. Lambrecht,  
 WanZhen Liang,  C. Ochsenfeld,  V. A. Rassolov,  L. V. Slipchenko,  
 J. E. Subotnik,  T. Van Voorhis,  J. M. Herbert,  A. I. Krylov,  
 P. M. W. Gill,  M. Head-Gordon

 Contributors to earlier versions of Q-Chem not listed above: 
 R. D. Adamson,  B. Austin,  J. Baker,  G. J. O. Beran,  K. Brandhorst,  
 S. T. Brown,  E. F. C. Byrd,  A. K. Chakraborty,  C.-L. Cheng,  
 Siu Hung Chien,  D. M. Chipman,  D. L. Crittenden,  H. Dachsel,  
 R. J. Doerksen,  A. D. Dutoi,  L. Fusti-Molnar,  W. A. Goddard III,  
 A. Golubeva-Zadorozhnaya,  S. R. Gwaltney,  G. Hawkins,  A. Heyden,  
 S. Hirata,  G. Kedziora,  F. J. Keil,  C. Kelley,  Jihan Kim,  R. A. King,  
 R. Z. Khaliullin,  P. P. Korambath,  W. Kurlancheek,  A. M. Lee,  M. S. Lee,  
 S. V. Levchenko,  Ching Yeh Lin,  D. Liotard,  R. C. Lochan,  I. Lotan,  
 P. E. Maslen,  N. Nair,  D. P. O'Neill,  D. Neuhauser,  E. Neuscamman,  
 C. M. Oana,  R. Olson,  B. Peters,  R. Peverati,  P. A. Pieniazek,  
 Y. M. Rhee,  J. Ritchie,  M. A. Rohrdanz,  E. Rosta,  N. J. Russ,  
 H. F. Schaefer III,  N. E. Schultz,  N. Shenvi,  A. C. Simmonett,  A. Sodt,  
 D. Stuck,  K. S. Thanthiriwatte,  V. Vanovschi,  Tao Wang,  A. Warshel,  
 C. F. Williams,  Q. Wu,  X. Xu,  W. Zhang

 Please cite Q-Chem as follows:
 Y. Shao et al., Mol. Phys. 113, 184-215 (2015)
 DOI: 10.1080/00268976.2014.952696

 Q-Chem 5.2.0 for Intel X86 EM64T Linux

 Parts of Q-Chem use Armadillo 8.300.2 (Tropical Shenanigans).
 http://arma.sourceforge.net/

 Q-Chem begins on Sun Sep 26 10:07:41 2021  

Host: cori01
0

     Scratch files written to /tmp/qchem43918//Frg1//
 May1019 |scratch|qcdevops|jenkins|workspace|build_RNUM -1
Processing $rem in /global/common/cori/software/qchem/5.2/config/preferences:
	 MEM_TOTAL  96000 
NAlpha2: 58
NElect   58
Mult     1
Symmetry turned off for PCM/SM12/SMD calculation

Checking the input file for inconsistencies... 	...done.

--------------------------------------------------------------
User input:
--------------------------------------------------------------
$molecule
0 1
 6	0.9608649408	1.2122605159	-3.0251958393
 6	1.3408649408	2.1042605159	-0.7011958393
 6	1.6288649408	1.1382605159	-1.6651958393
 6	1.9548649408	2.0742605159	0.5638041607
 6	2.8468649408	1.0432605159	0.9018041607
 6	2.5158649408	0.1022605159	-1.3321958393
 6	3.1308649408	0.0512605159	-0.0471958393
 8	3.3588649408	1.0042605159	2.1808041607
 1	0.6538649408	2.9072605159	-0.9321958393
 1	1.7128649408	2.8392605159	1.2878041607
 1	0.1258649408	1.9102605159	-2.9581958393
 1	0.5328649408	0.2362605159	-3.2601958393
 1	2.7278649408	-0.6787394841	-2.0501958393
 1	3.0588649408	1.7442605159	2.7148041607
 1	3.8018649408	-0.7567394841	0.2088041607
 1	1.6164249408	1.5393205159	-3.8457268393
$end
$rem
EDA2		1
METHOD		WB97X-V
BASIS		DEF2-TZVPD
XC_GRID		000099000590
NL_GRID		1
UNRESTRICTED		FALSE
MAX_SCF_CYCLES		200
SYMMETRY		FALSE
SYM_IGNORE		TRUE
BASIS_LIN_DEP_THRESH		6
THRESH		14
SCF_CONVERGENCE		8
SCF_PRINT_FRGM		TRUE
SOLVENT_METHOD		SMD
!required keywords
JOBTYPE		SP
SYM_IGNORE		TRUE
SUBSYSTEM		TRUE
GEN_SCFMAN		TRUE
CHILD_INSTRUCTION		2
SYM_IGNORE		TRUE
SCFMI		0
RI_K 0		
PARI_K 0		
MIN_PARI_K 0		
IARI_K 0		
OCC_RI_K 0		
PURECART		1111
MEM_STATIC		2000
MEM_TOTAL		96000
GUI		0
CHILD_MP		1
CHILD_MP_ORDERS		232
FRZ_RELAX		0
FRZ_RELAX_METHOD		0
EDA_CLS_ELEC		1
EDA_CLS_DISP		0
FRZ_ORTHO_DECOMP		1
EDA2		FALSE
FRGM_METHOD		FALSE
CIS_N_ROOTS  0
LOCAL_CIS    0
CIS_RLX_DNS  1
$end
$smx
SOLVENT			WATER
$end
--------------------------------------------------------------
 ----------------------------------------------------------------
             Standard Nuclear Orientation (Angstroms)
    I     Atom           X                Y                Z
 ----------------------------------------------------------------
    1      C       0.9608649408     1.2122605159    -3.0251958393
    2      C       1.3408649408     2.1042605159    -0.7011958393
    3      C       1.6288649408     1.1382605159    -1.6651958393
    4      C       1.9548649408     2.0742605159     0.5638041607
    5      C       2.8468649408     1.0432605159     0.9018041607
    6      C       2.5158649408     0.1022605159    -1.3321958393
    7      C       3.1308649408     0.0512605159    -0.0471958393
    8      O       3.3588649408     1.0042605159     2.1808041607
    9      H       0.6538649408     2.9072605159    -0.9321958393
   10      H       1.7128649408     2.8392605159     1.2878041607
   11      H       0.1258649408     1.9102605159    -2.9581958393
   12      H       0.5328649408     0.2362605159    -3.2601958393
   13      H       2.7278649408    -0.6787394841    -2.0501958393
   14      H       3.0588649408     1.7442605159     2.7148041607
   15      H       3.8018649408    -0.7567394841     0.2088041607
   16      H       1.6164249408     1.5393205159    -3.8457268393
 ----------------------------------------------------------------
 Nuclear Repulsion Energy =         340.22057593 hartrees
 There are       29 alpha and       29 beta electrons
 Requested basis set is def2-TZVPD
 There are 145 shells and 371 basis functions

 Total QAlloc Memory Limit  96000 MB
 Mega-Array Size      1956 MB
 MEM_STATIC part      2000 MB
 
 Citation of the SMD model:
 Marenich, A.V.; Cramer, C.J.; Truhlar, D.G.
 J. Phys. Chem. B 2009, 113, 6378-6396.
 iSolventCode=           1
 Solvent: water                                                           
 
 vradii
            1           2           3           4           5           6
    1   1.8500000   1.8500000   1.8500000   1.8500000   1.8500000   1.8500000
            7           8           9          10          11          12
    1   1.8500000   1.5200000   1.2000000   1.2000000   1.2000000   1.2000000
           13          14          15          16
    1   1.2000000   1.2000000   1.2000000   1.2000000
 Changing PCM_VDW_RADII to SMD_RADIUS
 Discretize the solute cavity surface with Lebedev spheres
	Using 110 Lebedev grid points for each H atom
	Using 194 Lebedev grid points for other atoms
	Atomic van der Waals radii will be scaled by 1.20
 Remove points where switching function is < 1.0e-08
 Keep 1175 surface tesserae and discard 1257 interior tesserae
 Molecular Surface Area = 142.752 Angst**2
 A cutoff of  1.0D-14 yielded  10034 shell pairs
 There are     66978 function pairs (     85639 Cartesian)
 Smallest overlap matrix eigenvalue = 6.47E-07
 Linear dependence detected in AO basis
 Tighter screening thresholds may be required for diffuse basis sets
 Use S2THRESH > 14 and THRESH = 14 in case of SCF convergence issues
 Number of orthogonalized atomic orbitals = 370
 Maximum deviation from orthogonality = 2.373E-10

 Scale SEOQF with 1.000000e-01/1.000000e-01/1.000000e-01

 Standard Electronic Orientation quadrupole field applied
 Nucleus-field energy     =     0.0000000005 hartrees
 Guess from superposition of atomic densities
 Warning:  Energy on first SCF cycle will be non-variational
 SAD guess density has 57.738434 electrons

 -----------------------------------------------------------------------
  General SCF calculation program by
  Eric Jon Sundstrom, Paul Horn, Yuezhi Mao, Dmitri Zuev, Alec White,
  David Stuck, Shaama M.S., Shane Yost, Joonho Lee, David Small,
  Daniel Levine, Susi Lehtola, Hugh Burton, Evgeny Epifanovsky
 -----------------------------------------------------------------------
 Exchange:     0.1670 Hartree-Fock + 1.0000 wB97X-V + LR-HF
 Correlation:  1.0000 wB97X-V
 Using Euler-Maclaurin-Lebedev (99,590) quadrature formula
 Nonlocal Correlation:  VV10 with C = 0.0100 and b = 6.00 and scale = 1.00000
 Grid used for NLC:  SG-1 standard quadrature
Energy prior to optimization (guess energy) = -346.495077081570
Begin Timing: Total SCF Calculation
begin iterations for algorithm: DIIS         
the SCF tolerance is set to 1.00e-08
    1    -346.4950770816      5.17e-03     00000 
    2    -346.4286383054      5.63e-03     00000 
    3    -346.8180150456      5.28e-04     00000 
    4    -346.8228726234      1.74e-04     00000 
    5    -346.8235646195      3.77e-05     00000 
    6    -346.8236150954      1.43e-05     00000 
    7    -346.8236203348      5.44e-06     00000 
    8    -346.8236211774      1.55e-06     00000 
    9    -346.8236212738      5.51e-07     00000 
   10    -346.8236212871      2.43e-07     00000 
   11    -346.8236212905      6.66e-08     00000 
   12    -346.8236212910      3.75e-08     00000 
   13    -346.8236212911      1.31e-08     00000 
   14    -346.8236212912      4.31e-09     00000 Convergence criterion met
Timing for Total SCF: 2040.00s (wall), 4054.94s (cpu)
(3)  G-ENP(liq) elect-nuc-pol free energy of system     -346.823621291 a.u.
(4)  G-CDS(liq) cavity-dispersion-solvent structure 
     free energy                                                3.7558 kcal/mol
(6)  G-S(liq) free energy of system                     -346.817636083 a.u.
E_pcm = -0.0177927461
E_cds = 0.0059852082
Multipole orders to be included
        2
        3
computing dipole RHS
computing quadrupole RHS
total number of RHS in solve_reponses: 8
RHS batch sizes
        8
Beginning Block Conjugate Gradient Iterations. Batch Number: 0
computing hessian-vector products by finite difference
              1      6.44e-01     00000 Conjugate Gradient Iteration
computing hessian-vector products by finite difference
              2      1.90e-01     00000 Conjugate Gradient Iteration
computing hessian-vector products by finite difference
              3      4.94e-02     00000 Conjugate Gradient Iteration
computing hessian-vector products by finite difference
              4      1.54e-02     00000 Conjugate Gradient Iteration
computing hessian-vector products by finite difference
              5      4.13e-03     00000 Conjugate Gradient Iteration
computing hessian-vector products by finite difference
              6      1.69e-03     00000 Conjugate Gradient Iteration
computing hessian-vector products by finite difference
              7      3.95e-04     00000 Conjugate Gradient Iteration
computing hessian-vector products by finite difference
              8      7.87e-05     00000 Conjugate Gradient Iteration
computing hessian-vector products by finite difference
              9      1.65e-05     00000 Conjugate Gradient Iteration
computing hessian-vector products by finite difference
             10      3.12e-06     00000 Conjugate Gradient Iteration
computing hessian-vector products by finite difference
             11      5.54e-07     00000 Conjugate Gradient Iteration
computing hessian-vector products by finite difference
             12      1.17e-07     00000 Conjugate Gradient Iteration
computing hessian-vector products by finite difference
             13      2.44e-08     00000 Conjugate Gradient Iteration
computing hessian-vector products by finite difference
             14      8.07e-09     00000 CG Converged
batch 0 complete
Done Calculating Responses
TESTING ORTHOGONALIZATION OF MULTIPOLE BASIS
Multipole virts passed orthogonality test
Virts Per Order
           87
          145
 
 --------------------------------------------------------------
 
                    Orbital Energies (a.u.)
 --------------------------------------------------------------
 
 Alpha MOs
 -- Occupied --
-19.2407 -10.3365 -10.2758 -10.2752 -10.2741 -10.2707 -10.2692 -10.2545
 -1.1856  -0.9861  -0.8953  -0.8738  -0.8045  -0.7405  -0.7082  -0.6581
 -0.5955  -0.5745  -0.5443  -0.5341  -0.5235  -0.5146  -0.5063  -0.4704
 -0.4484  -0.4383  -0.4359  -0.3459  -0.3125
 -- Virtual --
  0.0587   0.0635   0.0744   0.0802   0.0890   0.0994   0.1143   0.1156
  0.1183   0.1363   0.1516   0.1551   0.1615   0.1775   0.1840   0.1976
  0.2015   0.2120   0.2181   0.2291   0.2400   0.2437   0.2527   0.2604
  0.2666   0.2721   0.2760   0.2807   0.2871   0.2988   0.3002   0.3070
  0.3089   0.3127   0.3177   0.3305   0.3354   0.3420   0.3483   0.3518
  0.3550   0.3593   0.3651   0.3745   0.3803   0.3823   0.3892   0.3966
  0.4001   0.4022   0.4049   0.4104   0.4159   0.4216   0.4296   0.4320
  0.4386   0.4543   0.4598   0.4625   0.4726   0.4744   0.4787   0.4894
  0.4908   0.4921   0.5055   0.5084   0.5164   0.5181   0.5319   0.5396
  0.5472   0.5508   0.5532   0.5588   0.5644   0.5713   0.5795   0.5903
  0.6024   0.6039   0.6259   0.6274   0.6412   0.6567   0.6629   0.6753
  0.6789   0.6857   0.6884   0.6933   0.7031   0.7101   0.7214   0.7284
  0.7321   0.7481   0.7517   0.7536   0.7623   0.7744   0.7815   0.7855
  0.7924   0.7947   0.8000   0.8070   0.8106   0.8149   0.8308   0.8369
  0.8419   0.8513   0.8542   0.8623   0.8668   0.8710   0.8903   0.8991
  0.9016   0.9115   0.9281   0.9493   0.9597   0.9722   0.9891   1.0125
  1.0323   1.0360   1.0421   1.0492   1.0563   1.0661   1.0737   1.0914
  1.0957   1.1152   1.1362   1.1700   1.1973   1.2377   1.2575   1.2867
  1.3117   1.3167   1.3354   1.3623   1.3704   1.3781   1.3941   1.4384
  1.4525   1.4610   1.4673   1.4878   1.5252   1.5576   1.6110   1.6179
  1.6334   1.6408   1.6759   1.6851   1.6954   1.7300   1.7779   1.8004
  1.8228   1.8285   1.8330   1.8606   1.8690   1.8758   1.9161   1.9254
  1.9365   1.9536   1.9707   1.9861   2.0045   2.0246   2.0396   2.0550
  2.0617   2.0775   2.0902   2.1064   2.1174   2.1714   2.1985   2.2042
  2.2112   2.2437   2.2666   2.2812   2.2956   2.3161   2.3497   2.3676
  2.3955   2.3990   2.4188   2.4479   2.4983   2.5055   2.5266   2.5456
  2.5740   2.6117   2.6182   2.6467   2.6493   2.6732   2.6852   2.7248
  2.7462   2.7553   2.7699   2.7972   2.8144   2.8333   2.8600   2.8744
  2.8981   2.9278   2.9354   2.9424   2.9616   2.9700   2.9781   2.9929
  3.0234   3.0449   3.0632   3.0716   3.0991   3.1175   3.1402   3.1535
  3.1719   3.1967   3.2149   3.2264   3.2517   3.2564   3.2747   3.2927
  3.2995   3.3610   3.3764   3.3806   3.3911   3.4247   3.4373   3.4630
  3.4666   3.4709   3.4859   3.4970   3.4988   3.5216   3.5323   3.5360
  3.5525   3.5660   3.5803   3.5832   3.6065   3.6220   3.6357   3.6550
  3.6847   3.7031   3.7292   3.7545   3.7686   3.8114   3.8415   3.8955
  3.9234   3.9470   3.9682   3.9778   4.0217   4.0663   4.1291   4.1697
  4.2297   4.2573   4.2786   4.2942   4.3067   4.3171   4.3294   4.3368
  4.3610   4.3672   4.4005   4.4184   4.4703   4.5305   4.5739   4.6028
  4.7131   4.7145   4.7568   4.7877   4.8407   4.9248   5.0054   5.0323
  5.0768   5.1179   5.1569   5.2816   5.2986   5.3851   5.4195   5.5193
  5.6074   5.6139   5.7001   5.7542   5.9203   6.1955   6.4418   6.5882
  6.6277   6.8661   7.0066   7.3021   7.4424  22.6642  22.6814  22.9055
 22.9275  22.9805  23.1289  23.4380  44.4009
 --------------------------------------------------------------
 
          Ground-State Mulliken Net Atomic Charges

     Atom                 Charge (a.u.)
  ----------------------------------------
      1 C                    -1.069179
      2 C                    -0.603294
      3 C                     0.521067
      4 C                    -0.374022
      5 C                     0.591713
      6 C                    -0.440461
      7 C                    -0.781266
      8 O                    -0.538040
      9 H                     0.364122
     10 H                     0.369339
     11 H                     0.292892
     12 H                     0.270739
     13 H                     0.410033
     14 H                     0.326418
     15 H                     0.408477
     16 H                     0.251461
  ----------------------------------------
  Sum of atomic charges =     0.000000

 -----------------------------------------------------------------
                    Cartesian Multipole Moments
 -----------------------------------------------------------------
    Charge (ESU x 10^10)
                 0.0000
    Dipole Moment (Debye)
         X      -1.3416      Y       1.6175      Z      -0.1943
       Tot       2.1104
    Quadrupole Moments (Debye-Ang)
        XX     -56.2892     XY      -0.3721     YY     -40.7155
        XZ      -0.3564     YZ       6.1974     ZZ     -41.4719
    Octopole Moments (Debye-Ang^2)
       XXX    -353.5302    XXY     -63.4546    XYY     -95.0451
       YYY    -140.4572    XXZ      15.8440    XYZ      19.0375
       YYZ      37.2003    XZZ     -95.6505    YZZ     -33.2262
       ZZZ      71.2164
    Hexadecapole Moments (Debye-Ang^3)
      XXXX   -1829.5657   XXXY    -345.3355   XXYY    -355.7218
      XYYY    -270.7762   YYYY    -546.8547   XXXZ     -55.8731
      XXYZ      66.5432   XYYZ      43.7612   YYYZ      95.8749
      XXZZ    -426.0535   XYZZ     -49.4074   YYZZ    -195.8779
      XZZZ      -2.3080   YZZZ     105.6417   ZZZZ    -818.5082
 -----------------------------------------------------------------
Archival summary:
1\1\nid00552\SP\ProcedureUnspecified\BasisUnspecified\178\meili\SunSep2620:38:502021SunSep2620:38:502021\0\\#,ProcedureUnspecified,BasisUnspecified,\\0,1\C\O,1,1.37823\H,2,0.960602,1,112.214\C,1,1.4019,2,122.203,3,-178.869,0\H,4,1.08104,1,119.625,2,-2.34632,0\C,1,1.40459,2,118.686,3,-2.32371,0\H,6,1.08072,1,120.038,2,2.43346,0\C,6,1.40646,1,120.62,2,-175.849,0\H,8,1.08173,6,119.023,1,179.66,0\C,8,1.39477,6,121.113,1,-1.90831,0\C,10,1.40391,8,118.529,6,2.09463,0\H,11,1.08186,10,119.941,8,177.804,0\C,10,1.517,8,119.664,6,-179.222,0\H,13,1.09038,10,108.261,8,-14.4634,0\H,13,1.09132,10,108.791,8,-129.914,0\H,13,1.1,10,114.886,8,106.541,0\\\@

 Total job time:  37871.66s(wall), 75160.36s(cpu) 
 Sun Sep 26 20:38:52 2021

        *************************************************************
        *                                                           *
        *  Thank you very much for using Q-Chem.  Have a nice day.  *
        *                                                           *
        *************************************************************


Done Job For Fragment 0
calling putenv with: QCSCRATCH=/global/cscratch1/sd/meili 
calling putenv with: QCLOCALSCR=/tmp 
calling putenv with: QCTHREADS=32 
Creating input file /tmp/qchem43918/Frg2.input
using default PutDataFrgm: nothing
calling putenv with: QCSCRATCH=/tmp/qchem43918/ 
calling putenv with: QCLOCALSCR=/tmp/qchem43918/ 
Spawning Job For Fragment 1
                  Welcome to Q-Chem
     A Quantum Leap Into The Future Of Chemistry


 Q-Chem 5.2, Q-Chem, Inc., Pleasanton, CA (2019)

 License issued to: National Energy Research Scientific Computing Center

 Yihan Shao,  Zhengting Gan,  E. Epifanovsky,  A. T. B. Gilbert,  M. Wormit,  
 J. Kussmann,  A. W. Lange,  A. Behn,  Jia Deng,  Xintian Feng,  D. Ghosh,  
 M. Goldey,  P. R. Horn,  L. D. Jacobson,  I. Kaliman,  T. Kus,  A. Landau,  
 Jie Liu,  E. I. Proynov,  R. M. Richard,  R. P. Steele,  E. J. Sundstrom,  
 H. L. Woodcock III,  P. M. Zimmerman,  D. Zuev,  B. Albrecht,  E. Alguire,  
 S. A. Baeppler,  D. Barton,  Z. Benda,  Y. A. Bernard,  E. J. Berquist,  
 K. B. Bravaya,  H. Burton,  D. Casanova,  Chun-Min Chang,  Yunqing Chen,  
 A. Chien,  K. D. Closser,  M. P. Coons,  S. Coriani,  S. Dasgupta,  
 A. L. Dempwolff,  M. Diedenhofen,  Hainam Do,  R. G. Edgar,  Po-Tung Fang,  
 S. Faraji,  S. Fatehi,  Qingguo Feng,  K. D. Fenk,  J. Fosso-Tande,  
 J. Gayvert,  Qinghui Ge,  A. Ghysels,  G. Gidofalvi,  J. Gomes,  
 J. Gonthier,  A. Gunina,  D. Hait,  M. W. D. Hanson-Heine,  
 P. H. P. Harbach,  A. W. Hauser,  M. F. Herbst,  J. E. Herr,  
 E. G. Hohenstein,  Z. C. Holden,  Kerwin Hui,  B. C. Huynh,  T.-C. Jagau,  
 Hyunjun Ji,  B. Kaduk,  K. Khistyaev,  Jaehoon Kim,  P. Klunzinger,  K. Koh,  
 D. Kosenkov,  L. Koulias,  T. Kowalczyk,  C. M. Krauter,  A. Kunitsa,  
 Ka Un Lao,  A. Laurent,  K. V. Lawler,  Joonho Lee,  D. Lefrancois,  
 S. Lehtola,  D. S. Levine,  Yi-Pei Li,  You-Sheng Lin,  Fenglai Liu,  
 E. Livshits,  A. Luenser,  P. Manohar,  E. Mansoor,  S. F. Manzer,  
 Shan-Ping Mao,  Yuezhi Mao,  N. Mardirossian,  A. V. Marenich,  
 T. Markovich,  L. A. Martinez-Martinez,  S. A. Maurer,  N. J. Mayhall,  
 S. C. McKenzie,  J.-M. Mewes,  P. Morgante,  A. F. Morrison,  
 J. W. Mullinax,  K. Nanda,  T. S. Nguyen-Beck,  R. Olivares-Amaya,  
 J. A. Parkhill,  Zheng Pei,  T. M. Perrine,  F. Plasser,  P. Pokhilko,  
 S. Prager,  A. Prociuk,  E. Ramos,  D. R. Rehn,  F. Rob,  M. Scheurer,  
 M. Schneider,  N. Sergueev,  S. M. Sharada,  S. Sharma,  D. W. Small,  
 T. Stauch,  T. Stein,  Yu-Chuan Su,  A. J. W. Thom,  A. Tkatchenko,  
 T. Tsuchimochi,  N. M. Tubman,  L. Vogt,  M. L. Vidal,  O. Vydrov,  
 M. A. Watson,  J. Wenzel,  M. de Wergifosse,  T. A. Wesolowski,  A. White,  
 J. Witte,  A. Yamada,  Jun Yang,  K. Yao,  S. Yeganeh,  S. R. Yost,  
 Zhi-Qiang You,  A. Zech,  Igor Ying Zhang,  Xing Zhang,  Yan Zhao,  
 Ying Zhu,  B. R. Brooks,  G. K. L. Chan,  C. J. Cramer,  M. S. Gordon,  
 W. J. Hehre,  A. Klamt,  M. W. Schmidt,  C. D. Sherrill,  D. G. Truhlar,  
 A. Aspuru-Guzik,  R. Baer,  A. T. Bell,  N. A. Besley,  Jeng-Da Chai,  
 A. E. DePrince, III,  R. A. DiStasio Jr.,  A. Dreuw,  B. D. Dunietz,  
 T. R. Furlani,  Chao-Ping Hsu,  Yousung Jung,  Jing Kong,  D. S. Lambrecht,  
 WanZhen Liang,  C. Ochsenfeld,  V. A. Rassolov,  L. V. Slipchenko,  
 J. E. Subotnik,  T. Van Voorhis,  J. M. Herbert,  A. I. Krylov,  
 P. M. W. Gill,  M. Head-Gordon

 Contributors to earlier versions of Q-Chem not listed above: 
 R. D. Adamson,  B. Austin,  J. Baker,  G. J. O. Beran,  K. Brandhorst,  
 S. T. Brown,  E. F. C. Byrd,  A. K. Chakraborty,  C.-L. Cheng,  
 Siu Hung Chien,  D. M. Chipman,  D. L. Crittenden,  H. Dachsel,  
 R. J. Doerksen,  A. D. Dutoi,  L. Fusti-Molnar,  W. A. Goddard III,  
 A. Golubeva-Zadorozhnaya,  S. R. Gwaltney,  G. Hawkins,  A. Heyden,  
 S. Hirata,  G. Kedziora,  F. J. Keil,  C. Kelley,  Jihan Kim,  R. A. King,  
 R. Z. Khaliullin,  P. P. Korambath,  W. Kurlancheek,  A. M. Lee,  M. S. Lee,  
 S. V. Levchenko,  Ching Yeh Lin,  D. Liotard,  R. C. Lochan,  I. Lotan,  
 P. E. Maslen,  N. Nair,  D. P. O'Neill,  D. Neuhauser,  E. Neuscamman,  
 C. M. Oana,  R. Olson,  B. Peters,  R. Peverati,  P. A. Pieniazek,  
 Y. M. Rhee,  J. Ritchie,  M. A. Rohrdanz,  E. Rosta,  N. J. Russ,  
 H. F. Schaefer III,  N. E. Schultz,  N. Shenvi,  A. C. Simmonett,  A. Sodt,  
 D. Stuck,  K. S. Thanthiriwatte,  V. Vanovschi,  Tao Wang,  A. Warshel,  
 C. F. Williams,  Q. Wu,  X. Xu,  W. Zhang

 Please cite Q-Chem as follows:
 Y. Shao et al., Mol. Phys. 113, 184-215 (2015)
 DOI: 10.1080/00268976.2014.952696

 Q-Chem 5.2.0 for Intel X86 EM64T Linux

 Parts of Q-Chem use Armadillo 8.300.2 (Tropical Shenanigans).
 http://arma.sourceforge.net/

 Q-Chem begins on Sun Sep 26 20:38:55 2021  

Host: cori01
0

     Scratch files written to /tmp/qchem43918//Frg2//
 May1019 |scratch|qcdevops|jenkins|workspace|build_RNUM -1
Processing $rem in /global/common/cori/software/qchem/5.2/config/preferences:
	 MEM_TOTAL  96000 
NAlpha2: 50
NElect   50
Mult     1
Symmetry turned off for PCM/SM12/SMD calculation

Checking the input file for inconsistencies... 	...done.

--------------------------------------------------------------
User input:
--------------------------------------------------------------
$molecule
0 1
 6	-4.9431350592	-1.1967394841	1.1168041607
 6	-1.5781350592	-0.1787394841	-0.2891958393
 6	-0.8361350592	-1.3477394841	-0.1271958393
 6	-2.9131350592	-0.1417394841	0.1108041607
 6	-3.5141350592	-1.2657394841	0.6888041607
 6	-1.4401350592	-2.4687394841	0.4348041607
 6	-2.7731350592	-2.4287394841	0.8498041607
 1	-1.1221350592	0.6962605159	-0.7301958393
 1	0.1988649408	-1.3837394841	-0.4391958393
 1	-3.4821350592	0.7682605159	-0.0231958393
 1	-0.8711350592	-3.3817394841	0.5488041607
 1	-5.4701350592	-2.0667394841	0.7208041607
 1	-5.3991350592	-0.3237394841	0.6628041607
 1	-3.2271350592	-3.3067394841	1.2898041607
 1	-5.0756450592	-1.1744194841	2.2085641607
$end
$rem
EDA2		1
METHOD		WB97X-V
BASIS		DEF2-TZVPD
XC_GRID		000099000590
NL_GRID		1
UNRESTRICTED		FALSE
MAX_SCF_CYCLES		200
SYMMETRY		FALSE
SYM_IGNORE		TRUE
BASIS_LIN_DEP_THRESH		6
THRESH		14
SCF_CONVERGENCE		8
SCF_PRINT_FRGM		TRUE
SOLVENT_METHOD		SMD
!required keywords
JOBTYPE		SP
SYM_IGNORE		TRUE
SUBSYSTEM		TRUE
GEN_SCFMAN		TRUE
CHILD_INSTRUCTION		2
SYM_IGNORE		TRUE
SCFMI		0
RI_K 0		
PARI_K 0		
MIN_PARI_K 0		
IARI_K 0		
OCC_RI_K 0		
PURECART		1111
MEM_STATIC		2000
MEM_TOTAL		96000
GUI		0
CHILD_MP		1
CHILD_MP_ORDERS		232
FRZ_RELAX		0
FRZ_RELAX_METHOD		0
EDA_CLS_ELEC		1
EDA_CLS_DISP		0
FRZ_ORTHO_DECOMP		1
EDA2		FALSE
FRGM_METHOD		FALSE
CIS_N_ROOTS  0
LOCAL_CIS    0
CIS_RLX_DNS  1
$end
$smx
SOLVENT			WATER
$end
--------------------------------------------------------------
 ----------------------------------------------------------------
             Standard Nuclear Orientation (Angstroms)
    I     Atom           X                Y                Z
 ----------------------------------------------------------------
    1      C      -4.9431350592    -1.1967394841     1.1168041607
    2      C      -1.5781350592    -0.1787394841    -0.2891958393
    3      C      -0.8361350592    -1.3477394841    -0.1271958393
    4      C      -2.9131350592    -0.1417394841     0.1108041607
    5      C      -3.5141350592    -1.2657394841     0.6888041607
    6      C      -1.4401350592    -2.4687394841     0.4348041607
    7      C      -2.7731350592    -2.4287394841     0.8498041607
    8      H      -1.1221350592     0.6962605159    -0.7301958393
    9      H       0.1988649408    -1.3837394841    -0.4391958393
   10      H      -3.4821350592     0.7682605159    -0.0231958393
   11      H      -0.8711350592    -3.3817394841     0.5488041607
   12      H      -5.4701350592    -2.0667394841     0.7208041607
   13      H      -5.3991350592    -0.3237394841     0.6628041607
   14      H      -3.2271350592    -3.3067394841     1.2898041607
   15      H      -5.0756450592    -1.1744194841     2.2085641607
 ----------------------------------------------------------------
 Nuclear Repulsion Energy =         269.96906085 hartrees
 There are       25 alpha and       25 beta electrons
 Requested basis set is def2-TZVPD
 There are 131 shells and 331 basis functions

 Total QAlloc Memory Limit  96000 MB
 Mega-Array Size      1956 MB
 MEM_STATIC part      2000 MB
 
 Citation of the SMD model:
 Marenich, A.V.; Cramer, C.J.; Truhlar, D.G.
 J. Phys. Chem. B 2009, 113, 6378-6396.
 iSolventCode=           1
 Solvent: water                                                           
 
 vradii
            1           2           3           4           5           6
    1   1.8500000   1.8500000   1.8500000   1.8500000   1.8500000   1.8500000
            7           8           9          10          11          12
    1   1.8500000   1.2000000   1.2000000   1.2000000   1.2000000   1.2000000
           13          14          15
    1   1.2000000   1.2000000   1.2000000
 Changing PCM_VDW_RADII to SMD_RADIUS
 Discretize the solute cavity surface with Lebedev spheres
	Using 110 Lebedev grid points for each H atom
	Using 194 Lebedev grid points for other atoms
	Atomic van der Waals radii will be scaled by 1.20
 Remove points where switching function is < 1.0e-08
 Keep 1101 surface tesserae and discard 1137 interior tesserae
 Molecular Surface Area = 131.910 Angst**2

                       Distance Matrix (Angstroms)
             C (  1)   C (  2)   C (  3)   C (  4)   C (  5)   C (  6)
   C (  2)  3.786342
   C (  3)  4.293924  1.394048
   C (  4)  2.499192  1.394128  2.413506
   C (  5)  1.493314  2.426139  2.800761  1.399522
   C (  6)  3.788683  2.405685  1.391870  2.773019  2.411058
   C (  7)  2.509584  2.790671  2.423852  2.407507  1.388370  1.396680
   H (  8)  4.647031  1.080760  2.150196  2.148768  3.403626  3.387562
   H (  9)  5.375525  2.152267  1.081603  3.395528  3.882355  2.151144
   H ( 10)  2.700990  2.143077  3.389629  1.081581  2.155255  3.854568
   H ( 11)  4.655967  3.385454  2.143678  3.854764  3.388585  1.081816
   H ( 12)  1.091533  4.442106  4.765503  3.258216  2.113897  4.060086
   H ( 13)  1.084519  3.940478  4.742747  2.553042  2.107431  4.508513
   H ( 14)  2.725194  3.872574  3.400360  3.392029  2.146917  2.150962
   H ( 15)  1.099999  4.411662  4.843476  3.184882  2.180900  4.247166
             C (  7)   H (  8)   H (  9)   H ( 10)   H ( 11)   H ( 12)
   H (  8)  3.871411
   H (  9)  3.403870  2.481153
   H ( 10)  3.389044  2.464677  4.284148
   H ( 11)  2.148584  4.281229  2.472458  4.936295
   H ( 12)  2.724242  5.352072  5.826633  3.541596  4.786398
   H ( 13)  3.370737  4.612329  5.803069  2.310400  5.465084  1.745409
   H ( 14)  1.081943  4.953326  4.292417  4.288895  2.470919  2.625340
   H ( 15)  2.953151  5.269345  5.905498  3.360660  5.030404  1.779125
             H ( 13)   H ( 14)
   H ( 14)  3.742860
   H ( 15)  1.793788  2.967810
 
 A cutoff of  1.0D-14 yielded   8361 shell pairs
 There are     54505 function pairs (     69459 Cartesian)
 Smallest overlap matrix eigenvalue = 5.69E-07
 Linear dependence detected in AO basis
 Tighter screening thresholds may be required for diffuse basis sets
 Use S2THRESH > 14 and THRESH = 14 in case of SCF convergence issues
 Number of orthogonalized atomic orbitals = 330
 Maximum deviation from orthogonality = 1.299E-10

 Scale SEOQF with 1.000000e-02/1.000000e-01/1.000000e-01

 Standard Electronic Orientation quadrupole field applied
 Nucleus-field energy     =     0.0000000084 hartrees
 Guess from superposition of atomic densities
 Warning:  Energy on first SCF cycle will be non-variational
 SAD guess density has 49.913408 electrons

 -----------------------------------------------------------------------
  General SCF calculation program by
  Eric Jon Sundstrom, Paul Horn, Yuezhi Mao, Dmitri Zuev, Alec White,
  David Stuck, Shaama M.S., Shane Yost, Joonho Lee, David Small,
  Daniel Levine, Susi Lehtola, Hugh Burton, Evgeny Epifanovsky
 -----------------------------------------------------------------------
 Exchange:     0.1670 Hartree-Fock + 1.0000 wB97X-V + LR-HF
 Correlation:  1.0000 wB97X-V
 Using Euler-Maclaurin-Lebedev (99,590) quadrature formula
 Nonlocal Correlation:  VV10 with C = 0.0100 and b = 6.00 and scale = 1.00000
 Grid used for NLC:  SG-1 standard quadrature
Energy prior to optimization (guess energy) = -271.519682298717
Begin Timing: Total SCF Calculation
begin iterations for algorithm: DIIS         
the SCF tolerance is set to 1.00e-08
    1    -271.5196822987      1.96e-03     00000 
    2    -271.5608134871      1.28e-03     00000 
    3    -271.5847914224      1.56e-04     00000 
    4    -271.5854946921      4.67e-05     00000 
    5    -271.5855458237      2.14e-05     00000 
    6    -271.5855533780      5.46e-06     00000 
    7    -271.5855540914      1.46e-06     00000 
    8    -271.5855541328      4.81e-07     00000 
    9    -271.5855541382      8.46e-08     00000 
   10    -271.5855541385      4.02e-08     00000 
   11    -271.5855541386      1.58e-08     00000 
   12    -271.5855541386      4.86e-09     00000 Convergence criterion met
Timing for Total SCF: 1272.00s (wall), 2532.21s (cpu)
(3)  G-ENP(liq) elect-nuc-pol free energy of system     -271.585554139 a.u.
(4)  G-CDS(liq) cavity-dispersion-solvent structure 
     free energy                                                3.1711 kcal/mol
(6)  G-S(liq) free energy of system                     -271.580500620 a.u.
E_pcm = -0.0075573411
E_cds = 0.0050535182
Multipole orders to be included
        2
        3
computing dipole RHS
computing quadrupole RHS
total number of RHS in solve_reponses: 8
RHS batch sizes
        8
Beginning Block Conjugate Gradient Iterations. Batch Number: 0
computing hessian-vector products by finite difference
              1      6.24e-01     00000 Conjugate Gradient Iteration
computing hessian-vector products by finite difference
              2      1.94e-01     00000 Conjugate Gradient Iteration
computing hessian-vector products by finite difference
              3      4.58e-02     00000 Conjugate Gradient Iteration
computing hessian-vector products by finite difference
              4      1.16e-02     00000 Conjugate Gradient Iteration
computing hessian-vector products by finite difference
              5      2.05e-03     00000 Conjugate Gradient Iteration
computing hessian-vector products by finite difference
              6      5.22e-04     00000 Conjugate Gradient Iteration
computing hessian-vector products by finite difference
              7      1.83e-04     00000 Conjugate Gradient Iteration
computing hessian-vector products by finite difference
              8      2.87e-05     00000 Conjugate Gradient Iteration
computing hessian-vector products by finite difference
              9      3.65e-06     00000 Conjugate Gradient Iteration
computing hessian-vector products by finite difference
             10      6.63e-07     00000 Conjugate Gradient Iteration
computing hessian-vector products by finite difference
             11      1.37e-07     00000 Conjugate Gradient Iteration
computing hessian-vector products by finite difference
             12      1.78e-08     00000 Conjugate Gradient Iteration
computing hessian-vector products by finite difference
             13      2.89e-09     00000 CG Converged
batch 0 complete
Done Calculating Responses
TESTING ORTHOGONALIZATION OF MULTIPOLE BASIS
Multipole virts passed orthogonality test
Virts Per Order
           75
          125
 
 --------------------------------------------------------------
 
                    Orbital Energies (a.u.)
 --------------------------------------------------------------
 
 Alpha MOs
 -- Occupied --
-10.2764 -10.2686 -10.2683 -10.2655 -10.2646 -10.2644 -10.2519  -0.9929
 -0.9031  -0.8738  -0.8072  -0.7252  -0.6995  -0.6235  -0.5688  -0.5607
 -0.5298  -0.5235  -0.5091  -0.4797  -0.4687  -0.4356  -0.4346  -0.3459
 -0.3344
 -- Virtual --
  0.0661   0.0684   0.0720   0.0844   0.0898   0.1095   0.1157   0.1180
  0.1408   0.1597   0.1708   0.1778   0.1890   0.1962   0.1996   0.2058
  0.2275   0.2331   0.2392   0.2455   0.2536   0.2632   0.2656   0.2773
  0.2867   0.2886   0.2900   0.2968   0.2991   0.3052   0.3061   0.3175
  0.3244   0.3291   0.3347   0.3438   0.3570   0.3571   0.3719   0.3784
  0.3817   0.3862   0.3924   0.3941   0.3971   0.4040   0.4076   0.4106
  0.4189   0.4338   0.4362   0.4405   0.4451   0.4528   0.4566   0.4605
  0.4705   0.4780   0.4809   0.4904   0.4969   0.5021   0.5174   0.5188
  0.5220   0.5285   0.5384   0.5468   0.5499   0.5555   0.5579   0.5724
  0.5807   0.5872   0.5947   0.6014   0.6042   0.6267   0.6411   0.6489
  0.6713   0.6763   0.6850   0.6922   0.6963   0.7059   0.7245   0.7294
  0.7329   0.7375   0.7483   0.7620   0.7679   0.7708   0.7785   0.7880
  0.7966   0.7979   0.8033   0.8060   0.8147   0.8273   0.8301   0.8348
  0.8391   0.8409   0.8548   0.8628   0.8647   0.8729   0.8886   0.9014
  0.9191   0.9299   0.9385   0.9490   0.9535   1.0101   1.0375   1.0448
  1.0513   1.0651   1.0745   1.0754   1.0938   1.1011   1.1057   1.1455
  1.1661   1.1779   1.2660   1.2792   1.3015   1.3346   1.3557   1.3633
  1.3783   1.4436   1.4539   1.4629   1.4650   1.4831   1.5323   1.5432
  1.6082   1.6149   1.6265   1.6319   1.6611   1.6803   1.7446   1.7793
  1.7906   1.8006   1.8085   1.8198   1.8342   1.8647   1.8908   1.9193
  1.9214   1.9297   1.9402   1.9733   1.9935   1.9972   2.0182   2.0296
  2.0383   2.0496   2.0737   2.0942   2.1146   2.1269   2.1766   2.1970
  2.2052   2.2388   2.2552   2.2822   2.2957   2.3147   2.3901   2.4030
  2.4093   2.4220   2.4771   2.5201   2.5470   2.5610   2.5658   2.6065
  2.6211   2.6474   2.6743   2.6907   2.7055   2.7168   2.7639   2.7753
  2.7880   2.8126   2.8166   2.8511   2.8677   2.8984   2.9164   2.9213
  2.9363   2.9431   2.9810   2.9865   2.9987   3.0198   3.0271   3.0551
  3.0659   3.0940   3.1045   3.1354   3.1761   3.1929   3.2059   3.2215
  3.2380   3.2595   3.2881   3.2920   3.3531   3.3623   3.3694   3.3840
  3.4128   3.4382   3.4488   3.4554   3.4646   3.4846   3.4915   3.4990
  3.5098   3.5393   3.5427   3.5489   3.5574   3.5760   3.5793   3.6108
  3.6358   3.6412   3.6621   3.6998   3.7184   3.7527   3.7760   3.8176
  3.8616   3.9089   3.9233   3.9543   3.9665   4.0013   4.0397   4.0544
  4.1298   4.2094   4.2703   4.2794   4.2910   4.3150   4.3290   4.3449
  4.3504   4.3678   4.3983   4.4060   4.4314   4.4499   4.4945   4.5357
  4.6081   4.6196   4.7691   4.7922   4.8352   4.8700   4.9139   4.9456
  5.0256   5.0518   5.1761   5.2702   5.3676   5.3884   5.5055   5.5409
  5.6688   5.8562  22.5847  22.7041  22.8884  22.8983  23.0078  23.0785
 23.4230
 --------------------------------------------------------------
 
          Ground-State Mulliken Net Atomic Charges

     Atom                 Charge (a.u.)
  ----------------------------------------
      1 C                    -1.081582
      2 C                    -0.594239
      3 C                    -0.560996
      4 C                    -0.421791
      5 C                     0.829497
      6 C                    -0.514222
      7 C                    -0.390642
      8 H                     0.373822
      9 H                     0.400734
     10 H                     0.364976
     11 H                     0.373602
     12 H                     0.265003
     13 H                     0.300205
     14 H                     0.406873
     15 H                     0.248759
  ----------------------------------------
  Sum of atomic charges =     0.000000

 -----------------------------------------------------------------
                    Cartesian Multipole Moments
 -----------------------------------------------------------------
    Charge (ESU x 10^10)
                 0.0000
    Dipole Moment (Debye)
         X      -0.5393      Y      -0.0139      Z       0.1386
       Tot       0.5570
    Quadrupole Moments (Debye-Ang)
        XX     -35.3223     XY       0.0442     YY     -38.3706
        XZ      -3.0001     YZ      -2.7426     ZZ     -44.7210
    Octopole Moments (Debye-Ang^2)
       XXX     295.6930    XXY      47.9448    XYY     102.9614
       YYY     147.9771    XXZ      -4.5251    XYZ       9.2433
       YYZ     -10.1247    XZZ     113.7035    YZZ      56.3994
       ZZZ     -52.3700
    Hexadecapole Moments (Debye-Ang^3)
      XXXX   -2162.2693   XXXY    -373.9336   XXYY    -469.4943
      XYYY    -383.9240   YYYY    -644.8241   XXXZ     162.9822
      XXYZ       2.2266   XYYZ      49.6009   YYYZ      72.4132
      XXZZ    -415.6392   XYZZ    -135.0707   YYZZ    -149.0583
      XZZZ     208.1347   YZZZ     102.6395   ZZZZ    -174.3924
 -----------------------------------------------------------------
Archival summary:
1\1\nid00552\SP\ProcedureUnspecified\BasisUnspecified\78\meili\MonSep2703:45:492021MonSep2703:45:492021\0\\#,ProcedureUnspecified,BasisUnspecified,\\0,1\C\C,1,1.38837\H,2,1.08194,1,120.197\C,2,1.39668,1,119.929,3,179.585,0\H,4,1.08182,2,119.66,1,-179.091,0\C,4,1.39187,2,120.735,1,0.744209,0\H,6,1.0816,4,120.326,2,179.52,0\C,6,1.39405,4,119.427,2,-0.70968,0\H,8,1.08076,6,120.116,4,-179.604,0\C,8,1.39413,6,119.908,4,-0.0121822,0\H,10,1.08158,8,119.377,6,-179.71,0\C,1,1.49331,2,121.078,3,0.0943291,0\H,12,1.08452,1,108.637,2,-164.566,0\H,12,1.09153,1,108.736,2,-48.8503,0\H,12,1.1,1,113.621,2,72.1423,0\\\@

 Total job time:  25615.38s(wall), 50914.56s(cpu) 
 Mon Sep 27 03:45:50 2021

        *************************************************************
        *                                                           *
        *  Thank you very much for using Q-Chem.  Have a nice day.  *
        *                                                           *
        *************************************************************


Done Job For Fragment 1
calling putenv with: QCSCRATCH=/global/cscratch1/sd/meili 
calling putenv with: QCLOCALSCR=/tmp 
calling putenv with: QCTHREADS=32 
Doing General SCFMI
 Exchange:     0.1670 Hartree-Fock + 1.0000 wB97X-V + LR-HF
 Correlation:  1.0000 wB97X-V
 Using Euler-Maclaurin-Lebedev (99,590) quadrature formula
 Nonlocal Correlation:  VV10 with C = 0.0100 and b = 6.00 and scale = 1.00000
 Grid used for NLC:  SG-1 standard quadrature
performing fock build before subrot guess so that all methods have access
Printing subrot_rss_gen Method Specification:
Occupied Subspace Method is 0
Virtual Subspace Method is 0
Energy of the unrelaxed supersystem initial determinant -618.386980094648
performing fock build before subrot guess so that all methods have access
Printing subrot_rss_gen Method Specification:
Occupied Subspace Method is 0
Virtual Subspace Method is 0
Energy of the unrelaxed supersystem initial determinant w/ solvent -618.411950304735
write pseudocanon occs and virts to disk
write pseudocanon orbital energies to disk
Tolerance of ortho_decomp_scf: 1.00e-06
GDM subspace size: 20
Beginning the Orthogonal Decomposition of the Initial Supersystem Wavefunction
    1    -618.3697528351      1.63e-02     ortho_decomp Preconditoned Steepest Descent
    2    -618.3710866287      3.99e-04     ortho_decomp BFGS Step
    3    -618.3710907583      3.20e-05     ortho_decomp BFGS Step
    4    -618.3710907678      1.37e-06     ortho_decomp BFGS Step
    5    -618.3710907678      4.76e-08     ortho_decomp 00000 Convergence criterion met
 Hartree-Fock
 Hartree-Fock
 Hartree-Fock
Doing General SCFMI
 Exchange:     0.1670 Hartree-Fock + 1.0000 wB97X-V + LR-HF
 Correlation:  1.0000 wB97X-V
 Using Euler-Maclaurin-Lebedev (99,590) quadrature formula
 Nonlocal Correlation:  VV10 with C = 0.0100 and b = 6.00 and scale = 1.00000
 Grid used for NLC:  SG-1 standard quadrature
performing fock build at end of subrot_r(subrot) constructor so that all methods have access
<S^2> of initial wavefunction before polarization iterations 0.0000000000
Beginning iterations for the determination of the polarized wavefunction
Energy prior to optimization (guess energy) = -618.411950304735
Begin Timing: Total SCF Calculation
begin iterations for algorithm: DIIS         
the SCF tolerance is set to 1.00e-08
    1    -618.4119503047      3.45e-05     00000 
    2    -618.4120941810      1.48e-05     00000 
    3    -618.4121127564      8.46e-06     00000 
    4    -618.4121195854      2.62e-06     00000 
    5    -618.4121205379      1.36e-06     00000 
    6    -618.4121207579      4.57e-07     00000 
    7    -618.4121207752      2.45e-07     00000 
    8    -618.4121207786      1.16e-07     00000 
    9    -618.4121207793      4.86e-08     00000 
   10    -618.4121207794      2.33e-08     00000 
   11    -618.4121207794      7.90e-09     00000 Convergence criterion met
write pseudocanon occs and virts to disk
write pseudocanon orbital energies to disk
Timing for Total SCF: 10249.00s (wall), 20420.99s (cpu)
<S^2> of polarized wavefunction after polarization iterations 0.0000000000
relaxing scfmi constraint to allow all rotations in the entire AO span
Doing General SCFMI
 Exchange:     0.1670 Hartree-Fock + 1.0000 wB97X-V + LR-HF
 Correlation:  1.0000 wB97X-V
 Using Euler-Maclaurin-Lebedev (99,590) quadrature formula
 Nonlocal Correlation:  VV10 with C = 0.0100 and b = 6.00 and scale = 1.00000
 Grid used for NLC:  SG-1 standard quadrature
performing fock build at end of subrot_r(subrot) constructor so that all methods have access
<S^2> of polarized wavefunction before ct-allowed iterations 0.0000000000
Beginning iterations for the determination of the CT-Allowed wavefunction
Energy prior to optimization (guess energy) = -618.412120779419
Begin Timing: Total SCF Calculation
begin iterations for algorithm: DIIS         
the SCF tolerance is set to 1.00e-08
    1    -618.4121207794      5.77e-05     00000 
    2    -618.4128979174      5.73e-06     00000 
    3    -618.4129215850      1.02e-06     00000 
    4    -618.4129225238      4.05e-07     00000 
    5    -618.4129225779      1.41e-07     00000 
    6    -618.4129225885      3.80e-08     00000 
    7    -618.4129225891      1.26e-08     00000 
    8    -618.4129225893      4.34e-09     00000 Convergence criterion met
write pseudocanon occs and virts to disk
write pseudocanon orbital energies to disk
Timing for Total SCF: 6743.00s (wall), 13434.09s (cpu)
<S^2> of ct_allowed wavefunction after ct-allowed iterations 0.0000000000

================================
        Results of EDA2         
================================
Basic EDA Quantities
--------------------
Fragment Energies (Ha):
1 -346.8176360829
2 -271.5805006204
--------------------
  E_prp (kJ/mol) = 0.0000
  E_sol (kJ/mol) = -0.7775
  E_frz (kJ/mol) = -8.2829
  E_pol (kJ/mol) = -0.4476
  E_vct (kJ/mol) = -2.1052
  E_int (kJ/mol) = -11.6132
--------------------


Initial Wavefunction Decomposition
--------------------
  --------------------
  Orthogonal Fragment Subspace Decomposition:
  --------------------
     E_elec   (ELEC)   (kJ/mol) = -16.7357
     E_pauli  (PAULI)  (kJ/mol) = 25.5634
     E_disp   (DISP)   (kJ/mol) = -17.1106
     --------------------
     Terms summing to E_pauli:
     --------------------
        E_kep_pauli       (kJ/mol) = 33.4350
        E_disp_free_pauli (kJ/mol) = -7.8716
  --------------------
  Classical Frozen Decomposition:
  --------------------
     E_cls_elec  (CLS ELEC)  (kJ/mol) = -6.0369
     E_cls_pauli (CLS PAULI) (kJ/mol) = -2.2460
    [E_mod_pauli (MOD PAULI) (kJ/mol) = 14.8645 (CLS PAULI - DISP from orthogonal decomposition) ]
  --------------------
--------------------

Simplified EDA Summary (kJ/mol)
--------------------
 PREPARATION     0.0000
 SOLVATION       -0.7775
 FROZEN          8.8277      (does not include dispersion)
[PAULI           25.5634]     (if this is negligible, then frozen describes electrostatics)
 DISPERSION      -17.1106
 POLARIZATION    -0.4476
 CHARGE TRANSFER -2.1052
 TOTAL           -11.6132     (PRP + SOL + FRZ + DISP + POL + CT)
--------------------
 
 --------------------------------------------------------------
 
                    Orbital Energies (a.u.)
 --------------------------------------------------------------
 
 Alpha MOs
 -- Occupied --
-19.2408 -10.3367 -10.2763 -10.2757 -10.2751 -10.2740 -10.2708 -10.2693
-10.2685 -10.2677 -10.2650 -10.2645 -10.2642 -10.2547 -10.2518  -1.1856
 -0.9928  -0.9861  -0.9029  -0.8954  -0.8741  -0.8733  -0.8071  -0.8045
 -0.7406  -0.7250  -0.7083  -0.6993  -0.6582  -0.6239  -0.5957  -0.5746
 -0.5687  -0.5609  -0.5443  -0.5355  -0.5297  -0.5240  -0.5224  -0.5144
 -0.5082  -0.5063  -0.4796  -0.4705  -0.4686  -0.4484  -0.4393  -0.4364
 -0.4346  -0.4334  -0.3472  -0.3437  -0.3342  -0.3124
 -- Virtual --
  0.0574   0.0592   0.0652   0.0695   0.0719   0.0750   0.0784   0.0815
  0.0947   0.0978   0.1036   0.1091   0.1142   0.1189   0.1221   0.1281
  0.1355   0.1416   0.1477   0.1521   0.1565   0.1599   0.1689   0.1764
  0.1816   0.1891   0.1962   0.1976   0.1999   0.2052   0.2091   0.2162
  0.2178   0.2264   0.2289   0.2330   0.2377   0.2390   0.2489   0.2526
  0.2533   0.2592   0.2604   0.2641   0.2676   0.2719   0.2795   0.2830
  0.2839   0.2844   0.2875   0.2909   0.2942   0.2983   0.2997   0.3045
  0.3078   0.3100   0.3157   0.3173   0.3190   0.3255   0.3287   0.3311
  0.3349   0.3374   0.3410   0.3459   0.3478   0.3501   0.3535   0.3555
  0.3602   0.3613   0.3659   0.3716   0.3727   0.3744   0.3793   0.3794
  0.3819   0.3869   0.3895   0.3907   0.3921   0.3952   0.3986   0.4020
  0.4061   0.4099   0.4121   0.4133   0.4183   0.4218   0.4233   0.4298
  0.4330   0.4354   0.4387   0.4408   0.4457   0.4499   0.4523   0.4573
  0.4617   0.4648   0.4660   0.4724   0.4744   0.4791   0.4805   0.4815
  0.4845   0.4864   0.4929   0.4950   0.4976   0.5012   0.5037   0.5042
  0.5089   0.5165   0.5183   0.5208   0.5269   0.5302   0.5325   0.5366
  0.5401   0.5433   0.5463   0.5519   0.5545   0.5572   0.5651   0.5674
  0.5732   0.5770   0.5803   0.5821   0.5842   0.5900   0.5941   0.5963
  0.5975   0.6046   0.6073   0.6178   0.6197   0.6238   0.6289   0.6389
  0.6423   0.6450   0.6472   0.6516   0.6550   0.6636   0.6659   0.6713
  0.6750   0.6845   0.6902   0.6914   0.6951   0.6974   0.7041   0.7066
  0.7101   0.7138   0.7156   0.7222   0.7249   0.7291   0.7353   0.7384
  0.7421   0.7471   0.7479   0.7527   0.7570   0.7595   0.7665   0.7678
  0.7708   0.7729   0.7770   0.7811   0.7864   0.7900   0.7918   0.7932
  0.8008   0.8040   0.8063   0.8088   0.8134   0.8166   0.8210   0.8222
  0.8235   0.8292   0.8347   0.8375   0.8397   0.8448   0.8473   0.8534
  0.8566   0.8637   0.8665   0.8706   0.8732   0.8788   0.8808   0.8857
  0.8896   0.8918   0.8969   0.9017   0.9028   0.9114   0.9160   0.9201
  0.9235   0.9310   0.9365   0.9425   0.9515   0.9523   0.9652   0.9725
  0.9748   0.9792   0.9939   0.9992   1.0003   1.0132   1.0177   1.0289
  1.0308   1.0338   1.0411   1.0487   1.0535   1.0578   1.0672   1.0751
  1.0819   1.0869   1.0910   1.0990   1.1000   1.1061   1.1112   1.1236
  1.1311   1.1403   1.1499   1.1602   1.1633   1.1709   1.1770   1.1827
  1.1979   1.2043   1.2110   1.2426   1.2528   1.2771   1.2823   1.2945
  1.3172   1.3258   1.3352   1.3495   1.3543   1.3616   1.3755   1.3803
  1.3839   1.3881   1.4025   1.4111   1.4290   1.4325   1.4406   1.4614
  1.4666   1.4766   1.4834   1.4869   1.4958   1.4999   1.5144   1.5198
  1.5452   1.5516   1.5615   1.5706   1.5914   1.6191   1.6318   1.6364
  1.6456   1.6491   1.6561   1.6689   1.6830   1.6992   1.7048   1.7079
  1.7139   1.7251   1.7594   1.7710   1.8028   1.8065   1.8103   1.8216
  1.8316   1.8372   1.8449   1.8564   1.8620   1.8779   1.8869   1.8967
  1.9010   1.9166   1.9329   1.9370   1.9567   1.9630   1.9658   1.9728
  1.9758   1.9853   1.9914   2.0020   2.0115   2.0141   2.0218   2.0306
  2.0426   2.0495   2.0521   2.0650   2.0684   2.0764   2.0850   2.0931
  2.0970   2.1077   2.1163   2.1299   2.1423   2.1537   2.1667   2.1733
  2.1857   2.2022   2.2105   2.2166   2.2215   2.2279   2.2485   2.2566
  2.2634   2.2684   2.2824   2.2885   2.2953   2.3142   2.3189   2.3242
  2.3344   2.3463   2.3583   2.3706   2.3840   2.4178   2.4181   2.4263
  2.4322   2.4429   2.4583   2.4637   2.4765   2.5083   2.5191   2.5410
  2.5512   2.5628   2.5705   2.5740   2.5897   2.5964   2.6032   2.6255
  2.6299   2.6414   2.6494   2.6612   2.6685   2.6767   2.6972   2.7027
  2.7176   2.7258   2.7356   2.7482   2.7538   2.7669   2.7766   2.7808
  2.7937   2.8038   2.8074   2.8137   2.8223   2.8411   2.8466   2.8594
  2.8673   2.8809   2.8918   2.9089   2.9156   2.9275   2.9414   2.9468
  2.9521   2.9548   2.9593   2.9634   2.9773   2.9844   2.9883   2.9938
  3.0046   3.0186   3.0242   3.0320   3.0359   3.0476   3.0528   3.0720
  3.0759   3.0828   3.0905   3.1068   3.1147   3.1185   3.1281   3.1388
  3.1535   3.1623   3.1878   3.1940   3.1995   3.2076   3.2145   3.2301
  3.2426   3.2535   3.2677   3.2719   3.2789   3.2843   3.3004   3.3131
  3.3257   3.3318   3.3469   3.3542   3.3688   3.3721   3.3878   3.3949
  3.3990   3.4077   3.4161   3.4261   3.4357   3.4482   3.4574   3.4585
  3.4667   3.4785   3.4856   3.4870   3.4900   3.4985   3.5041   3.5092
  3.5164   3.5273   3.5302   3.5339   3.5411   3.5461   3.5541   3.5593
  3.5596   3.5653   3.5699   3.5799   3.5869   3.5898   3.6077   3.6098
  3.6140   3.6273   3.6314   3.6395   3.6521   3.6573   3.6649   3.6704
  3.6762   3.6814   3.6952   3.7023   3.7160   3.7282   3.7356   3.7459
  3.7754   3.7856   3.7876   3.8226   3.8370   3.8597   3.8677   3.9154
  3.9211   3.9385   3.9423   3.9620   3.9736   3.9809   3.9926   4.0039
  4.0177   4.0287   4.0561   4.0769   4.0879   4.1360   4.1577   4.1765
  4.2450   4.2497   4.2700   4.2903   4.2909   4.3026   4.3056   4.3114
  4.3174   4.3244   4.3358   4.3410   4.3430   4.3521   4.3551   4.3686
  4.3716   4.3765   4.3904   4.4114   4.4145   4.4282   4.4322   4.4507
  4.4764   4.4835   4.5156   4.5406   4.5614   4.6108   4.6173   4.6248
  4.6399   4.7185   4.7289   4.7689   4.7742   4.7995   4.8045   4.8385
  4.8580   4.8774   4.9326   4.9442   4.9730   5.0125   5.0385   5.0711
  5.0794   5.0918   5.1321   5.1634   5.2002   5.2895   5.2926   5.3059
  5.3849   5.3872   5.3979   5.4247   5.5116   5.5225   5.5521   5.6109
  5.6169   5.6923   5.7156   5.7634   5.8448   5.9223   6.1981   6.4442
  6.5927   6.6390   6.8716   7.0107   7.3061   7.4462  22.6610  22.7081
 22.7141  22.7998  22.9095  22.9471  22.9611  22.9818  23.0310  23.0536
 23.0998  23.1462  23.4408  23.4478  44.4309
 --------------------------------------------------------------
 
          Ground-State Mulliken Net Atomic Charges

     Atom                 Charge (a.u.)
  ----------------------------------------
      1 C                    -1.194080
      2 C                    -0.486742
      3 C                     0.679002
      4 C                    -0.534669
      5 C                     0.601864
      6 C                    -0.339323
      7 C                    -0.850489
      8 O                    -0.550145
      9 H                     0.358785
     10 H                     0.360232
     11 H                     0.311394
     12 H                     0.254797
     13 H                     0.388323
     14 H                     0.329560
     15 H                     0.404818
     16 H                     0.287081
     17 C                    -1.146519
     18 C                    -0.085400
     19 C                    -0.388664
     20 C                    -0.698500
     21 C                     0.455627
     22 C                    -0.715925
     23 C                    -0.405016
     24 H                     0.453956
     25 H                     0.457218
     26 H                     0.387265
     27 H                     0.396522
     28 H                     0.272969
     29 H                     0.306744
     30 H                     0.432364
     31 H                     0.256949
  ----------------------------------------
  Sum of atomic charges =     0.000000

 -----------------------------------------------------------------
                    Cartesian Multipole Moments
 -----------------------------------------------------------------
    Charge (ESU x 10^10)
                 0.0000
    Dipole Moment (Debye)
         X      -1.8593      Y       1.6257      Z      -0.0736
       Tot       2.4709
    Quadrupole Moments (Debye-Ang)
        XX     -91.7600     XY      -0.3580     YY     -79.1345
        XZ      -3.3589     YZ       3.4505     ZZ     -86.2285
    Octopole Moments (Debye-Ang^2)
       XXX     -57.7781    XXY     -15.5186    XYY       7.9353
       YYY       7.6103    XXZ      11.4237    XYZ      28.3252
       YYZ      27.0692    XZZ      18.1377    YZZ      23.2639
       ZZZ      18.7905
    Hexadecapole Moments (Debye-Ang^3)
      XXXX   -3994.7997   XXXY    -719.7853   XXYY    -825.7636
      XYYY    -655.1688   YYYY   -1192.4509   XXXZ     107.7065
      XXYZ      69.0485   XYYZ      93.4862   YYYZ     168.3996
      XXZZ    -842.0353   XYZZ    -184.5114   YYZZ    -345.0911
      XZZZ     205.6712   YZZZ     208.0716   ZZZZ    -992.9167
 -----------------------------------------------------------------
Archival summary:
1\1\nid00552\SP\ProcedureUnspecified\BasisUnspecified\11416\meili\MonSep2712:51:012021MonSep2712:51:012021\0\\#,ProcedureUnspecified,BasisUnspecified,\\0,1\C\C,1,1.39477\H,2,1.08173,1,119.846\C,1,1.40391,2,118.529,3,-179.487,0\H,4,1.08186,1,119.941,2,177.804,0\C,2,1.40646,1,121.113,3,-178.419,0\H,6,1.08072,2,119.32,1,179.797,0\C,6,1.40459,2,120.62,1,-1.90831,0\O,8,1.37823,6,118.686,2,-175.849,0\H,9,0.960602,8,112.214,6,-2.32371,0\C,8,1.4019,6,119.023,2,0.808048,0\H,11,1.08104,8,119.625,6,-178.881,0\C,1,1.517,2,119.664,3,-0.80347,0\H,13,1.09038,1,108.261,2,-14.4634,0\H,13,1.09132,1,108.791,2,-129.914,0\H,13,1.1,1,114.886,2,106.541,0\H,14,2.82759,13,96.4058,1,-52.999,0\C,17,1.08076,14,148.798,13,-58.9523,0\C,18,1.39405,17,120.116,14,61.6928,0\H,19,1.0816,18,120.246,17,0.166561,0\C,19,1.39187,18,119.427,17,-179.604,0\H,21,1.08182,19,119.605,18,179.126,0\C,18,1.39413,17,119.975,14,-117.898,0\H,23,1.08158,18,119.377,17,-0.118345,0\C,21,1.39668,19,120.735,18,-0.70968,0\H,25,1.08194,21,119.873,19,-179.67,0\C,25,1.38837,21,119.929,19,0.744209,0\C,27,1.49331,25,121.078,21,179.679,0\H,28,1.08452,27,108.637,25,-164.566,0\H,28,1.09153,27,108.736,25,-48.8503,0\H,28,1.1,27,113.621,25,72.1423,0\\\@

 Total job time:  96724.58s(wall), 66225.78s(cpu) 
 Mon Sep 27 12:51:01 2021

        *************************************************************
        *                                                           *
        *  Thank you very much for using Q-Chem.  Have a nice day.  *
        *                                                           *
        *************************************************************


