
Running Job 1 of 1 SSI-081GLU-101ASN-1_PCM_TZVPD.in
qchem SSI-081GLU-101ASN-1_PCM_TZVPD.in_30394.0 /tmp/qchem30394/ 0
/global/common/cori/software/qchem/5.2/exe/qcprog.exe_s SSI-081GLU-101ASN-1_PCM_TZVPD.in_30394.0 /tmp/qchem30394/
                  Welcome to Q-Chem
     A Quantum Leap Into The Future Of Chemistry


 Q-Chem 5.2, Q-Chem, Inc., Pleasanton, CA (2019)

 License issued to: National Energy Research Scientific Computing Center

 Yihan Shao,  Zhengting Gan,  E. Epifanovsky,  A. T. B. Gilbert,  M. Wormit,  
 J. Kussmann,  A. W. Lange,  A. Behn,  Jia Deng,  Xintian Feng,  D. Ghosh,  
 M. Goldey,  P. R. Horn,  L. D. Jacobson,  I. Kaliman,  T. Kus,  A. Landau,  
 Jie Liu,  E. I. Proynov,  R. M. Richard,  R. P. Steele,  E. J. Sundstrom,  
 H. L. Woodcock III,  P. M. Zimmerman,  D. Zuev,  B. Albrecht,  E. Alguire,  
 S. A. Baeppler,  D. Barton,  Z. Benda,  Y. A. Bernard,  E. J. Berquist,  
 K. B. Bravaya,  H. Burton,  D. Casanova,  Chun-Min Chang,  Yunqing Chen,  
 A. Chien,  K. D. Closser,  M. P. Coons,  S. Coriani,  S. Dasgupta,  
 A. L. Dempwolff,  M. Diedenhofen,  Hainam Do,  R. G. Edgar,  Po-Tung Fang,  
 S. Faraji,  S. Fatehi,  Qingguo Feng,  K. D. Fenk,  J. Fosso-Tande,  
 J. Gayvert,  Qinghui Ge,  A. Ghysels,  G. Gidofalvi,  J. Gomes,  
 J. Gonthier,  A. Gunina,  D. Hait,  M. W. D. Hanson-Heine,  
 P. H. P. Harbach,  A. W. Hauser,  M. F. Herbst,  J. E. Herr,  
 E. G. Hohenstein,  Z. C. Holden,  Kerwin Hui,  B. C. Huynh,  T.-C. Jagau,  
 Hyunjun Ji,  B. Kaduk,  K. Khistyaev,  Jaehoon Kim,  P. Klunzinger,  K. Koh,  
 D. Kosenkov,  L. Koulias,  T. Kowalczyk,  C. M. Krauter,  A. Kunitsa,  
 Ka Un Lao,  A. Laurent,  K. V. Lawler,  Joonho Lee,  D. Lefrancois,  
 S. Lehtola,  D. S. Levine,  Yi-Pei Li,  You-Sheng Lin,  Fenglai Liu,  
 E. Livshits,  A. Luenser,  P. Manohar,  E. Mansoor,  S. F. Manzer,  
 Shan-Ping Mao,  Yuezhi Mao,  N. Mardirossian,  A. V. Marenich,  
 T. Markovich,  L. A. Martinez-Martinez,  S. A. Maurer,  N. J. Mayhall,  
 S. C. McKenzie,  J.-M. Mewes,  P. Morgante,  A. F. Morrison,  
 J. W. Mullinax,  K. Nanda,  T. S. Nguyen-Beck,  R. Olivares-Amaya,  
 J. A. Parkhill,  Zheng Pei,  T. M. Perrine,  F. Plasser,  P. Pokhilko,  
 S. Prager,  A. Prociuk,  E. Ramos,  D. R. Rehn,  F. Rob,  M. Scheurer,  
 M. Schneider,  N. Sergueev,  S. M. Sharada,  S. Sharma,  D. W. Small,  
 T. Stauch,  T. Stein,  Yu-Chuan Su,  A. J. W. Thom,  A. Tkatchenko,  
 T. Tsuchimochi,  N. M. Tubman,  L. Vogt,  M. L. Vidal,  O. Vydrov,  
 M. A. Watson,  J. Wenzel,  M. de Wergifosse,  T. A. Wesolowski,  A. White,  
 J. Witte,  A. Yamada,  Jun Yang,  K. Yao,  S. Yeganeh,  S. R. Yost,  
 Zhi-Qiang You,  A. Zech,  Igor Ying Zhang,  Xing Zhang,  Yan Zhao,  
 Ying Zhu,  B. R. Brooks,  G. K. L. Chan,  C. J. Cramer,  M. S. Gordon,  
 W. J. Hehre,  A. Klamt,  M. W. Schmidt,  C. D. Sherrill,  D. G. Truhlar,  
 A. Aspuru-Guzik,  R. Baer,  A. T. Bell,  N. A. Besley,  Jeng-Da Chai,  
 A. E. DePrince, III,  R. A. DiStasio Jr.,  A. Dreuw,  B. D. Dunietz,  
 T. R. Furlani,  Chao-Ping Hsu,  Yousung Jung,  Jing Kong,  D. S. Lambrecht,  
 WanZhen Liang,  C. Ochsenfeld,  V. A. Rassolov,  L. V. Slipchenko,  
 J. E. Subotnik,  T. Van Voorhis,  J. M. Herbert,  A. I. Krylov,  
 P. M. W. Gill,  M. Head-Gordon

 Contributors to earlier versions of Q-Chem not listed above: 
 R. D. Adamson,  B. Austin,  J. Baker,  G. J. O. Beran,  K. Brandhorst,  
 S. T. Brown,  E. F. C. Byrd,  A. K. Chakraborty,  C.-L. Cheng,  
 Siu Hung Chien,  D. M. Chipman,  D. L. Crittenden,  H. Dachsel,  
 R. J. Doerksen,  A. D. Dutoi,  L. Fusti-Molnar,  W. A. Goddard III,  
 A. Golubeva-Zadorozhnaya,  S. R. Gwaltney,  G. Hawkins,  A. Heyden,  
 S. Hirata,  G. Kedziora,  F. J. Keil,  C. Kelley,  Jihan Kim,  R. A. King,  
 R. Z. Khaliullin,  P. P. Korambath,  W. Kurlancheek,  A. M. Lee,  M. S. Lee,  
 S. V. Levchenko,  Ching Yeh Lin,  D. Liotard,  R. C. Lochan,  I. Lotan,  
 P. E. Maslen,  N. Nair,  D. P. O'Neill,  D. Neuhauser,  E. Neuscamman,  
 C. M. Oana,  R. Olson,  B. Peters,  R. Peverati,  P. A. Pieniazek,  
 Y. M. Rhee,  J. Ritchie,  M. A. Rohrdanz,  E. Rosta,  N. J. Russ,  
 H. F. Schaefer III,  N. E. Schultz,  N. Shenvi,  A. C. Simmonett,  A. Sodt,  
 D. Stuck,  K. S. Thanthiriwatte,  V. Vanovschi,  Tao Wang,  A. Warshel,  
 C. F. Williams,  Q. Wu,  X. Xu,  W. Zhang

 Please cite Q-Chem as follows:
 Y. Shao et al., Mol. Phys. 113, 184-215 (2015)
 DOI: 10.1080/00268976.2014.952696

 Q-Chem 5.2.0 for Intel X86 EM64T Linux

 Parts of Q-Chem use Armadillo 8.300.2 (Tropical Shenanigans).
 http://arma.sourceforge.net/

 Q-Chem begins on Sun Sep 26 11:37:02 2021  

Host: cori01
0

     Scratch files written to /tmp/qchem30394//
 May1019 |scratch|qcdevops|jenkins|workspace|build_RNUM -1
Processing $rem in /global/common/cori/software/qchem/5.2/config/preferences:
	 MEM_TOTAL  96000 
NAlpha2: 64
NElect   64
Mult     1
Symmetry turned off for PCM/SM12/SMD calculation

 Q-Chem warning in module libgen/rem_setup.C, line 2803:

 Neither GIA nor STOLL is specified by user. Use STOLL as the default


Checking the input file for inconsistencies... 	...done.

--------------------------------------------------------------
User input:
--------------------------------------------------------------
$comment
SSI-081GLU-101ASN-1.pdb
$end

$molecule
-1 1
--
-1 1
C    2.185405628701    0.464478999707   -1.779078759986
C    1.112405628701    1.472478999707   -1.352078759986
O    0.647405628701    1.434478999707   -0.191078759986
O    0.688405628701    2.295478999707   -2.186078759986
H    2.783405628701    0.894478999707   -2.583078759986
H    1.701405628701   -0.433521000293   -2.166078759986
H    2.868885628701    0.170222999707   -0.968978759986
--
0 1
C    0.141405628701   -1.222521000293    1.987921240014
C   -1.207594371299   -1.375521000293    1.331921240014
O   -1.634594371299   -0.539521000293    0.542921240014
N   -1.893594371299   -2.455521000293    1.637921240014
H    0.492405628701   -0.207521000293    1.840921240014
H    0.830405628701   -1.877521000293    1.461921240014
H   -2.799594371299   -2.567521000293    1.203921240014
H   -1.520594371299   -3.145521000293    2.259921240014
H    0.124301928701   -1.478364600293    3.057621240014
$end

$rem
JOBTYPE			EDA
EDA2			1
method			wB97X-V
BASIS			def2-TZVPD
XC_GRID			000099000590
NL_GRID			1
UNRESTRICTED		FALSE
MAX_SCF_CYCLES		200
SYMMETRY		FALSE
SYM_IGNORE		TRUE
MEM_STATIC		2000
BASIS_LIN_DEP_THRESH 	6
THRESH 			14
SCF_CONVERGENCE 	8
SCF_PRINT_FRGM 		TRUE
SOLVENT_METHOD          PCM
$end

$PCM
THEORY                  CPCM
METHOD                  SWIG
SOLVER                  INVERSION
RADII                   UFF
HPOINTS                 302
HEAVYPOINTS             302
PRINTLEVEL              0
$END

$SOLVENT
DIELECTRIC              78.390000 ! water
$END
--------------------------------------------------------------
 ----------------------------------------------------------------
             Standard Nuclear Orientation (Angstroms)
    I     Atom           X                Y                Z
 ----------------------------------------------------------------
    1      C       2.1854056287     0.4644789997    -1.7790787600
    2      C       1.1124056287     1.4724789997    -1.3520787600
    3      O       0.6474056287     1.4344789997    -0.1910787600
    4      O       0.6884056287     2.2954789997    -2.1860787600
    5      H       2.7834056287     0.8944789997    -2.5830787600
    6      H       1.7014056287    -0.4335210003    -2.1660787600
    7      H       2.8688856287     0.1702229997    -0.9689787600
    8      C       0.1414056287    -1.2225210003     1.9879212400
    9      C      -1.2075943713    -1.3755210003     1.3319212400
   10      O      -1.6345943713    -0.5395210003     0.5429212400
   11      N      -1.8935943713    -2.4555210003     1.6379212400
   12      H       0.4924056287    -0.2075210003     1.8409212400
   13      H       0.8304056287    -1.8775210003     1.4619212400
   14      H      -2.7995943713    -2.5675210003     1.2039212400
   15      H      -1.5205943713    -3.1455210003     2.2599212400
   16      H       0.1243019287    -1.4783646003     3.0576212400
 ----------------------------------------------------------------
 Nuclear Repulsion Energy =         348.52357667 hartrees
 There are       32 alpha and       32 beta electrons
 Requested basis set is def2-TZVPD
 There are 147 shells and 377 basis functions

 Total QAlloc Memory Limit  96000 MB
 Mega-Array Size      1956 MB
 MEM_STATIC part      2000 MB
 Discretize the solute cavity surface with Lebedev spheres
	Using 302 Lebedev grid points for each H atom
	Using 302 Lebedev grid points for other atoms
	Atomic van der Waals radii will be scaled by 1.20
 Remove points where switching function is < 1.0e-08
 Keep 2099 surface tesserae and discard 2733 interior tesserae
 Molecular Surface Area = 224.288 Angst**2
 A cutoff of  1.0D-14 yielded   9657 shell pairs
 There are     63843 function pairs (     80718 Cartesian)
 Smallest overlap matrix eigenvalue = 7.20E-06

 Scale SEOQF with 1.000000e-01/1.000000e-01/1.000000e-01

 Standard Electronic Orientation quadrupole field applied
 Nucleus-field energy     =    -0.0000000008 hartrees

 -----------------------------------------------------------------------
  General SCF calculation program by
  Eric Jon Sundstrom, Paul Horn, Yuezhi Mao, Dmitri Zuev, Alec White,
  David Stuck, Shaama M.S., Shane Yost, Joonho Lee, David Small,
  Daniel Levine, Susi Lehtola, Hugh Burton, Evgeny Epifanovsky
 -----------------------------------------------------------------------
================================================================
                 ALMO-EDA with the EDA2 driver                  
================================================================
 The second-generation ALMO-EDA (for DFT):                      
 P. R. Horn, Y. Mao and M. Head-Gordon, PCCP, 18, 23067 (2016)  
 Decomposition of the frozen energy:                            
 P. R. Horn, Y. Mao and M. Head-Gordon, JCP, 144, 114107 (2016) 
 FERF model for polarization:                                   
 P. R. Horn and M. Head-Gordon, JCP, 143, 114111 (2015)         
Using eda2 option set 1
Option set summary: Frozen orbital wavefunction, initial wavefunction decomposition, and nDQ polarization.
--------------------------------
Printing EDA Options
--------------------------------
eda_child_super_basis      0
fragmo_guess_mode          0
child_mp                   1
child_mp_orders            232
cls_elec                   1
cls_disp                   0
scfmi_mode                 1
scfmi_occs                 0
scfmi_virts                0
frz_relax                  0
frz_relax_method           0
dc_pen_start               0
dc_pen_conv                0
dc_pen_increment           0
dc_pen_steps               0
dc_pen_thresh_factor       0
dc_pen_pre_newton_thresh   0
frz_ortho_decomp           1
frz_ortho_decomp_conv      6
frgm_method                2
scfmi_freeze_ss            0
separate_rehyb             0
plot_diff_den              0
eda_nocv                   0
eda_vct_relax              1
disp_free_x                0
disp_free_c                0
eda_bsse                   0
eda_pct_a                  0
eda_covp                   0
--------------------------------
Attempting to make child job directory: /tmp/qchem30394//Frg1/
Attempting to make child job directory: /tmp/qchem30394//Frg2/
Creating input file /tmp/qchem30394/Frg1.input
using default PutDataFrgm: nothing
calling putenv with: QCSCRATCH=/tmp/qchem30394/ 
calling putenv with: QCLOCALSCR=/tmp/qchem30394/ 
Spawning Job For Fragment 0
                  Welcome to Q-Chem
     A Quantum Leap Into The Future Of Chemistry


 Q-Chem 5.2, Q-Chem, Inc., Pleasanton, CA (2019)

 License issued to: National Energy Research Scientific Computing Center

 Yihan Shao,  Zhengting Gan,  E. Epifanovsky,  A. T. B. Gilbert,  M. Wormit,  
 J. Kussmann,  A. W. Lange,  A. Behn,  Jia Deng,  Xintian Feng,  D. Ghosh,  
 M. Goldey,  P. R. Horn,  L. D. Jacobson,  I. Kaliman,  T. Kus,  A. Landau,  
 Jie Liu,  E. I. Proynov,  R. M. Richard,  R. P. Steele,  E. J. Sundstrom,  
 H. L. Woodcock III,  P. M. Zimmerman,  D. Zuev,  B. Albrecht,  E. Alguire,  
 S. A. Baeppler,  D. Barton,  Z. Benda,  Y. A. Bernard,  E. J. Berquist,  
 K. B. Bravaya,  H. Burton,  D. Casanova,  Chun-Min Chang,  Yunqing Chen,  
 A. Chien,  K. D. Closser,  M. P. Coons,  S. Coriani,  S. Dasgupta,  
 A. L. Dempwolff,  M. Diedenhofen,  Hainam Do,  R. G. Edgar,  Po-Tung Fang,  
 S. Faraji,  S. Fatehi,  Qingguo Feng,  K. D. Fenk,  J. Fosso-Tande,  
 J. Gayvert,  Qinghui Ge,  A. Ghysels,  G. Gidofalvi,  J. Gomes,  
 J. Gonthier,  A. Gunina,  D. Hait,  M. W. D. Hanson-Heine,  
 P. H. P. Harbach,  A. W. Hauser,  M. F. Herbst,  J. E. Herr,  
 E. G. Hohenstein,  Z. C. Holden,  Kerwin Hui,  B. C. Huynh,  T.-C. Jagau,  
 Hyunjun Ji,  B. Kaduk,  K. Khistyaev,  Jaehoon Kim,  P. Klunzinger,  K. Koh,  
 D. Kosenkov,  L. Koulias,  T. Kowalczyk,  C. M. Krauter,  A. Kunitsa,  
 Ka Un Lao,  A. Laurent,  K. V. Lawler,  Joonho Lee,  D. Lefrancois,  
 S. Lehtola,  D. S. Levine,  Yi-Pei Li,  You-Sheng Lin,  Fenglai Liu,  
 E. Livshits,  A. Luenser,  P. Manohar,  E. Mansoor,  S. F. Manzer,  
 Shan-Ping Mao,  Yuezhi Mao,  N. Mardirossian,  A. V. Marenich,  
 T. Markovich,  L. A. Martinez-Martinez,  S. A. Maurer,  N. J. Mayhall,  
 S. C. McKenzie,  J.-M. Mewes,  P. Morgante,  A. F. Morrison,  
 J. W. Mullinax,  K. Nanda,  T. S. Nguyen-Beck,  R. Olivares-Amaya,  
 J. A. Parkhill,  Zheng Pei,  T. M. Perrine,  F. Plasser,  P. Pokhilko,  
 S. Prager,  A. Prociuk,  E. Ramos,  D. R. Rehn,  F. Rob,  M. Scheurer,  
 M. Schneider,  N. Sergueev,  S. M. Sharada,  S. Sharma,  D. W. Small,  
 T. Stauch,  T. Stein,  Yu-Chuan Su,  A. J. W. Thom,  A. Tkatchenko,  
 T. Tsuchimochi,  N. M. Tubman,  L. Vogt,  M. L. Vidal,  O. Vydrov,  
 M. A. Watson,  J. Wenzel,  M. de Wergifosse,  T. A. Wesolowski,  A. White,  
 J. Witte,  A. Yamada,  Jun Yang,  K. Yao,  S. Yeganeh,  S. R. Yost,  
 Zhi-Qiang You,  A. Zech,  Igor Ying Zhang,  Xing Zhang,  Yan Zhao,  
 Ying Zhu,  B. R. Brooks,  G. K. L. Chan,  C. J. Cramer,  M. S. Gordon,  
 W. J. Hehre,  A. Klamt,  M. W. Schmidt,  C. D. Sherrill,  D. G. Truhlar,  
 A. Aspuru-Guzik,  R. Baer,  A. T. Bell,  N. A. Besley,  Jeng-Da Chai,  
 A. E. DePrince, III,  R. A. DiStasio Jr.,  A. Dreuw,  B. D. Dunietz,  
 T. R. Furlani,  Chao-Ping Hsu,  Yousung Jung,  Jing Kong,  D. S. Lambrecht,  
 WanZhen Liang,  C. Ochsenfeld,  V. A. Rassolov,  L. V. Slipchenko,  
 J. E. Subotnik,  T. Van Voorhis,  J. M. Herbert,  A. I. Krylov,  
 P. M. W. Gill,  M. Head-Gordon

 Contributors to earlier versions of Q-Chem not listed above: 
 R. D. Adamson,  B. Austin,  J. Baker,  G. J. O. Beran,  K. Brandhorst,  
 S. T. Brown,  E. F. C. Byrd,  A. K. Chakraborty,  C.-L. Cheng,  
 Siu Hung Chien,  D. M. Chipman,  D. L. Crittenden,  H. Dachsel,  
 R. J. Doerksen,  A. D. Dutoi,  L. Fusti-Molnar,  W. A. Goddard III,  
 A. Golubeva-Zadorozhnaya,  S. R. Gwaltney,  G. Hawkins,  A. Heyden,  
 S. Hirata,  G. Kedziora,  F. J. Keil,  C. Kelley,  Jihan Kim,  R. A. King,  
 R. Z. Khaliullin,  P. P. Korambath,  W. Kurlancheek,  A. M. Lee,  M. S. Lee,  
 S. V. Levchenko,  Ching Yeh Lin,  D. Liotard,  R. C. Lochan,  I. Lotan,  
 P. E. Maslen,  N. Nair,  D. P. O'Neill,  D. Neuhauser,  E. Neuscamman,  
 C. M. Oana,  R. Olson,  B. Peters,  R. Peverati,  P. A. Pieniazek,  
 Y. M. Rhee,  J. Ritchie,  M. A. Rohrdanz,  E. Rosta,  N. J. Russ,  
 H. F. Schaefer III,  N. E. Schultz,  N. Shenvi,  A. C. Simmonett,  A. Sodt,  
 D. Stuck,  K. S. Thanthiriwatte,  V. Vanovschi,  Tao Wang,  A. Warshel,  
 C. F. Williams,  Q. Wu,  X. Xu,  W. Zhang

 Please cite Q-Chem as follows:
 Y. Shao et al., Mol. Phys. 113, 184-215 (2015)
 DOI: 10.1080/00268976.2014.952696

 Q-Chem 5.2.0 for Intel X86 EM64T Linux

 Parts of Q-Chem use Armadillo 8.300.2 (Tropical Shenanigans).
 http://arma.sourceforge.net/

 Q-Chem begins on Sun Sep 26 11:37:06 2021  

Host: cori01
0

     Scratch files written to /tmp/qchem30394//Frg1//
 May1019 |scratch|qcdevops|jenkins|workspace|build_RNUM -1
Processing $rem in /global/common/cori/software/qchem/5.2/config/preferences:
	 MEM_TOTAL  96000 
NAlpha2: 32
NElect   32
Mult     1
Symmetry turned off for PCM/SM12/SMD calculation

Checking the input file for inconsistencies... 	...done.

--------------------------------------------------------------
User input:
--------------------------------------------------------------
$molecule
-1 1
 6	2.1854056287	0.4644789997	-1.7790787600
 6	1.1124056287	1.4724789997	-1.3520787600
 8	0.6474056287	1.4344789997	-0.1910787600
 8	0.6884056287	2.2954789997	-2.1860787600
 1	2.7834056287	0.8944789997	-2.5830787600
 1	1.7014056287	-0.4335210003	-2.1660787600
 1	2.8688856287	0.1702229997	-0.9689787600
$end
$rem
EDA2		1
METHOD		WB97X-V
BASIS		DEF2-TZVPD
XC_GRID		000099000590
NL_GRID		1
UNRESTRICTED		FALSE
MAX_SCF_CYCLES		200
SYMMETRY		FALSE
SYM_IGNORE		TRUE
BASIS_LIN_DEP_THRESH		6
THRESH		14
SCF_CONVERGENCE		8
SCF_PRINT_FRGM		TRUE
SOLVENT_METHOD		PCM
!required keywords
JOBTYPE		SP
SYM_IGNORE		TRUE
SUBSYSTEM		TRUE
GEN_SCFMAN		TRUE
CHILD_INSTRUCTION		2
SYM_IGNORE		TRUE
SCFMI		0
RI_K 0		
PARI_K 0		
MIN_PARI_K 0		
IARI_K 0		
OCC_RI_K 0		
PURECART		1111
MEM_STATIC		2000
MEM_TOTAL		96000
GUI		0
CHILD_MP		1
CHILD_MP_ORDERS		232
FRZ_RELAX		0
FRZ_RELAX_METHOD		0
EDA_CLS_ELEC		1
EDA_CLS_DISP		0
FRZ_ORTHO_DECOMP		1
EDA2		FALSE
FRGM_METHOD		FALSE
CIS_N_ROOTS  0
LOCAL_CIS    0
CIS_RLX_DNS  1
$end
$pcm
THEORY                  CPCM
METHOD                  SWIG
SOLVER                  INVERSION
RADII                   UFF
HPOINTS                 302
HEAVYPOINTS             302
PRINTLEVEL              0
$end
$solvent
DIELECTRIC              78.390000 ! water
$end
--------------------------------------------------------------
 ----------------------------------------------------------------
             Standard Nuclear Orientation (Angstroms)
    I     Atom           X                Y                Z
 ----------------------------------------------------------------
    1      C       2.1854056287     0.4644789997    -1.7790787600
    2      C       1.1124056287     1.4724789997    -1.3520787600
    3      O       0.6474056287     1.4344789997    -0.1910787600
    4      O       0.6884056287     2.2954789997    -2.1860787600
    5      H       2.7834056287     0.8944789997    -2.5830787600
    6      H       1.7014056287    -0.4335210003    -2.1660787600
    7      H       2.8688856287     0.1702229997    -0.9689787600
 ----------------------------------------------------------------
 Nuclear Repulsion Energy =         112.52776439 hartrees
 There are       16 alpha and       16 beta electrons
 Requested basis set is def2-TZVPD
 There are 69 shells and 181 basis functions

 Total QAlloc Memory Limit  96000 MB
 Mega-Array Size      1956 MB
 MEM_STATIC part      2000 MB
 Discretize the solute cavity surface with Lebedev spheres
	Using 302 Lebedev grid points for each H atom
	Using 302 Lebedev grid points for other atoms
	Atomic van der Waals radii will be scaled by 1.20
 Remove points where switching function is < 1.0e-08
 Keep 1029 surface tesserae and discard 1085 interior tesserae
 Molecular Surface Area = 119.979 Angst**2

                       Distance Matrix (Angstroms)
             C (  1)   C (  2)   O (  3)   O (  4)   H (  5)   H (  6)
   C (  2)  1.532880
   O (  3)  2.414143  1.251235
   O (  4)  2.399837  1.246058  2.173253
   H (  5)  1.090376  2.154457  3.252039  2.551359
   H (  6)  1.091068  2.154612  2.915641  2.911015  1.763008
   H (  7)  1.099997  2.219878  2.671787  3.279106  1.771206  1.777798

 
 A cutoff of  1.0D-14 yielded   2390 shell pairs
 There are     16694 function pairs (     21490 Cartesian)
 Smallest overlap matrix eigenvalue = 1.74E-05

 Scale SEOQF with 1.000000e-01/1.000000e-01/1.000000e-01

 Standard Electronic Orientation quadrupole field applied
 Nucleus-field energy     =    -0.0000000012 hartrees
 Guess from superposition of atomic densities
 Warning:  Energy on first SCF cycle will be non-variational
 SAD guess density has 30.625312 electrons

 -----------------------------------------------------------------------
  General SCF calculation program by
  Eric Jon Sundstrom, Paul Horn, Yuezhi Mao, Dmitri Zuev, Alec White,
  David Stuck, Shaama M.S., Shane Yost, Joonho Lee, David Small,
  Daniel Levine, Susi Lehtola, Hugh Burton, Evgeny Epifanovsky
 -----------------------------------------------------------------------
 Exchange:     0.1670 Hartree-Fock + 1.0000 wB97X-V + LR-HF
 Correlation:  1.0000 wB97X-V
 Using Euler-Maclaurin-Lebedev (99,590) quadrature formula
 Nonlocal Correlation:  VV10 with C = 0.0100 and b = 6.00 and scale = 1.00000
 Grid used for NLC:  SG-1 standard quadrature
Energy prior to optimization (guess energy) = -227.757940999816
Begin Timing: Total SCF Calculation
begin iterations for algorithm: DIIS         
the SCF tolerance is set to 1.00e-08
    1    -227.7579409998      1.66e-02     00000 
    2    -225.5633561517      2.56e-02     00000 
    3    -228.5753104659      4.14e-03     00000 
    4    -228.6345939362      1.39e-03     00000 
    5    -228.6408239517      2.59e-04     00000 
    6    -228.6410495357      2.08e-04     00000 
    7    -228.6411662389      4.98e-05     00000 
    8    -228.6411772880      1.44e-05     00000 
    9    -228.6411786541      3.02e-06     00000 
   10    -228.6411787606      4.60e-07     00000 
   11    -228.6411787637      2.09e-07     00000 
   12    -228.6411787641      6.61e-08     00000 
   13    -228.6411787641      1.61e-08     00000 
   14    -228.6411787641      2.91e-09     00000 Convergence criterion met
Timing for Total SCF: 325.00s (wall), 638.55s (cpu)

************** Final PCM Free Energy Summary **************
 G_electrostatic  =      -0.10235460 hartree =     -64.22848365 kcal/mol
 G_cavitation     =       0.00000000 hartree =       0.00000000 kcal/mol
 G_dispersion     =       0.00000000 hartree =       0.00000000 kcal/mol
 G_repulsion      =       0.00000000 hartree =       0.00000000 kcal/mol
 --------------------------------------------------
 Non-electrostatic Free Energy =       0.00000000 hartree =       0.00000000 kcal/mol
 Total                         =      -0.10235460 hartree =     -64.22848365 kcal/mol
 --------------------------------------------------
 SCF Energy (H0 + V/2)                       =    -228.64117876 
 Solute Internal Energy (H0)                 =    -228.53882416 
 Total Free Energy (H0 + V/2 + non-elec)     =    -228.64117876 hartree
                                             = -143474.50513510 kcal/mol
***********************************************************

E_pcm = -0.1023546044
Multipole orders to be included
        2
        3
computing dipole RHS
computing quadrupole RHS
total number of RHS in solve_reponses: 8
RHS batch sizes
        8
Beginning Block Conjugate Gradient Iterations. Batch Number: 0
computing hessian-vector products by finite difference
              1      7.05e-01     00000 Conjugate Gradient Iteration
computing hessian-vector products by finite difference
              2      2.53e-01     00000 Conjugate Gradient Iteration
computing hessian-vector products by finite difference
              3      6.82e-02     00000 Conjugate Gradient Iteration
computing hessian-vector products by finite difference
              4      1.84e-02     00000 Conjugate Gradient Iteration
computing hessian-vector products by finite difference
              5      3.20e-03     00000 Conjugate Gradient Iteration
computing hessian-vector products by finite difference
              6      7.55e-04     00000 Conjugate Gradient Iteration
computing hessian-vector products by finite difference
              7      1.23e-04     00000 Conjugate Gradient Iteration
computing hessian-vector products by finite difference
              8      1.51e-05     00000 Conjugate Gradient Iteration
computing hessian-vector products by finite difference
              9      2.37e-06     00000 Conjugate Gradient Iteration
computing hessian-vector products by finite difference
             10      2.78e-07     00000 Conjugate Gradient Iteration
computing hessian-vector products by finite difference
             11      5.44e-08     00000 Conjugate Gradient Iteration
computing hessian-vector products by finite difference
             12      1.81e-08     00000 Conjugate Gradient Iteration
computing hessian-vector products by finite difference
             13      2.24e-09     00000 CG Converged
batch 0 complete
Done Calculating Responses
TESTING ORTHOGONALIZATION OF MULTIPOLE BASIS
Multipole virts passed orthogonality test
Virts Per Order
        48
        80
 
 --------------------------------------------------------------
 
                    Orbital Energies (a.u.)
 --------------------------------------------------------------
 
 Alpha MOs
 -- Occupied --
-19.1206 -19.1196 -10.3249 -10.2419  -1.1339  -1.0290  -0.8287  -0.5929
 -0.5286  -0.5180  -0.5141  -0.4620  -0.4452  -0.3281  -0.3275  -0.3054
 -- Virtual --
  0.0633   0.0953   0.0956   0.1053   0.1301   0.1407   0.1424   0.1462
  0.1688   0.1892   0.1999   0.2200   0.2327   0.2356   0.2629   0.2694
  0.2982   0.3099   0.3342   0.3472   0.3561   0.3673   0.3708   0.3746
  0.3875   0.4073   0.4239   0.4299   0.4329   0.4576   0.4727   0.4778
  0.4927   0.4954   0.5048   0.5222   0.5612   0.5800   0.6006   0.6113
  0.6378   0.6432   0.6483   0.6594   0.6690   0.6767   0.6922   0.7109
  0.7223   0.7343   0.7903   0.7978   0.8108   0.8212   0.8495   0.8543
  0.8668   0.9868   1.0011   1.0042   1.0087   1.0396   1.0717   1.1033
  1.1505   1.2350   1.2533   1.2606   1.2938   1.3144   1.3554   1.3924
  1.4355   1.5517   1.6055   1.7429   1.8264   1.8672   1.8901   1.9221
  1.9330   1.9530   1.9595   1.9731   2.0205   2.1078   2.1329   2.1896
  2.2011   2.2256   2.3144   2.3419   2.4195   2.4572   2.4819   2.4999
  2.5795   2.5935   2.6362   2.6589   2.7887   2.8187   2.8508   2.9247
  2.9469   3.0410   3.0930   3.1291   3.2266   3.2397   3.2766   3.2890
  3.3505   3.3597   3.3830   3.4054   3.4201   3.5288   3.5955   3.6003
  3.6193   3.6878   3.7191   3.7435   3.7497   3.8368   3.9698   4.0417
  4.0827   4.2164   4.3200   4.5652   4.6169   4.6557   4.8028   4.8159
  4.9903   5.3346   5.3599   5.3689   5.3780   5.4921   5.7091   5.8037
  5.8284   6.0522   6.2271   6.3505   6.3732   6.6168   6.6335   6.7415
  6.7504   6.7644   6.9527   6.9906   7.0451   7.2577   7.3258   7.3996
  7.4185  22.5786  23.7359  44.2228  44.3741
 --------------------------------------------------------------
 
          Ground-State Mulliken Net Atomic Charges

     Atom                 Charge (a.u.)
  ----------------------------------------
      1 C                    -0.422301
      2 C                     0.300521
      3 O                    -0.679144
      4 O                    -0.670737
      5 H                     0.161816
      6 H                     0.132675
      7 H                     0.177170
  ----------------------------------------
  Sum of atomic charges =    -1.000000

 -----------------------------------------------------------------
                    Cartesian Multipole Moments
 -----------------------------------------------------------------
    Charge (ESU x 10^10)
                -4.8032
    Dipole Moment (Debye)
         X      -2.0086      Y     -10.0468      Z       5.1843
       Tot      11.4826
    Quadrupole Moments (Debye-Ang)
        XX     -26.2020     XY      -4.4333     YY     -47.9891
        XZ       2.2827     YZ      14.8257     ZZ     -40.0399
    Octopole Moments (Debye-Ang^2)
       XXX     -93.6547    XXY     -35.9026    XYY     -42.6228
       YYY    -155.8395    XXZ      37.1062    XYZ       7.2955
       YYZ      74.2692    XZZ     -40.1671    YZZ     -71.8871
       ZZZ     146.1606
    Hexadecapole Moments (Debye-Ang^3)
      XXXX    -340.2760   XXXY     -90.7063   XXYY    -129.2083
      XYYY    -120.9159   YYYY    -518.4571   XXXZ     149.3538
      XXYZ      51.6360   XYYZ      71.7450   YYYZ     247.1496
      XXZZ    -134.6638   XYZZ     -53.2151   YYZZ    -229.4060
      XZZZ     172.7851   YZZZ     242.3880   ZZZZ    -530.9814
 -----------------------------------------------------------------
Archival summary:
1\1\nid00524\SP\ProcedureUnspecified\BasisUnspecified\223(1-,1)\meili\SunSep2613:06:402021SunSep2613:06:402021\0\\#,ProcedureUnspecified,BasisUnspecified,\\-1,1\C\O,1,1.24606\O,1,1.25124,2,120.974\C,1,1.53288,2,119.082,3,177.883,0\H,4,1.09038,1,109.267,2,28.0954,0\H,4,1.09107,1,109.239,2,-89.6593,0\H,4,1.1,1,113.935,2,148.882,0\\\@

 Total job time:  5375.07s(wall), 10541.35s(cpu) 
 Sun Sep 26 13:06:41 2021

        *************************************************************
        *                                                           *
        *  Thank you very much for using Q-Chem.  Have a nice day.  *
        *                                                           *
        *************************************************************


Done Job For Fragment 0
calling putenv with: QCSCRATCH=/global/cscratch1/sd/meili 
calling putenv with: QCLOCALSCR=/tmp 
calling putenv with: QCTHREADS=32 
Creating input file /tmp/qchem30394/Frg2.input
using default PutDataFrgm: nothing
calling putenv with: QCSCRATCH=/tmp/qchem30394/ 
calling putenv with: QCLOCALSCR=/tmp/qchem30394/ 
Spawning Job For Fragment 1
                  Welcome to Q-Chem
     A Quantum Leap Into The Future Of Chemistry


 Q-Chem 5.2, Q-Chem, Inc., Pleasanton, CA (2019)

 License issued to: National Energy Research Scientific Computing Center

 Yihan Shao,  Zhengting Gan,  E. Epifanovsky,  A. T. B. Gilbert,  M. Wormit,  
 J. Kussmann,  A. W. Lange,  A. Behn,  Jia Deng,  Xintian Feng,  D. Ghosh,  
 M. Goldey,  P. R. Horn,  L. D. Jacobson,  I. Kaliman,  T. Kus,  A. Landau,  
 Jie Liu,  E. I. Proynov,  R. M. Richard,  R. P. Steele,  E. J. Sundstrom,  
 H. L. Woodcock III,  P. M. Zimmerman,  D. Zuev,  B. Albrecht,  E. Alguire,  
 S. A. Baeppler,  D. Barton,  Z. Benda,  Y. A. Bernard,  E. J. Berquist,  
 K. B. Bravaya,  H. Burton,  D. Casanova,  Chun-Min Chang,  Yunqing Chen,  
 A. Chien,  K. D. Closser,  M. P. Coons,  S. Coriani,  S. Dasgupta,  
 A. L. Dempwolff,  M. Diedenhofen,  Hainam Do,  R. G. Edgar,  Po-Tung Fang,  
 S. Faraji,  S. Fatehi,  Qingguo Feng,  K. D. Fenk,  J. Fosso-Tande,  
 J. Gayvert,  Qinghui Ge,  A. Ghysels,  G. Gidofalvi,  J. Gomes,  
 J. Gonthier,  A. Gunina,  D. Hait,  M. W. D. Hanson-Heine,  
 P. H. P. Harbach,  A. W. Hauser,  M. F. Herbst,  J. E. Herr,  
 E. G. Hohenstein,  Z. C. Holden,  Kerwin Hui,  B. C. Huynh,  T.-C. Jagau,  
 Hyunjun Ji,  B. Kaduk,  K. Khistyaev,  Jaehoon Kim,  P. Klunzinger,  K. Koh,  
 D. Kosenkov,  L. Koulias,  T. Kowalczyk,  C. M. Krauter,  A. Kunitsa,  
 Ka Un Lao,  A. Laurent,  K. V. Lawler,  Joonho Lee,  D. Lefrancois,  
 S. Lehtola,  D. S. Levine,  Yi-Pei Li,  You-Sheng Lin,  Fenglai Liu,  
 E. Livshits,  A. Luenser,  P. Manohar,  E. Mansoor,  S. F. Manzer,  
 Shan-Ping Mao,  Yuezhi Mao,  N. Mardirossian,  A. V. Marenich,  
 T. Markovich,  L. A. Martinez-Martinez,  S. A. Maurer,  N. J. Mayhall,  
 S. C. McKenzie,  J.-M. Mewes,  P. Morgante,  A. F. Morrison,  
 J. W. Mullinax,  K. Nanda,  T. S. Nguyen-Beck,  R. Olivares-Amaya,  
 J. A. Parkhill,  Zheng Pei,  T. M. Perrine,  F. Plasser,  P. Pokhilko,  
 S. Prager,  A. Prociuk,  E. Ramos,  D. R. Rehn,  F. Rob,  M. Scheurer,  
 M. Schneider,  N. Sergueev,  S. M. Sharada,  S. Sharma,  D. W. Small,  
 T. Stauch,  T. Stein,  Yu-Chuan Su,  A. J. W. Thom,  A. Tkatchenko,  
 T. Tsuchimochi,  N. M. Tubman,  L. Vogt,  M. L. Vidal,  O. Vydrov,  
 M. A. Watson,  J. Wenzel,  M. de Wergifosse,  T. A. Wesolowski,  A. White,  
 J. Witte,  A. Yamada,  Jun Yang,  K. Yao,  S. Yeganeh,  S. R. Yost,  
 Zhi-Qiang You,  A. Zech,  Igor Ying Zhang,  Xing Zhang,  Yan Zhao,  
 Ying Zhu,  B. R. Brooks,  G. K. L. Chan,  C. J. Cramer,  M. S. Gordon,  
 W. J. Hehre,  A. Klamt,  M. W. Schmidt,  C. D. Sherrill,  D. G. Truhlar,  
 A. Aspuru-Guzik,  R. Baer,  A. T. Bell,  N. A. Besley,  Jeng-Da Chai,  
 A. E. DePrince, III,  R. A. DiStasio Jr.,  A. Dreuw,  B. D. Dunietz,  
 T. R. Furlani,  Chao-Ping Hsu,  Yousung Jung,  Jing Kong,  D. S. Lambrecht,  
 WanZhen Liang,  C. Ochsenfeld,  V. A. Rassolov,  L. V. Slipchenko,  
 J. E. Subotnik,  T. Van Voorhis,  J. M. Herbert,  A. I. Krylov,  
 P. M. W. Gill,  M. Head-Gordon

 Contributors to earlier versions of Q-Chem not listed above: 
 R. D. Adamson,  B. Austin,  J. Baker,  G. J. O. Beran,  K. Brandhorst,  
 S. T. Brown,  E. F. C. Byrd,  A. K. Chakraborty,  C.-L. Cheng,  
 Siu Hung Chien,  D. M. Chipman,  D. L. Crittenden,  H. Dachsel,  
 R. J. Doerksen,  A. D. Dutoi,  L. Fusti-Molnar,  W. A. Goddard III,  
 A. Golubeva-Zadorozhnaya,  S. R. Gwaltney,  G. Hawkins,  A. Heyden,  
 S. Hirata,  G. Kedziora,  F. J. Keil,  C. Kelley,  Jihan Kim,  R. A. King,  
 R. Z. Khaliullin,  P. P. Korambath,  W. Kurlancheek,  A. M. Lee,  M. S. Lee,  
 S. V. Levchenko,  Ching Yeh Lin,  D. Liotard,  R. C. Lochan,  I. Lotan,  
 P. E. Maslen,  N. Nair,  D. P. O'Neill,  D. Neuhauser,  E. Neuscamman,  
 C. M. Oana,  R. Olson,  B. Peters,  R. Peverati,  P. A. Pieniazek,  
 Y. M. Rhee,  J. Ritchie,  M. A. Rohrdanz,  E. Rosta,  N. J. Russ,  
 H. F. Schaefer III,  N. E. Schultz,  N. Shenvi,  A. C. Simmonett,  A. Sodt,  
 D. Stuck,  K. S. Thanthiriwatte,  V. Vanovschi,  Tao Wang,  A. Warshel,  
 C. F. Williams,  Q. Wu,  X. Xu,  W. Zhang

 Please cite Q-Chem as follows:
 Y. Shao et al., Mol. Phys. 113, 184-215 (2015)
 DOI: 10.1080/00268976.2014.952696

 Q-Chem 5.2.0 for Intel X86 EM64T Linux

 Parts of Q-Chem use Armadillo 8.300.2 (Tropical Shenanigans).
 http://arma.sourceforge.net/

 Q-Chem begins on Sun Sep 26 13:06:42 2021  

Host: cori01
0

     Scratch files written to /tmp/qchem30394//Frg2//
 May1019 |scratch|qcdevops|jenkins|workspace|build_RNUM -1
Processing $rem in /global/common/cori/software/qchem/5.2/config/preferences:
	 MEM_TOTAL  96000 
NAlpha2: 32
NElect   32
Mult     1
Symmetry turned off for PCM/SM12/SMD calculation

Checking the input file for inconsistencies... 	...done.

--------------------------------------------------------------
User input:
--------------------------------------------------------------
$molecule
0 1
 6	0.1414056287	-1.2225210003	1.9879212400
 6	-1.2075943713	-1.3755210003	1.3319212400
 8	-1.6345943713	-0.5395210003	0.5429212400
 7	-1.8935943713	-2.4555210003	1.6379212400
 1	0.4924056287	-0.2075210003	1.8409212400
 1	0.8304056287	-1.8775210003	1.4619212400
 1	-2.7995943713	-2.5675210003	1.2039212400
 1	-1.5205943713	-3.1455210003	2.2599212400
 1	0.1243019287	-1.4783646003	3.0576212400
$end
$rem
EDA2		1
METHOD		WB97X-V
BASIS		DEF2-TZVPD
XC_GRID		000099000590
NL_GRID		1
UNRESTRICTED		FALSE
MAX_SCF_CYCLES		200
SYMMETRY		FALSE
SYM_IGNORE		TRUE
BASIS_LIN_DEP_THRESH		6
THRESH		14
SCF_CONVERGENCE		8
SCF_PRINT_FRGM		TRUE
SOLVENT_METHOD		PCM
!required keywords
JOBTYPE		SP
SYM_IGNORE		TRUE
SUBSYSTEM		TRUE
GEN_SCFMAN		TRUE
CHILD_INSTRUCTION		2
SYM_IGNORE		TRUE
SCFMI		0
RI_K 0		
PARI_K 0		
MIN_PARI_K 0		
IARI_K 0		
OCC_RI_K 0		
PURECART		1111
MEM_STATIC		2000
MEM_TOTAL		96000
GUI		0
CHILD_MP		1
CHILD_MP_ORDERS		232
FRZ_RELAX		0
FRZ_RELAX_METHOD		0
EDA_CLS_ELEC		1
EDA_CLS_DISP		0
FRZ_ORTHO_DECOMP		1
EDA2		FALSE
FRGM_METHOD		FALSE
CIS_N_ROOTS  0
LOCAL_CIS    0
CIS_RLX_DNS  1
$end
$pcm
THEORY                  CPCM
METHOD                  SWIG
SOLVER                  INVERSION
RADII                   UFF
HPOINTS                 302
HEAVYPOINTS             302
PRINTLEVEL              0
$end
$solvent
DIELECTRIC              78.390000 ! water
$end
--------------------------------------------------------------
 ----------------------------------------------------------------
             Standard Nuclear Orientation (Angstroms)
    I     Atom           X                Y                Z
 ----------------------------------------------------------------
    1      C       0.1414056287    -1.2225210003     1.9879212400
    2      C      -1.2075943713    -1.3755210003     1.3319212400
    3      O      -1.6345943713    -0.5395210003     0.5429212400
    4      N      -1.8935943713    -2.4555210003     1.6379212400
    5      H       0.4924056287    -0.2075210003     1.8409212400
    6      H       0.8304056287    -1.8775210003     1.4619212400
    7      H      -2.7995943713    -2.5675210003     1.2039212400
    8      H      -1.5205943713    -3.1455210003     2.2599212400
    9      H       0.1243019287    -1.4783646003     3.0576212400
 ----------------------------------------------------------------
 Nuclear Repulsion Energy =         122.92243959 hartrees
 There are       16 alpha and       16 beta electrons
 Requested basis set is def2-TZVPD
 There are 78 shells and 196 basis functions

 Total QAlloc Memory Limit  96000 MB
 Mega-Array Size      1956 MB
 MEM_STATIC part      2000 MB
 Discretize the solute cavity surface with Lebedev spheres
	Using 302 Lebedev grid points for each H atom
	Using 302 Lebedev grid points for other atoms
	Atomic van der Waals radii will be scaled by 1.20
 Remove points where switching function is < 1.0e-08
 Keep 1193 surface tesserae and discard 1525 interior tesserae
 Molecular Surface Area = 127.978 Angst**2

                       Distance Matrix (Angstroms)
             C (  1)   C (  2)   O (  3)   N (  4)   H (  5)   H (  6)
   C (  2)  1.507828
   O (  3)  2.389287  1.226273
   N (  4)  2.404998  1.315535  2.221973
   H (  5)  1.083990  2.124454  2.513793  3.284465
   H (  6)  1.086472  2.102938  2.951445  2.790204  1.745504
   H (  7)  3.327636  1.992915  2.430418  1.010810  4.100321  3.703993
   H (  8)  2.556200  2.022882  3.122871  1.001056  3.586025  2.787800
   H (  9)  1.100003  2.182330  3.209184  2.653731  1.797471  1.790019
             H (  7)   H (  8)
   H (  8)  1.756434
   H (  9)  3.629275  2.474150
 
 A cutoff of  1.0D-14 yielded   3054 shell pairs
 There are     19544 function pairs (     24702 Cartesian)
 Smallest overlap matrix eigenvalue = 1.00E-05

 Scale SEOQF with 1.000000e-01/1.000000e-01/1.000000e-01

 Standard Electronic Orientation quadrupole field applied
 Nucleus-field energy     =     0.0000000004 hartrees
 Guess from superposition of atomic densities
 Warning:  Energy on first SCF cycle will be non-variational
 SAD guess density has 31.604610 electrons

 -----------------------------------------------------------------------
  General SCF calculation program by
  Eric Jon Sundstrom, Paul Horn, Yuezhi Mao, Dmitri Zuev, Alec White,
  David Stuck, Shaama M.S., Shane Yost, Joonho Lee, David Small,
  Daniel Levine, Susi Lehtola, Hugh Burton, Evgeny Epifanovsky
 -----------------------------------------------------------------------
 Exchange:     0.1670 Hartree-Fock + 1.0000 wB97X-V + LR-HF
 Correlation:  1.0000 wB97X-V
 Using Euler-Maclaurin-Lebedev (99,590) quadrature formula
 Nonlocal Correlation:  VV10 with C = 0.0100 and b = 6.00 and scale = 1.00000
 Grid used for NLC:  SG-1 standard quadrature
Energy prior to optimization (guess energy) = -208.706967667024
Begin Timing: Total SCF Calculation
begin iterations for algorithm: DIIS         
the SCF tolerance is set to 1.00e-08
    1    -208.7069676670      1.25e-02     00000 
    2    -208.3306200806      1.54e-02     00000 
    3    -209.2231484366      2.48e-03     00000 
    4    -209.2428391713      8.16e-04     00000 
    5    -209.2454754334      1.21e-04     00000 
    6    -209.2455702646      4.82e-05     00000 
    7    -209.2455866911      1.10e-05     00000 
    8    -209.2455878075      2.06e-06     00000 
    9    -209.2455878932      7.67e-07     00000 
   10    -209.2455878986      3.17e-07     00000 
   11    -209.2455878995      6.90e-08     00000 
   12    -209.2455878996      1.65e-08     00000 
   13    -209.2455878996      4.32e-09     00000 Convergence criterion met
Timing for Total SCF: 393.00s (wall), 776.74s (cpu)

************** Final PCM Free Energy Summary **************
 G_electrostatic  =      -0.01196860 hartree =      -7.51040981 kcal/mol
 G_cavitation     =       0.00000000 hartree =       0.00000000 kcal/mol
 G_dispersion     =       0.00000000 hartree =       0.00000000 kcal/mol
 G_repulsion      =       0.00000000 hartree =       0.00000000 kcal/mol
 --------------------------------------------------
 Non-electrostatic Free Energy =       0.00000000 hartree =       0.00000000 kcal/mol
 Total                         =      -0.01196860 hartree =      -7.51040981 kcal/mol
 --------------------------------------------------
 SCF Energy (H0 + V/2)                       =    -209.24558790 
 Solute Internal Energy (H0)                 =    -209.23361930 
 Total Free Energy (H0 + V/2 + non-elec)     =    -209.24558790 hartree
                                             = -131303.58817196 kcal/mol
***********************************************************

E_pcm = -0.0119685999
Multipole orders to be included
        2
        3
computing dipole RHS
computing quadrupole RHS
total number of RHS in solve_reponses: 8
RHS batch sizes
        8
Beginning Block Conjugate Gradient Iterations. Batch Number: 0
computing hessian-vector products by finite difference
              1      5.89e-01     00000 Conjugate Gradient Iteration
computing hessian-vector products by finite difference
              2      1.97e-01     00000 Conjugate Gradient Iteration
computing hessian-vector products by finite difference
              3      5.15e-02     00000 Conjugate Gradient Iteration
computing hessian-vector products by finite difference
              4      1.30e-02     00000 Conjugate Gradient Iteration
computing hessian-vector products by finite difference
              5      1.98e-03     00000 Conjugate Gradient Iteration
computing hessian-vector products by finite difference
              6      4.37e-04     00000 Conjugate Gradient Iteration
computing hessian-vector products by finite difference
              7      6.57e-05     00000 Conjugate Gradient Iteration
computing hessian-vector products by finite difference
              8      8.14e-06     00000 Conjugate Gradient Iteration
computing hessian-vector products by finite difference
              9      1.17e-06     00000 Conjugate Gradient Iteration
computing hessian-vector products by finite difference
             10      1.28e-07     00000 Conjugate Gradient Iteration
computing hessian-vector products by finite difference
             11      1.75e-08     00000 Conjugate Gradient Iteration
computing hessian-vector products by finite difference
             12      4.90e-09     00000 CG Converged
batch 0 complete
Done Calculating Responses
TESTING ORTHOGONALIZATION OF MULTIPOLE BASIS
Multipole virts passed orthogonality test
Virts Per Order
        48
        80
 
 --------------------------------------------------------------
 
                    Orbital Energies (a.u.)
 --------------------------------------------------------------
 
 Alpha MOs
 -- Occupied --
-19.1768 -14.4322 -10.3739 -10.2701  -1.1739  -1.0487  -0.8727  -0.7153
 -0.6647  -0.5894  -0.5711  -0.5171  -0.5090  -0.4827  -0.3829  -0.3675
 -- Virtual --
  0.0591   0.0910   0.0952   0.0976   0.1270   0.1282   0.1354   0.1414
  0.1683   0.1835   0.1968   0.2079   0.2259   0.2421   0.2443   0.2541
  0.2553   0.2728   0.3034   0.3074   0.3253   0.3323   0.3413   0.3480
  0.3551   0.3682   0.3732   0.3802   0.3918   0.3999   0.4163   0.4217
  0.4239   0.4508   0.4546   0.4749   0.4801   0.4847   0.4893   0.5006
  0.5265   0.5287   0.5411   0.5664   0.5836   0.5896   0.6294   0.6380
  0.6503   0.6532   0.6733   0.6902   0.7016   0.7145   0.7290   0.7633
  0.7779   0.7827   0.7966   0.8072   0.8108   0.8377   0.8533   0.8709
  0.9172   0.9523   0.9760   0.9806   1.0057   1.0387   1.0558   1.1058
  1.1072   1.1810   1.2250   1.2544   1.2811   1.3072   1.3403   1.3873
  1.4775   1.4925   1.5096   1.6164   1.6886   1.7157   1.7564   1.8067
  1.8344   1.8706   1.8881   1.9203   1.9259   1.9507   2.0001   2.0156
  2.0615   2.0825   2.1392   2.1903   2.2299   2.2662   2.3139   2.3399
  2.3607   2.3961   2.4509   2.4820   2.5425   2.5722   2.6088   2.6343
  2.6730   2.7141   2.7480   2.8210   2.8507   2.9256   2.9485   2.9836
  3.0455   3.1259   3.1434   3.1584   3.2052   3.2382   3.2756   3.2851
  3.3045   3.3253   3.3625   3.4073   3.4674   3.5183   3.5540   3.5840
  3.6167   3.6503   3.7347   3.7782   3.8746   3.9341   4.0221   4.0620
  4.1018   4.1962   4.3199   4.3850   4.5531   4.6034   4.6210   4.6467
  4.8117   4.8890   4.8933   4.9319   5.1528   5.1833   5.2727   5.3583
  5.3810   5.4030   5.4414   5.4894   5.5378   5.7827   5.9256   6.1628
  6.2703   6.5393   6.6443   6.7494   6.8462   6.9833   7.2439   7.3291
 22.6073  23.6260  32.4203  44.3177
 --------------------------------------------------------------
 
          Ground-State Mulliken Net Atomic Charges

     Atom                 Charge (a.u.)
  ----------------------------------------
      1 C                    -0.632235
      2 C                     0.421694
      3 O                    -0.584638
      4 N                    -0.260237
      5 H                     0.190187
      6 H                     0.210478
      7 H                     0.214265
      8 H                     0.187005
      9 H                     0.253480
  ----------------------------------------
  Sum of atomic charges =     0.000000

 -----------------------------------------------------------------
                    Cartesian Multipole Moments
 -----------------------------------------------------------------
    Charge (ESU x 10^10)
                 0.0000
    Dipole Moment (Debye)
         X       0.9160      Y      -4.0696      Z       3.0385
       Tot       5.1607
    Quadrupole Moments (Debye-Ang)
        XX     -23.9712     XY       6.6503     YY     -12.2449
        XZ      -2.5566     YZ      -8.9344     ZZ     -17.6081
    Octopole Moments (Debye-Ang^2)
       XXX      70.4090    XXY      16.9012    XYY       3.9754
       YYY      69.0409    XXZ     -30.3097    XYZ      12.2129
       YYZ      -8.9910    XZZ      21.3977    YZZ      16.1338
       ZZZ     -89.6282
    Hexadecapole Moments (Debye-Ang^3)
      XXXX    -277.2686   XXXY     -73.7264   XXYY     -62.7972
      XYYY     -59.4505   YYYY    -299.6328   XXXZ      75.1537
      XXYZ      32.2810   XYYZ      -9.7136   YYYZ      85.3367
      XXZZ    -113.0576   XYZZ     -21.8868   YYZZ     -73.8201
      XZZZ      82.3912   YZZZ     123.1810   ZZZZ    -340.5304
 -----------------------------------------------------------------
Archival summary:
1\1\nid00524\SP\ProcedureUnspecified\BasisUnspecified\1125\meili\SunSep2615:04:412021SunSep2615:04:412021\0\\#,ProcedureUnspecified,BasisUnspecified,\\0,1\C\O,1,1.22627\N,1,1.31553,2,121.855\H,3,1.00106,1,121.07,2,177.928,0\H,3,1.01081,1,117.289,2,-0.742744,0\C,1,1.50783,2,121.485,3,179.256,0\H,6,1.08399,1,109.009,2,13.8105,0\H,6,1.08647,1,107.191,2,-101.754,0\H,6,1.1,1,112.679,2,137.215,0\\\@

 Total job time:  7079.89s(wall), 13326.08s(cpu) 
 Sun Sep 26 15:04:42 2021

        *************************************************************
        *                                                           *
        *  Thank you very much for using Q-Chem.  Have a nice day.  *
        *                                                           *
        *************************************************************


Done Job For Fragment 1
calling putenv with: QCSCRATCH=/global/cscratch1/sd/meili 
calling putenv with: QCLOCALSCR=/tmp 
calling putenv with: QCTHREADS=32 
Doing General SCFMI
 Exchange:     0.1670 Hartree-Fock + 1.0000 wB97X-V + LR-HF
 Correlation:  1.0000 wB97X-V
 Using Euler-Maclaurin-Lebedev (99,590) quadrature formula
 Nonlocal Correlation:  VV10 with C = 0.0100 and b = 6.00 and scale = 1.00000
 Grid used for NLC:  SG-1 standard quadrature
performing fock build before subrot guess so that all methods have access
Printing subrot_rss_gen Method Specification:
Occupied Subspace Method is 0
Virtual Subspace Method is 0
Energy of the unrelaxed supersystem initial determinant -437.751605874555
performing fock build before subrot guess so that all methods have access
Printing subrot_rss_gen Method Specification:
Occupied Subspace Method is 0
Virtual Subspace Method is 0
Energy of the unrelaxed supersystem initial determinant w/ solvent -437.879052630558
write pseudocanon occs and virts to disk
write pseudocanon orbital energies to disk
Tolerance of ortho_decomp_scf: 1.00e-06
GDM subspace size: 20
Beginning the Orthogonal Decomposition of the Initial Supersystem Wavefunction
    1    -437.7468767117      6.38e-02     ortho_decomp Preconditoned Steepest Descent
    2    -437.7518927913      1.49e-03     ortho_decomp BFGS Step
    3    -437.7519092187      1.19e-04     ortho_decomp BFGS Step
    4    -437.7519092474      4.77e-06     ortho_decomp BFGS Step
    5    -437.7519092475      1.57e-07     ortho_decomp 00000 Convergence criterion met
 Hartree-Fock
 Hartree-Fock
 Hartree-Fock
Doing General SCFMI
 Exchange:     0.1670 Hartree-Fock + 1.0000 wB97X-V + LR-HF
 Correlation:  1.0000 wB97X-V
 Using Euler-Maclaurin-Lebedev (99,590) quadrature formula
 Nonlocal Correlation:  VV10 with C = 0.0100 and b = 6.00 and scale = 1.00000
 Grid used for NLC:  SG-1 standard quadrature
performing fock build at end of subrot_r(subrot) constructor so that all methods have access
<S^2> of initial wavefunction before polarization iterations 0.0000000000
Beginning iterations for the determination of the polarized wavefunction
Energy prior to optimization (guess energy) = -437.879052630558
Begin Timing: Total SCF Calculation
begin iterations for algorithm: DIIS         
the SCF tolerance is set to 1.00e-08
    1    -437.8790526306      1.81e-04     00000 
    2    -437.8801137088      1.40e-04     00000 
    3    -437.8803987284      5.62e-05     00000 
    4    -437.8804684821      1.57e-05     00000 
    5    -437.8804814545      8.34e-06     00000 
    6    -437.8804842344      3.82e-06     00000 
    7    -437.8804848576      1.25e-06     00000 
    8    -437.8804849289      4.99e-07     00000 
    9    -437.8804849401      2.37e-07     00000 
   10    -437.8804849418      6.36e-08     00000 
   11    -437.8804849421      2.97e-08     00000 
   12    -437.8804849422      8.91e-09     00000 Convergence criterion met
write pseudocanon occs and virts to disk
write pseudocanon orbital energies to disk
Timing for Total SCF: 1822.00s (wall), 3615.68s (cpu)
<S^2> of polarized wavefunction after polarization iterations 0.0000000000
relaxing scfmi constraint to allow all rotations in the entire AO span
Doing General SCFMI
 Exchange:     0.1670 Hartree-Fock + 1.0000 wB97X-V + LR-HF
 Correlation:  1.0000 wB97X-V
 Using Euler-Maclaurin-Lebedev (99,590) quadrature formula
 Nonlocal Correlation:  VV10 with C = 0.0100 and b = 6.00 and scale = 1.00000
 Grid used for NLC:  SG-1 standard quadrature
performing fock build at end of subrot_r(subrot) constructor so that all methods have access
<S^2> of polarized wavefunction before ct-allowed iterations 0.0000000000
Beginning iterations for the determination of the CT-Allowed wavefunction
Energy prior to optimization (guess energy) = -437.880484942152
Begin Timing: Total SCF Calculation
begin iterations for algorithm: DIIS         
the SCF tolerance is set to 1.00e-08
    1    -437.8804849422      8.13e-05     00000 
    2    -437.8809803738      9.43e-06     00000 
    3    -437.8809974652      3.11e-06     00000 
    4    -437.8809980076      2.97e-06     00000 
    5    -437.8809984663      3.52e-07     00000 
    6    -437.8809984775      1.98e-07     00000 
    7    -437.8809984810      5.93e-08     00000 
    8    -437.8809984814      1.93e-08     00000 
    9    -437.8809984815      7.09e-09     00000 Convergence criterion met
write pseudocanon occs and virts to disk
write pseudocanon orbital energies to disk
Timing for Total SCF: 1349.00s (wall), 2677.73s (cpu)
<S^2> of ct_allowed wavefunction after ct-allowed iterations 0.0000000000

================================
        Results of EDA2         
================================
Basic EDA Quantities
--------------------
Fragment Energies (Ha):
1 -228.6411787641
2 -209.2455878996
--------------------
  E_prp (kJ/mol) = -0.0000
  E_sol (kJ/mol) = -34.4563
  E_frz (kJ/mol) = 54.7097
  E_pol (kJ/mol) = -3.7606
  E_vct (kJ/mol) = -1.3483
  E_int (kJ/mol) = 15.1445
--------------------


Initial Wavefunction Decomposition
--------------------
  --------------------
  Orthogonal Fragment Subspace Decomposition:
  --------------------
     E_elec   (ELEC)   (kJ/mol) = 23.4192
     E_pauli  (PAULI)  (kJ/mol) = 42.9254
     E_disp   (DISP)   (kJ/mol) = -11.6349
     --------------------
     Terms summing to E_pauli:
     --------------------
        E_kep_pauli       (kJ/mol) = 53.9132
        E_disp_free_pauli (kJ/mol) = -10.9878
  --------------------
  Classical Frozen Decomposition:
  --------------------
     E_cls_elec  (CLS ELEC)  (kJ/mol) = 50.1195
     E_cls_pauli (CLS PAULI) (kJ/mol) = 4.5902
    [E_mod_pauli (MOD PAULI) (kJ/mol) = 16.2251 (CLS PAULI - DISP from orthogonal decomposition) ]
  --------------------
--------------------

Simplified EDA Summary (kJ/mol)
--------------------
 PREPARATION     -0.0000
 SOLVATION       -34.4563
 FROZEN          66.3447      (does not include dispersion)
[PAULI           42.9254]     (if this is negligible, then frozen describes electrostatics)
 DISPERSION      -11.6349
 POLARIZATION    -3.7606
 CHARGE TRANSFER -1.3483
 TOTAL           15.1445     (PRP + SOL + FRZ + DISP + POL + CT)
--------------------
 
 --------------------------------------------------------------
 
                    Orbital Energies (a.u.)
 --------------------------------------------------------------
 
 Alpha MOs
 -- Occupied --
-19.1646 -19.1162 -19.1114 -14.4252 -10.3638 -10.3189 -10.2580 -10.2397
 -1.1628  -1.1280  -1.0406  -1.0226  -0.8618  -0.8260  -0.7072  -0.6576
 -0.5886  -0.5787  -0.5617  -0.5254  -0.5154  -0.5106  -0.5051  -0.4934
 -0.4732  -0.4562  -0.4406  -0.3742  -0.3550  -0.3230  -0.3188  -0.2986
 -- Virtual --
  0.0578   0.0747   0.0858   0.0888   0.1029   0.1082   0.1116   0.1229
  0.1289   0.1309   0.1391   0.1451   0.1532   0.1632   0.1693   0.1801
  0.1888   0.1954   0.2002   0.2052   0.2093   0.2207   0.2329   0.2369
  0.2387   0.2483   0.2549   0.2625   0.2737   0.2800   0.2825   0.2915
  0.3071   0.3098   0.3111   0.3225   0.3237   0.3345   0.3360   0.3442
  0.3468   0.3595   0.3608   0.3618   0.3684   0.3800   0.3824   0.3910
  0.3949   0.3967   0.4045   0.4097   0.4154   0.4227   0.4299   0.4327
  0.4436   0.4477   0.4516   0.4614   0.4661   0.4750   0.4805   0.4867
  0.4926   0.4961   0.5037   0.5094   0.5110   0.5200   0.5241   0.5342
  0.5397   0.5528   0.5649   0.5678   0.5699   0.5810   0.5985   0.6027
  0.6138   0.6178   0.6322   0.6351   0.6393   0.6485   0.6571   0.6603
  0.6724   0.6767   0.6827   0.6913   0.7032   0.7058   0.7106   0.7172
  0.7239   0.7312   0.7450   0.7536   0.7540   0.7776   0.7910   0.7968
  0.8038   0.8126   0.8222   0.8267   0.8337   0.8403   0.8507   0.8577
  0.8629   0.8670   0.8849   0.8948   0.9151   0.9264   0.9364   0.9520
  0.9687   0.9943   0.9999   1.0119   1.0205   1.0275   1.0419   1.0505
  1.0643   1.0730   1.0777   1.0880   1.0956   1.1147   1.1434   1.1613
  1.1858   1.1936   1.2275   1.2588   1.2743   1.2871   1.3139   1.3225
  1.3244   1.3459   1.3671   1.3757   1.3829   1.3967   1.4206   1.4258
  1.4732   1.5056   1.5401   1.5457   1.6079   1.6370   1.6512   1.7114
  1.7614   1.7685   1.7905   1.8407   1.8644   1.8729   1.8991   1.9046
  1.9219   1.9415   1.9494   1.9604   1.9703   1.9756   1.9802   2.0006
  2.0111   2.0163   2.0357   2.0507   2.0689   2.0833   2.1341   2.1455
  2.1637   2.1920   2.2094   2.2138   2.2293   2.2609   2.2674   2.2918
  2.3344   2.3441   2.3731   2.3816   2.3968   2.4386   2.4541   2.4826
  2.4920   2.5219   2.5352   2.5639   2.5729   2.6017   2.6053   2.6361
  2.6445   2.6557   2.6768   2.6821   2.7027   2.7411   2.7813   2.8043
  2.8458   2.8662   2.8797   2.9040   2.9475   2.9539   2.9583   2.9704
  3.0212   3.0636   3.0967   3.1170   3.1445   3.1564   3.1625   3.1887
  3.2224   3.2524   3.2706   3.2753   3.2890   3.2982   3.3128   3.3322
  3.3455   3.3574   3.3753   3.3919   3.3985   3.4220   3.4370   3.4431
  3.4702   3.5057   3.5380   3.5615   3.5872   3.5968   3.6298   3.6417
  3.6582   3.6692   3.6736   3.7081   3.7343   3.7568   3.7627   3.7743
  3.8066   3.8567   3.9051   3.9566   3.9900   4.0452   4.0663   4.0871
  4.0947   4.1273   4.2255   4.2515   4.3365   4.3386   4.4092   4.5719
  4.5863   4.6207   4.6454   4.6494   4.6699   4.6791   4.8273   4.8331
  4.8720   4.9011   4.9082   4.9504   5.0119   5.1781   5.2014   5.2927
  5.3439   5.3683   5.3724   5.3816   5.3895   5.3953   5.4192   5.4523
  5.5018   5.5073   5.5668   5.7211   5.7963   5.8179   5.8366   5.9408
  6.0756   6.1756   6.2513   6.2870   6.3726   6.4021   6.5633   6.6397
  6.6645   6.6874   6.7687   6.7751   6.7803   6.8141   6.8722   6.9722
  7.0002   7.0237   7.0735   7.2726   7.2912   7.3487   7.3517   7.4210
  7.4526  22.5975  22.6448  23.6432  23.7650  32.4505  44.3021  44.3506
 44.4139
 --------------------------------------------------------------
 
          Ground-State Mulliken Net Atomic Charges

     Atom                 Charge (a.u.)
  ----------------------------------------
      1 C                    -0.419589
      2 C                     0.244959
      3 O                    -0.600756
      4 O                    -0.700531
      5 H                     0.180119
      6 H                     0.117073
      7 H                     0.180185
      8 C                    -0.458845
      9 C                     0.316396
     10 O                    -0.554294
     11 N                    -0.260976
     12 H                     0.101467
     13 H                     0.184883
     14 H                     0.220235
     15 H                     0.174295
     16 H                     0.275378
  ----------------------------------------
  Sum of atomic charges =    -1.000000

 -----------------------------------------------------------------
                    Cartesian Multipole Moments
 -----------------------------------------------------------------
    Charge (ESU x 10^10)
                -4.8032
    Dipole Moment (Debye)
         X      -1.0714      Y     -13.8436      Z       8.1903
       Tot      16.1206
    Quadrupole Moments (Debye-Ang)
        XX     -51.2491     XY       1.5095     YY     -61.8613
        XZ       0.2525     YZ       7.0713     ZZ     -59.0985
    Octopole Moments (Debye-Ang^2)
       XXX     -22.3686    XXY     -17.9062    XYY     -38.0813
       YYY     -85.6436    XXZ       6.5398    XYZ      19.1868
       YYZ      64.4306    XZZ     -18.9370    YZZ     -54.7259
       ZZZ      55.3602
    Hexadecapole Moments (Debye-Ang^3)
      XXXX    -627.3825   XXXY    -168.7889   XXYY    -197.0351
      XYYY    -185.7240   YYYY    -833.5698   XXXZ     228.4074
      XXYZ      86.6591   XYYZ      64.7406   YYYZ     340.9838
      XXZZ    -251.6740   XYZZ     -77.2192   YYZZ    -311.0444
      XZZZ     258.3458   YZZZ     374.5068   ZZZZ    -887.3890
 -----------------------------------------------------------------
Archival summary:
1\1\nid00524\SP\ProcedureUnspecified\BasisUnspecified\3148(1-,1)\meili\SunSep2616:35:202021SunSep2616:35:202021\0\\#,ProcedureUnspecified,BasisUnspecified,\\-1,1\O\C,1,1.25124\O,2,1.24606,1,120.974\C,2,1.53288,1,119.91,3,-177.865,0\H,4,1.09038,2,109.267,1,-153.999,0\H,4,1.09107,2,109.239,1,88.2465,0\H,4,1.1,2,113.935,1,-33.2119,0\H,1,2.6171,2,139.597,3,159.937,0\C,8,1.08399,1,135.394,2,-53.998,0\H,9,1.08647,8,107.068,1,68.671,0\H,9,1.1,8,110.774,1,-171.504,0\C,9,1.50783,8,109.009,1,-46.9729,0\O,12,1.22627,9,121.485,8,13.8105,0\N,12,1.31553,9,116.656,8,-166.897,0\H,14,1.00106,12,121.07,9,-1.36255,0\H,14,1.01081,12,117.289,9,179.967,0\\\@

 Total job time:  17899.61s(wall), 10808.20s(cpu) 
 Sun Sep 26 16:35:22 2021

        *************************************************************
        *                                                           *
        *  Thank you very much for using Q-Chem.  Have a nice day.  *
        *                                                           *
        *************************************************************


