
Running Job 1 of 1 SSI-054ASN-069PHE-1_PCM_TZVPD.in
qchem SSI-054ASN-069PHE-1_PCM_TZVPD.in_13448.0 /tmp/qchem13448/ 0
/global/common/cori/software/qchem/5.2/exe/qcprog.exe_s SSI-054ASN-069PHE-1_PCM_TZVPD.in_13448.0 /tmp/qchem13448/
                  Welcome to Q-Chem
     A Quantum Leap Into The Future Of Chemistry


 Q-Chem 5.2, Q-Chem, Inc., Pleasanton, CA (2019)

 License issued to: National Energy Research Scientific Computing Center

 Yihan Shao,  Zhengting Gan,  E. Epifanovsky,  A. T. B. Gilbert,  M. Wormit,  
 J. Kussmann,  A. W. Lange,  A. Behn,  Jia Deng,  Xintian Feng,  D. Ghosh,  
 M. Goldey,  P. R. Horn,  L. D. Jacobson,  I. Kaliman,  T. Kus,  A. Landau,  
 Jie Liu,  E. I. Proynov,  R. M. Richard,  R. P. Steele,  E. J. Sundstrom,  
 H. L. Woodcock III,  P. M. Zimmerman,  D. Zuev,  B. Albrecht,  E. Alguire,  
 S. A. Baeppler,  D. Barton,  Z. Benda,  Y. A. Bernard,  E. J. Berquist,  
 K. B. Bravaya,  H. Burton,  D. Casanova,  Chun-Min Chang,  Yunqing Chen,  
 A. Chien,  K. D. Closser,  M. P. Coons,  S. Coriani,  S. Dasgupta,  
 A. L. Dempwolff,  M. Diedenhofen,  Hainam Do,  R. G. Edgar,  Po-Tung Fang,  
 S. Faraji,  S. Fatehi,  Qingguo Feng,  K. D. Fenk,  J. Fosso-Tande,  
 J. Gayvert,  Qinghui Ge,  A. Ghysels,  G. Gidofalvi,  J. Gomes,  
 J. Gonthier,  A. Gunina,  D. Hait,  M. W. D. Hanson-Heine,  
 P. H. P. Harbach,  A. W. Hauser,  M. F. Herbst,  J. E. Herr,  
 E. G. Hohenstein,  Z. C. Holden,  Kerwin Hui,  B. C. Huynh,  T.-C. Jagau,  
 Hyunjun Ji,  B. Kaduk,  K. Khistyaev,  Jaehoon Kim,  P. Klunzinger,  K. Koh,  
 D. Kosenkov,  L. Koulias,  T. Kowalczyk,  C. M. Krauter,  A. Kunitsa,  
 Ka Un Lao,  A. Laurent,  K. V. Lawler,  Joonho Lee,  D. Lefrancois,  
 S. Lehtola,  D. S. Levine,  Yi-Pei Li,  You-Sheng Lin,  Fenglai Liu,  
 E. Livshits,  A. Luenser,  P. Manohar,  E. Mansoor,  S. F. Manzer,  
 Shan-Ping Mao,  Yuezhi Mao,  N. Mardirossian,  A. V. Marenich,  
 T. Markovich,  L. A. Martinez-Martinez,  S. A. Maurer,  N. J. Mayhall,  
 S. C. McKenzie,  J.-M. Mewes,  P. Morgante,  A. F. Morrison,  
 J. W. Mullinax,  K. Nanda,  T. S. Nguyen-Beck,  R. Olivares-Amaya,  
 J. A. Parkhill,  Zheng Pei,  T. M. Perrine,  F. Plasser,  P. Pokhilko,  
 S. Prager,  A. Prociuk,  E. Ramos,  D. R. Rehn,  F. Rob,  M. Scheurer,  
 M. Schneider,  N. Sergueev,  S. M. Sharada,  S. Sharma,  D. W. Small,  
 T. Stauch,  T. Stein,  Yu-Chuan Su,  A. J. W. Thom,  A. Tkatchenko,  
 T. Tsuchimochi,  N. M. Tubman,  L. Vogt,  M. L. Vidal,  O. Vydrov,  
 M. A. Watson,  J. Wenzel,  M. de Wergifosse,  T. A. Wesolowski,  A. White,  
 J. Witte,  A. Yamada,  Jun Yang,  K. Yao,  S. Yeganeh,  S. R. Yost,  
 Zhi-Qiang You,  A. Zech,  Igor Ying Zhang,  Xing Zhang,  Yan Zhao,  
 Ying Zhu,  B. R. Brooks,  G. K. L. Chan,  C. J. Cramer,  M. S. Gordon,  
 W. J. Hehre,  A. Klamt,  M. W. Schmidt,  C. D. Sherrill,  D. G. Truhlar,  
 A. Aspuru-Guzik,  R. Baer,  A. T. Bell,  N. A. Besley,  Jeng-Da Chai,  
 A. E. DePrince, III,  R. A. DiStasio Jr.,  A. Dreuw,  B. D. Dunietz,  
 T. R. Furlani,  Chao-Ping Hsu,  Yousung Jung,  Jing Kong,  D. S. Lambrecht,  
 WanZhen Liang,  C. Ochsenfeld,  V. A. Rassolov,  L. V. Slipchenko,  
 J. E. Subotnik,  T. Van Voorhis,  J. M. Herbert,  A. I. Krylov,  
 P. M. W. Gill,  M. Head-Gordon

 Contributors to earlier versions of Q-Chem not listed above: 
 R. D. Adamson,  B. Austin,  J. Baker,  G. J. O. Beran,  K. Brandhorst,  
 S. T. Brown,  E. F. C. Byrd,  A. K. Chakraborty,  C.-L. Cheng,  
 Siu Hung Chien,  D. M. Chipman,  D. L. Crittenden,  H. Dachsel,  
 R. J. Doerksen,  A. D. Dutoi,  L. Fusti-Molnar,  W. A. Goddard III,  
 A. Golubeva-Zadorozhnaya,  S. R. Gwaltney,  G. Hawkins,  A. Heyden,  
 S. Hirata,  G. Kedziora,  F. J. Keil,  C. Kelley,  Jihan Kim,  R. A. King,  
 R. Z. Khaliullin,  P. P. Korambath,  W. Kurlancheek,  A. M. Lee,  M. S. Lee,  
 S. V. Levchenko,  Ching Yeh Lin,  D. Liotard,  R. C. Lochan,  I. Lotan,  
 P. E. Maslen,  N. Nair,  D. P. O'Neill,  D. Neuhauser,  E. Neuscamman,  
 C. M. Oana,  R. Olson,  B. Peters,  R. Peverati,  P. A. Pieniazek,  
 Y. M. Rhee,  J. Ritchie,  M. A. Rohrdanz,  E. Rosta,  N. J. Russ,  
 H. F. Schaefer III,  N. E. Schultz,  N. Shenvi,  A. C. Simmonett,  A. Sodt,  
 D. Stuck,  K. S. Thanthiriwatte,  V. Vanovschi,  Tao Wang,  A. Warshel,  
 C. F. Williams,  Q. Wu,  X. Xu,  W. Zhang

 Please cite Q-Chem as follows:
 Y. Shao et al., Mol. Phys. 113, 184-215 (2015)
 DOI: 10.1080/00268976.2014.952696

 Q-Chem 5.2.0 for Intel X86 EM64T Linux

 Parts of Q-Chem use Armadillo 8.300.2 (Tropical Shenanigans).
 http://arma.sourceforge.net/

 Q-Chem begins on Sun Sep 26 08:32:03 2021  

Host: cori01
0

     Scratch files written to /tmp/qchem13448//
 May1019 |scratch|qcdevops|jenkins|workspace|build_RNUM -1
Processing $rem in /global/common/cori/software/qchem/5.2/config/preferences:
	 MEM_TOTAL  96000 
NAlpha2: 82
NElect   82
Mult     1
Symmetry turned off for PCM/SM12/SMD calculation

 Q-Chem warning in module libgen/rem_setup.C, line 2803:

 Neither GIA nor STOLL is specified by user. Use STOLL as the default


Checking the input file for inconsistencies... 	...done.

--------------------------------------------------------------
User input:
--------------------------------------------------------------
$comment
SSI-054ASN-069PHE-1.pdb
$end

$molecule
0 1
--
0 1
C   -2.647837962680   -1.266176033772   -0.546470232890
C   -2.613837962680    0.233823966228   -0.361470232890
O   -3.645837962680    0.865823966228   -0.141470232890
N   -1.432837962680    0.821823966228   -0.461470232890
H   -1.390837962680    1.824823966228   -0.387470232890
H   -0.600837962680    0.274823966228   -0.630470232890
H   -1.727837962680   -1.706176033772   -0.159470232890
H   -2.672837962680   -1.440176033772   -1.622470232890
H   -3.527147962680   -1.725196033772   -0.070950232890
--
0 1
C    1.414162037320    1.724823966228    1.843529767110
C    1.571162037320    0.599823966228    0.856529767110
C    1.973162037320    0.840823966228   -0.456470232890
C    1.282162037320   -0.703176033772    1.240529767110
C    2.096162037320   -0.208176033772   -1.356470232890
C    1.403162037320   -1.750176033772    0.340529767110
C    1.815162037320   -1.503176033772   -0.958470232890
H    1.824162037320    1.421823966228    2.808529767110
H    0.345162037320    1.896823966228    1.976529767110
H    2.217162037320    1.819823966228   -0.828470232890
H    0.972162037320   -0.909176033772    2.255529767110
H    2.420162037320   -0.015176033772   -2.371470232890
H    1.175162037320   -2.761176033772    0.652529767110
H    1.917162037320   -2.320176033772   -1.660470232890
H    1.883682037320    2.668893966228    1.530039767110
$end

$rem
JOBTYPE			EDA
EDA2			1
method			wB97X-V
BASIS			def2-TZVPD
XC_GRID			000099000590
NL_GRID			1
UNRESTRICTED		FALSE
MAX_SCF_CYCLES		200
SYMMETRY		FALSE
SYM_IGNORE		TRUE
MEM_STATIC		2000
BASIS_LIN_DEP_THRESH 	6
THRESH 			14
SCF_CONVERGENCE 	8
SCF_PRINT_FRGM 		TRUE
SOLVENT_METHOD          PCM
$end

$PCM
THEORY                  CPCM
METHOD                  SWIG
SOLVER                  INVERSION
RADII                   UFF
HPOINTS                 302
HEAVYPOINTS             302
PRINTLEVEL              0
$END

$SOLVENT
DIELECTRIC              78.390000 ! water
$END
--------------------------------------------------------------
 ----------------------------------------------------------------
             Standard Nuclear Orientation (Angstroms)
    I     Atom           X                Y                Z
 ----------------------------------------------------------------
    1      C      -2.6478379627    -1.2661760338    -0.5464702329
    2      C      -2.6138379627     0.2338239662    -0.3614702329
    3      O      -3.6458379627     0.8658239662    -0.1414702329
    4      N      -1.4328379627     0.8218239662    -0.4614702329
    5      H      -1.3908379627     1.8248239662    -0.3874702329
    6      H      -0.6008379627     0.2748239662    -0.6304702329
    7      H      -1.7278379627    -1.7061760338    -0.1594702329
    8      H      -2.6728379627    -1.4401760338    -1.6224702329
    9      H      -3.5271479627    -1.7251960338    -0.0709502329
   10      C       1.4141620373     1.7248239662     1.8435297671
   11      C       1.5711620373     0.5998239662     0.8565297671
   12      C       1.9731620373     0.8408239662    -0.4564702329
   13      C       1.2821620373    -0.7031760338     1.2405297671
   14      C       2.0961620373    -0.2081760338    -1.3564702329
   15      C       1.4031620373    -1.7501760338     0.3405297671
   16      C       1.8151620373    -1.5031760338    -0.9584702329
   17      H       1.8241620373     1.4218239662     2.8085297671
   18      H       0.3451620373     1.8968239662     1.9765297671
   19      H       2.2171620373     1.8198239662    -0.8284702329
   20      H       0.9721620373    -0.9091760338     2.2555297671
   21      H       2.4201620373    -0.0151760338    -2.3714702329
   22      H       1.1751620373    -2.7611760338     0.6525297671
   23      H       1.9171620373    -2.3201760338    -1.6604702329
   24      H       1.8836820373     2.6688939662     1.5300397671
 ----------------------------------------------------------------
 Nuclear Repulsion Energy =         578.88437975 hartrees
 There are       41 alpha and       41 beta electrons
 Requested basis set is def2-TZVPD
 There are 209 shells and 527 basis functions

 Total QAlloc Memory Limit  96000 MB
 Mega-Array Size      1956 MB
 MEM_STATIC part      2000 MB
 Discretize the solute cavity surface with Lebedev spheres
	Using 302 Lebedev grid points for each H atom
	Using 302 Lebedev grid points for other atoms
	Atomic van der Waals radii will be scaled by 1.20
 Remove points where switching function is < 1.0e-08
 Keep 2683 surface tesserae and discard 4565 interior tesserae
 Molecular Surface Area = 264.599 Angst**2
 A cutoff of  1.0D-14 yielded  19937 shell pairs
 There are    128039 function pairs (    161698 Cartesian)
 Smallest overlap matrix eigenvalue = 4.90E-07
 Linear dependence detected in AO basis
 Tighter screening thresholds may be required for diffuse basis sets
 Use S2THRESH > 14 and THRESH = 14 in case of SCF convergence issues
 Number of orthogonalized atomic orbitals = 526
 Maximum deviation from orthogonality = 1.926E-10

 Scale SEOQF with 1.000000e-01/1.000000e-01/1.000000e-01

 Standard Electronic Orientation quadrupole field applied
 Nucleus-field energy     =     0.0000000124 hartrees

 -----------------------------------------------------------------------
  General SCF calculation program by
  Eric Jon Sundstrom, Paul Horn, Yuezhi Mao, Dmitri Zuev, Alec White,
  David Stuck, Shaama M.S., Shane Yost, Joonho Lee, David Small,
  Daniel Levine, Susi Lehtola, Hugh Burton, Evgeny Epifanovsky
 -----------------------------------------------------------------------
================================================================
                 ALMO-EDA with the EDA2 driver                  
================================================================
 The second-generation ALMO-EDA (for DFT):                      
 P. R. Horn, Y. Mao and M. Head-Gordon, PCCP, 18, 23067 (2016)  
 Decomposition of the frozen energy:                            
 P. R. Horn, Y. Mao and M. Head-Gordon, JCP, 144, 114107 (2016) 
 FERF model for polarization:                                   
 P. R. Horn and M. Head-Gordon, JCP, 143, 114111 (2015)         
Using eda2 option set 1
Option set summary: Frozen orbital wavefunction, initial wavefunction decomposition, and nDQ polarization.
--------------------------------
Printing EDA Options
--------------------------------
eda_child_super_basis      0
fragmo_guess_mode          0
child_mp                   1
child_mp_orders            232
cls_elec                   1
cls_disp                   0
scfmi_mode                 1
scfmi_occs                 0
scfmi_virts                0
frz_relax                  0
frz_relax_method           0
dc_pen_start               0
dc_pen_conv                0
dc_pen_increment           0
dc_pen_steps               0
dc_pen_thresh_factor       0
dc_pen_pre_newton_thresh   0
frz_ortho_decomp           1
frz_ortho_decomp_conv      6
frgm_method                2
scfmi_freeze_ss            0
separate_rehyb             0
plot_diff_den              0
eda_nocv                   0
eda_vct_relax              1
disp_free_x                0
disp_free_c                0
eda_bsse                   0
eda_pct_a                  0
eda_covp                   0
--------------------------------
Attempting to make child job directory: /tmp/qchem13448//Frg1/
Attempting to make child job directory: /tmp/qchem13448//Frg2/
Creating input file /tmp/qchem13448/Frg1.input
using default PutDataFrgm: nothing
calling putenv with: QCSCRATCH=/tmp/qchem13448/ 
calling putenv with: QCLOCALSCR=/tmp/qchem13448/ 
Spawning Job For Fragment 0
                  Welcome to Q-Chem
     A Quantum Leap Into The Future Of Chemistry


 Q-Chem 5.2, Q-Chem, Inc., Pleasanton, CA (2019)

 License issued to: National Energy Research Scientific Computing Center

 Yihan Shao,  Zhengting Gan,  E. Epifanovsky,  A. T. B. Gilbert,  M. Wormit,  
 J. Kussmann,  A. W. Lange,  A. Behn,  Jia Deng,  Xintian Feng,  D. Ghosh,  
 M. Goldey,  P. R. Horn,  L. D. Jacobson,  I. Kaliman,  T. Kus,  A. Landau,  
 Jie Liu,  E. I. Proynov,  R. M. Richard,  R. P. Steele,  E. J. Sundstrom,  
 H. L. Woodcock III,  P. M. Zimmerman,  D. Zuev,  B. Albrecht,  E. Alguire,  
 S. A. Baeppler,  D. Barton,  Z. Benda,  Y. A. Bernard,  E. J. Berquist,  
 K. B. Bravaya,  H. Burton,  D. Casanova,  Chun-Min Chang,  Yunqing Chen,  
 A. Chien,  K. D. Closser,  M. P. Coons,  S. Coriani,  S. Dasgupta,  
 A. L. Dempwolff,  M. Diedenhofen,  Hainam Do,  R. G. Edgar,  Po-Tung Fang,  
 S. Faraji,  S. Fatehi,  Qingguo Feng,  K. D. Fenk,  J. Fosso-Tande,  
 J. Gayvert,  Qinghui Ge,  A. Ghysels,  G. Gidofalvi,  J. Gomes,  
 J. Gonthier,  A. Gunina,  D. Hait,  M. W. D. Hanson-Heine,  
 P. H. P. Harbach,  A. W. Hauser,  M. F. Herbst,  J. E. Herr,  
 E. G. Hohenstein,  Z. C. Holden,  Kerwin Hui,  B. C. Huynh,  T.-C. Jagau,  
 Hyunjun Ji,  B. Kaduk,  K. Khistyaev,  Jaehoon Kim,  P. Klunzinger,  K. Koh,  
 D. Kosenkov,  L. Koulias,  T. Kowalczyk,  C. M. Krauter,  A. Kunitsa,  
 Ka Un Lao,  A. Laurent,  K. V. Lawler,  Joonho Lee,  D. Lefrancois,  
 S. Lehtola,  D. S. Levine,  Yi-Pei Li,  You-Sheng Lin,  Fenglai Liu,  
 E. Livshits,  A. Luenser,  P. Manohar,  E. Mansoor,  S. F. Manzer,  
 Shan-Ping Mao,  Yuezhi Mao,  N. Mardirossian,  A. V. Marenich,  
 T. Markovich,  L. A. Martinez-Martinez,  S. A. Maurer,  N. J. Mayhall,  
 S. C. McKenzie,  J.-M. Mewes,  P. Morgante,  A. F. Morrison,  
 J. W. Mullinax,  K. Nanda,  T. S. Nguyen-Beck,  R. Olivares-Amaya,  
 J. A. Parkhill,  Zheng Pei,  T. M. Perrine,  F. Plasser,  P. Pokhilko,  
 S. Prager,  A. Prociuk,  E. Ramos,  D. R. Rehn,  F. Rob,  M. Scheurer,  
 M. Schneider,  N. Sergueev,  S. M. Sharada,  S. Sharma,  D. W. Small,  
 T. Stauch,  T. Stein,  Yu-Chuan Su,  A. J. W. Thom,  A. Tkatchenko,  
 T. Tsuchimochi,  N. M. Tubman,  L. Vogt,  M. L. Vidal,  O. Vydrov,  
 M. A. Watson,  J. Wenzel,  M. de Wergifosse,  T. A. Wesolowski,  A. White,  
 J. Witte,  A. Yamada,  Jun Yang,  K. Yao,  S. Yeganeh,  S. R. Yost,  
 Zhi-Qiang You,  A. Zech,  Igor Ying Zhang,  Xing Zhang,  Yan Zhao,  
 Ying Zhu,  B. R. Brooks,  G. K. L. Chan,  C. J. Cramer,  M. S. Gordon,  
 W. J. Hehre,  A. Klamt,  M. W. Schmidt,  C. D. Sherrill,  D. G. Truhlar,  
 A. Aspuru-Guzik,  R. Baer,  A. T. Bell,  N. A. Besley,  Jeng-Da Chai,  
 A. E. DePrince, III,  R. A. DiStasio Jr.,  A. Dreuw,  B. D. Dunietz,  
 T. R. Furlani,  Chao-Ping Hsu,  Yousung Jung,  Jing Kong,  D. S. Lambrecht,  
 WanZhen Liang,  C. Ochsenfeld,  V. A. Rassolov,  L. V. Slipchenko,  
 J. E. Subotnik,  T. Van Voorhis,  J. M. Herbert,  A. I. Krylov,  
 P. M. W. Gill,  M. Head-Gordon

 Contributors to earlier versions of Q-Chem not listed above: 
 R. D. Adamson,  B. Austin,  J. Baker,  G. J. O. Beran,  K. Brandhorst,  
 S. T. Brown,  E. F. C. Byrd,  A. K. Chakraborty,  C.-L. Cheng,  
 Siu Hung Chien,  D. M. Chipman,  D. L. Crittenden,  H. Dachsel,  
 R. J. Doerksen,  A. D. Dutoi,  L. Fusti-Molnar,  W. A. Goddard III,  
 A. Golubeva-Zadorozhnaya,  S. R. Gwaltney,  G. Hawkins,  A. Heyden,  
 S. Hirata,  G. Kedziora,  F. J. Keil,  C. Kelley,  Jihan Kim,  R. A. King,  
 R. Z. Khaliullin,  P. P. Korambath,  W. Kurlancheek,  A. M. Lee,  M. S. Lee,  
 S. V. Levchenko,  Ching Yeh Lin,  D. Liotard,  R. C. Lochan,  I. Lotan,  
 P. E. Maslen,  N. Nair,  D. P. O'Neill,  D. Neuhauser,  E. Neuscamman,  
 C. M. Oana,  R. Olson,  B. Peters,  R. Peverati,  P. A. Pieniazek,  
 Y. M. Rhee,  J. Ritchie,  M. A. Rohrdanz,  E. Rosta,  N. J. Russ,  
 H. F. Schaefer III,  N. E. Schultz,  N. Shenvi,  A. C. Simmonett,  A. Sodt,  
 D. Stuck,  K. S. Thanthiriwatte,  V. Vanovschi,  Tao Wang,  A. Warshel,  
 C. F. Williams,  Q. Wu,  X. Xu,  W. Zhang

 Please cite Q-Chem as follows:
 Y. Shao et al., Mol. Phys. 113, 184-215 (2015)
 DOI: 10.1080/00268976.2014.952696

 Q-Chem 5.2.0 for Intel X86 EM64T Linux

 Parts of Q-Chem use Armadillo 8.300.2 (Tropical Shenanigans).
 http://arma.sourceforge.net/

 Q-Chem begins on Sun Sep 26 08:32:07 2021  

Host: cori01
0

     Scratch files written to /tmp/qchem13448//Frg1//
 May1019 |scratch|qcdevops|jenkins|workspace|build_RNUM -1
Processing $rem in /global/common/cori/software/qchem/5.2/config/preferences:
	 MEM_TOTAL  96000 
NAlpha2: 32
NElect   32
Mult     1
Symmetry turned off for PCM/SM12/SMD calculation

Checking the input file for inconsistencies... 	...done.

--------------------------------------------------------------
User input:
--------------------------------------------------------------
$molecule
0 1
 6	-2.6478379627	-1.2661760338	-0.5464702329
 6	-2.6138379627	0.2338239662	-0.3614702329
 8	-3.6458379627	0.8658239662	-0.1414702329
 7	-1.4328379627	0.8218239662	-0.4614702329
 1	-1.3908379627	1.8248239662	-0.3874702329
 1	-0.6008379627	0.2748239662	-0.6304702329
 1	-1.7278379627	-1.7061760338	-0.1594702329
 1	-2.6728379627	-1.4401760338	-1.6224702329
 1	-3.5271479627	-1.7251960338	-0.0709502329
$end
$rem
EDA2		1
METHOD		WB97X-V
BASIS		DEF2-TZVPD
XC_GRID		000099000590
NL_GRID		1
UNRESTRICTED		FALSE
MAX_SCF_CYCLES		200
SYMMETRY		FALSE
SYM_IGNORE		TRUE
BASIS_LIN_DEP_THRESH		6
THRESH		14
SCF_CONVERGENCE		8
SCF_PRINT_FRGM		TRUE
SOLVENT_METHOD		PCM
!required keywords
JOBTYPE		SP
SYM_IGNORE		TRUE
SUBSYSTEM		TRUE
GEN_SCFMAN		TRUE
CHILD_INSTRUCTION		2
SYM_IGNORE		TRUE
SCFMI		0
RI_K 0		
PARI_K 0		
MIN_PARI_K 0		
IARI_K 0		
OCC_RI_K 0		
PURECART		1111
MEM_STATIC		2000
MEM_TOTAL		96000
GUI		0
CHILD_MP		1
CHILD_MP_ORDERS		232
FRZ_RELAX		0
FRZ_RELAX_METHOD		0
EDA_CLS_ELEC		1
EDA_CLS_DISP		0
FRZ_ORTHO_DECOMP		1
EDA2		FALSE
FRGM_METHOD		FALSE
CIS_N_ROOTS  0
LOCAL_CIS    0
CIS_RLX_DNS  1
$end
$pcm
THEORY                  CPCM
METHOD                  SWIG
SOLVER                  INVERSION
RADII                   UFF
HPOINTS                 302
HEAVYPOINTS             302
PRINTLEVEL              0
$end
$solvent
DIELECTRIC              78.390000 ! water
$end
--------------------------------------------------------------
 ----------------------------------------------------------------
             Standard Nuclear Orientation (Angstroms)
    I     Atom           X                Y                Z
 ----------------------------------------------------------------
    1      C      -2.6478379627    -1.2661760338    -0.5464702329
    2      C      -2.6138379627     0.2338239662    -0.3614702329
    3      O      -3.6458379627     0.8658239662    -0.1414702329
    4      N      -1.4328379627     0.8218239662    -0.4614702329
    5      H      -1.3908379627     1.8248239662    -0.3874702329
    6      H      -0.6008379627     0.2748239662    -0.6304702329
    7      H      -1.7278379627    -1.7061760338    -0.1594702329
    8      H      -2.6728379627    -1.4401760338    -1.6224702329
    9      H      -3.5271479627    -1.7251960338    -0.0709502329
 ----------------------------------------------------------------
 Nuclear Repulsion Energy =         122.48602989 hartrees
 There are       16 alpha and       16 beta electrons
 Requested basis set is def2-TZVPD
 There are 78 shells and 196 basis functions

 Total QAlloc Memory Limit  96000 MB
 Mega-Array Size      1956 MB
 MEM_STATIC part      2000 MB
 Discretize the solute cavity surface with Lebedev spheres
	Using 302 Lebedev grid points for each H atom
	Using 302 Lebedev grid points for other atoms
	Atomic van der Waals radii will be scaled by 1.20
 Remove points where switching function is < 1.0e-08
 Keep 1212 surface tesserae and discard 1506 interior tesserae
 Molecular Surface Area = 128.273 Angst**2

                       Distance Matrix (Angstroms)
             C (  1)   C (  2)   O (  3)   N (  4)   H (  5)   H (  6)
   C (  2)  1.511748
   O (  3)  2.388609  1.229979
   N (  4)  2.417270  1.323067  2.236449
   H (  5)  3.340600  2.006910  2.462767  1.006603
   H (  6)  2.563581  2.031308  3.140132  1.009948  1.756602
   H (  7)  1.090765  2.142288  3.208463  2.563009  3.554365  2.327301
   H (  8)  1.090265  2.096635  2.908217  2.828810  3.718733  2.866788
   H (  9)  1.100002  2.180893  2.594696  3.320535  4.155316  3.588375
             H (  7)   H (  8)
   H (  8)  1.761860
   H (  9)  1.801587  1.793961
 
 A cutoff of  1.0D-14 yielded   3054 shell pairs
 There are     19544 function pairs (     24702 Cartesian)
 Smallest overlap matrix eigenvalue = 1.09E-05

 Scale SEOQF with 1.000000e-01/1.000000e-01/1.000000e-01

 Standard Electronic Orientation quadrupole field applied
 Nucleus-field energy     =     0.0000000097 hartrees
 Guess from superposition of atomic densities
 Warning:  Energy on first SCF cycle will be non-variational
 SAD guess density has 31.604610 electrons

 -----------------------------------------------------------------------
  General SCF calculation program by
  Eric Jon Sundstrom, Paul Horn, Yuezhi Mao, Dmitri Zuev, Alec White,
  David Stuck, Shaama M.S., Shane Yost, Joonho Lee, David Small,
  Daniel Levine, Susi Lehtola, Hugh Burton, Evgeny Epifanovsky
 -----------------------------------------------------------------------
 Exchange:     0.1670 Hartree-Fock + 1.0000 wB97X-V + LR-HF
 Correlation:  1.0000 wB97X-V
 Using Euler-Maclaurin-Lebedev (99,590) quadrature formula
 Nonlocal Correlation:  VV10 with C = 0.0100 and b = 6.00 and scale = 1.00000
 Grid used for NLC:  SG-1 standard quadrature
Energy prior to optimization (guess energy) = -208.703694554783
Begin Timing: Total SCF Calculation
begin iterations for algorithm: DIIS         
the SCF tolerance is set to 1.00e-08
    1    -208.7036945548      1.26e-02     00000 
    2    -208.3112742581      1.56e-02     00000 
    3    -209.2230640084      2.50e-03     00000 
    4    -209.2430869453      8.33e-04     00000 
    5    -209.2458299204      1.23e-04     00000 
    6    -209.2459281429      4.93e-05     00000 
    7    -209.2459453365      1.12e-05     00000 
    8    -209.2459465110      2.11e-06     00000 
    9    -209.2459466021      7.71e-07     00000 
   10    -209.2459466076      3.22e-07     00000 
   11    -209.2459466086      7.16e-08     00000 
   12    -209.2459466087      1.68e-08     00000 
   13    -209.2459466087      4.40e-09     00000 Convergence criterion met
Timing for Total SCF: 367.00s (wall), 724.96s (cpu)

************** Final PCM Free Energy Summary **************
 G_electrostatic  =      -0.01227157 hartree =      -7.70052761 kcal/mol
 G_cavitation     =       0.00000000 hartree =       0.00000000 kcal/mol
 G_dispersion     =       0.00000000 hartree =       0.00000000 kcal/mol
 G_repulsion      =       0.00000000 hartree =       0.00000000 kcal/mol
 --------------------------------------------------
 Non-electrostatic Free Energy =       0.00000000 hartree =       0.00000000 kcal/mol
 Total                         =      -0.01227157 hartree =      -7.70052761 kcal/mol
 --------------------------------------------------
 SCF Energy (H0 + V/2)                       =    -209.24594661 
 Solute Internal Energy (H0)                 =    -209.23367504 
 Total Free Energy (H0 + V/2 + non-elec)     =    -209.24594661 hartree
                                             = -131303.81326531 kcal/mol
***********************************************************

E_pcm = -0.0122715719
Multipole orders to be included
        2
        3
computing dipole RHS
computing quadrupole RHS
total number of RHS in solve_reponses: 8
RHS batch sizes
        8
Beginning Block Conjugate Gradient Iterations. Batch Number: 0
computing hessian-vector products by finite difference
              1      6.44e-01     00000 Conjugate Gradient Iteration
computing hessian-vector products by finite difference
              2      2.20e-01     00000 Conjugate Gradient Iteration
computing hessian-vector products by finite difference
              3      5.81e-02     00000 Conjugate Gradient Iteration
computing hessian-vector products by finite difference
              4      1.47e-02     00000 Conjugate Gradient Iteration
computing hessian-vector products by finite difference
              5      2.24e-03     00000 Conjugate Gradient Iteration
computing hessian-vector products by finite difference
              6      5.01e-04     00000 Conjugate Gradient Iteration
computing hessian-vector products by finite difference
              7      7.45e-05     00000 Conjugate Gradient Iteration
computing hessian-vector products by finite difference
              8      9.00e-06     00000 Conjugate Gradient Iteration
computing hessian-vector products by finite difference
              9      1.27e-06     00000 Conjugate Gradient Iteration
computing hessian-vector products by finite difference
             10      1.36e-07     00000 Conjugate Gradient Iteration
computing hessian-vector products by finite difference
             11      2.24e-08     00000 Conjugate Gradient Iteration
computing hessian-vector products by finite difference
             12      6.20e-09     00000 CG Converged
batch 0 complete
Done Calculating Responses
TESTING ORTHOGONALIZATION OF MULTIPOLE BASIS
Multipole virts passed orthogonality test
Virts Per Order
        48
        80
 
 --------------------------------------------------------------
 
                    Orbital Energies (a.u.)
 --------------------------------------------------------------
 
 Alpha MOs
 -- Occupied --
-19.1772 -14.4343 -10.3763 -10.2726  -1.1712  -1.0477  -0.8722  -0.7146
 -0.6628  -0.5894  -0.5698  -0.5170  -0.5107  -0.4815  -0.3831  -0.3667
 -- Virtual --
  0.0590   0.0910   0.0945   0.0971   0.1266   0.1281   0.1365   0.1406
  0.1698   0.1826   0.1936   0.2090   0.2234   0.2416   0.2454   0.2561
  0.2576   0.2720   0.2954   0.3058   0.3297   0.3329   0.3419   0.3437
  0.3552   0.3655   0.3685   0.3800   0.3876   0.3994   0.4165   0.4202
  0.4321   0.4514   0.4524   0.4745   0.4777   0.4841   0.4907   0.5031
  0.5248   0.5267   0.5369   0.5701   0.5847   0.5916   0.6270   0.6333
  0.6473   0.6569   0.6728   0.6937   0.7032   0.7151   0.7294   0.7678
  0.7704   0.7821   0.7948   0.8072   0.8139   0.8402   0.8439   0.8681
  0.9146   0.9451   0.9804   0.9834   1.0070   1.0321   1.0537   1.0905
  1.1038   1.1828   1.2222   1.2530   1.2776   1.3160   1.3431   1.3787
  1.4794   1.4872   1.5005   1.6141   1.6754   1.7218   1.7424   1.8095
  1.8448   1.8644   1.8938   1.9212   1.9246   1.9503   1.9939   2.0207
  2.0505   2.0848   2.1425   2.1781   2.2085   2.2599   2.3082   2.3553
  2.3743   2.4096   2.4439   2.4698   2.5479   2.5553   2.5953   2.6193
  2.6794   2.7113   2.7516   2.8235   2.8264   2.8960   2.9653   2.9905
  3.0440   3.1134   3.1378   3.1716   3.2006   3.2322   3.2682   3.2788
  3.3111   3.3328   3.3563   3.4024   3.4496   3.5181   3.5418   3.5807
  3.6250   3.6454   3.7017   3.7701   3.8588   3.9426   4.0214   4.0625
  4.0703   4.1863   4.3165   4.4057   4.5239   4.5853   4.6177   4.6592
  4.7813   4.8874   4.8891   4.9300   5.1465   5.1808   5.2664   5.3500
  5.3823   5.3993   5.4196   5.4805   5.5305   5.7757   5.9175   6.1487
  6.2597   6.5286   6.6439   6.7430   6.8300   6.9806   7.2320   7.3243
 22.5817  23.5879  32.4114  44.3207
 --------------------------------------------------------------
 
          Ground-State Mulliken Net Atomic Charges

     Atom                 Charge (a.u.)
  ----------------------------------------
      1 C                    -0.621343
      2 C                     0.421249
      3 O                    -0.583000
      4 N                    -0.261258
      5 H                     0.209685
      6 H                     0.189671
      7 H                     0.244852
      8 H                     0.199734
      9 H                     0.200409
  ----------------------------------------
  Sum of atomic charges =     0.000000

 -----------------------------------------------------------------
                    Cartesian Multipole Moments
 -----------------------------------------------------------------
    Charge (ESU x 10^10)
                 0.0000
    Dipole Moment (Debye)
         X       4.8280      Y      -1.7160      Z      -0.9899
       Tot       5.2186
    Quadrupole Moments (Debye-Ang)
        XX     -48.8934     XY       9.0081     YY     -22.8332
        XZ       0.9252     YZ       0.1911     ZZ     -24.5069
    Octopole Moments (Debye-Ang^2)
       XXX     294.0167    XXY     -38.8898    XYY      64.7266
       YYY      -1.6391    XXZ       9.4667    XYZ      -1.4295
       YYZ       8.8594    XZZ      62.0415    YZZ      -3.5239
       ZZZ      28.6577
    Hexadecapole Moments (Debye-Ang^3)
      XXXX   -1531.2606   XXXY     152.4360   XXYY    -228.8630
      XYYY      13.4431   YYYY    -159.8288   XXXZ     -75.2371
      XXYZ       2.9559   XYYZ     -22.1016   YYYZ      -8.7835
      XXZZ    -189.7392   XYZZ       6.9824   YYZZ     -38.6264
      XZZZ     -64.7005   YZZZ      -2.0858   ZZZZ     -56.9242
 -----------------------------------------------------------------
Archival summary:
1\1\nid00533\SP\ProcedureUnspecified\BasisUnspecified\1125\meili\SunSep2610:15:272021SunSep2610:15:272021\0\\#,ProcedureUnspecified,BasisUnspecified,\\0,1\C\O,1,1.22998\N,1,1.32307,2,122.283\H,3,1.0066,1,118.328,2,-2.29734,0\H,3,1.00995,1,120.484,2,179.177,0\C,1,1.51175,2,120.854,3,-179.295,0\H,6,1.09026,1,106.239,2,96.6797,0\H,6,1.09077,1,109.747,2,-147.075,0\H,6,1.1,1,112.279,2,-23.5822,0\\\@

 Total job time:  6200.41s(wall), 12244.54s(cpu) 
 Sun Sep 26 10:15:27 2021

        *************************************************************
        *                                                           *
        *  Thank you very much for using Q-Chem.  Have a nice day.  *
        *                                                           *
        *************************************************************


Done Job For Fragment 0
calling putenv with: QCSCRATCH=/global/cscratch1/sd/meili 
calling putenv with: QCLOCALSCR=/tmp 
calling putenv with: QCTHREADS=32 
Creating input file /tmp/qchem13448/Frg2.input
using default PutDataFrgm: nothing
calling putenv with: QCSCRATCH=/tmp/qchem13448/ 
calling putenv with: QCLOCALSCR=/tmp/qchem13448/ 
Spawning Job For Fragment 1
                  Welcome to Q-Chem
     A Quantum Leap Into The Future Of Chemistry


 Q-Chem 5.2, Q-Chem, Inc., Pleasanton, CA (2019)

 License issued to: National Energy Research Scientific Computing Center

 Yihan Shao,  Zhengting Gan,  E. Epifanovsky,  A. T. B. Gilbert,  M. Wormit,  
 J. Kussmann,  A. W. Lange,  A. Behn,  Jia Deng,  Xintian Feng,  D. Ghosh,  
 M. Goldey,  P. R. Horn,  L. D. Jacobson,  I. Kaliman,  T. Kus,  A. Landau,  
 Jie Liu,  E. I. Proynov,  R. M. Richard,  R. P. Steele,  E. J. Sundstrom,  
 H. L. Woodcock III,  P. M. Zimmerman,  D. Zuev,  B. Albrecht,  E. Alguire,  
 S. A. Baeppler,  D. Barton,  Z. Benda,  Y. A. Bernard,  E. J. Berquist,  
 K. B. Bravaya,  H. Burton,  D. Casanova,  Chun-Min Chang,  Yunqing Chen,  
 A. Chien,  K. D. Closser,  M. P. Coons,  S. Coriani,  S. Dasgupta,  
 A. L. Dempwolff,  M. Diedenhofen,  Hainam Do,  R. G. Edgar,  Po-Tung Fang,  
 S. Faraji,  S. Fatehi,  Qingguo Feng,  K. D. Fenk,  J. Fosso-Tande,  
 J. Gayvert,  Qinghui Ge,  A. Ghysels,  G. Gidofalvi,  J. Gomes,  
 J. Gonthier,  A. Gunina,  D. Hait,  M. W. D. Hanson-Heine,  
 P. H. P. Harbach,  A. W. Hauser,  M. F. Herbst,  J. E. Herr,  
 E. G. Hohenstein,  Z. C. Holden,  Kerwin Hui,  B. C. Huynh,  T.-C. Jagau,  
 Hyunjun Ji,  B. Kaduk,  K. Khistyaev,  Jaehoon Kim,  P. Klunzinger,  K. Koh,  
 D. Kosenkov,  L. Koulias,  T. Kowalczyk,  C. M. Krauter,  A. Kunitsa,  
 Ka Un Lao,  A. Laurent,  K. V. Lawler,  Joonho Lee,  D. Lefrancois,  
 S. Lehtola,  D. S. Levine,  Yi-Pei Li,  You-Sheng Lin,  Fenglai Liu,  
 E. Livshits,  A. Luenser,  P. Manohar,  E. Mansoor,  S. F. Manzer,  
 Shan-Ping Mao,  Yuezhi Mao,  N. Mardirossian,  A. V. Marenich,  
 T. Markovich,  L. A. Martinez-Martinez,  S. A. Maurer,  N. J. Mayhall,  
 S. C. McKenzie,  J.-M. Mewes,  P. Morgante,  A. F. Morrison,  
 J. W. Mullinax,  K. Nanda,  T. S. Nguyen-Beck,  R. Olivares-Amaya,  
 J. A. Parkhill,  Zheng Pei,  T. M. Perrine,  F. Plasser,  P. Pokhilko,  
 S. Prager,  A. Prociuk,  E. Ramos,  D. R. Rehn,  F. Rob,  M. Scheurer,  
 M. Schneider,  N. Sergueev,  S. M. Sharada,  S. Sharma,  D. W. Small,  
 T. Stauch,  T. Stein,  Yu-Chuan Su,  A. J. W. Thom,  A. Tkatchenko,  
 T. Tsuchimochi,  N. M. Tubman,  L. Vogt,  M. L. Vidal,  O. Vydrov,  
 M. A. Watson,  J. Wenzel,  M. de Wergifosse,  T. A. Wesolowski,  A. White,  
 J. Witte,  A. Yamada,  Jun Yang,  K. Yao,  S. Yeganeh,  S. R. Yost,  
 Zhi-Qiang You,  A. Zech,  Igor Ying Zhang,  Xing Zhang,  Yan Zhao,  
 Ying Zhu,  B. R. Brooks,  G. K. L. Chan,  C. J. Cramer,  M. S. Gordon,  
 W. J. Hehre,  A. Klamt,  M. W. Schmidt,  C. D. Sherrill,  D. G. Truhlar,  
 A. Aspuru-Guzik,  R. Baer,  A. T. Bell,  N. A. Besley,  Jeng-Da Chai,  
 A. E. DePrince, III,  R. A. DiStasio Jr.,  A. Dreuw,  B. D. Dunietz,  
 T. R. Furlani,  Chao-Ping Hsu,  Yousung Jung,  Jing Kong,  D. S. Lambrecht,  
 WanZhen Liang,  C. Ochsenfeld,  V. A. Rassolov,  L. V. Slipchenko,  
 J. E. Subotnik,  T. Van Voorhis,  J. M. Herbert,  A. I. Krylov,  
 P. M. W. Gill,  M. Head-Gordon

 Contributors to earlier versions of Q-Chem not listed above: 
 R. D. Adamson,  B. Austin,  J. Baker,  G. J. O. Beran,  K. Brandhorst,  
 S. T. Brown,  E. F. C. Byrd,  A. K. Chakraborty,  C.-L. Cheng,  
 Siu Hung Chien,  D. M. Chipman,  D. L. Crittenden,  H. Dachsel,  
 R. J. Doerksen,  A. D. Dutoi,  L. Fusti-Molnar,  W. A. Goddard III,  
 A. Golubeva-Zadorozhnaya,  S. R. Gwaltney,  G. Hawkins,  A. Heyden,  
 S. Hirata,  G. Kedziora,  F. J. Keil,  C. Kelley,  Jihan Kim,  R. A. King,  
 R. Z. Khaliullin,  P. P. Korambath,  W. Kurlancheek,  A. M. Lee,  M. S. Lee,  
 S. V. Levchenko,  Ching Yeh Lin,  D. Liotard,  R. C. Lochan,  I. Lotan,  
 P. E. Maslen,  N. Nair,  D. P. O'Neill,  D. Neuhauser,  E. Neuscamman,  
 C. M. Oana,  R. Olson,  B. Peters,  R. Peverati,  P. A. Pieniazek,  
 Y. M. Rhee,  J. Ritchie,  M. A. Rohrdanz,  E. Rosta,  N. J. Russ,  
 H. F. Schaefer III,  N. E. Schultz,  N. Shenvi,  A. C. Simmonett,  A. Sodt,  
 D. Stuck,  K. S. Thanthiriwatte,  V. Vanovschi,  Tao Wang,  A. Warshel,  
 C. F. Williams,  Q. Wu,  X. Xu,  W. Zhang

 Please cite Q-Chem as follows:
 Y. Shao et al., Mol. Phys. 113, 184-215 (2015)
 DOI: 10.1080/00268976.2014.952696

 Q-Chem 5.2.0 for Intel X86 EM64T Linux

 Parts of Q-Chem use Armadillo 8.300.2 (Tropical Shenanigans).
 http://arma.sourceforge.net/

 Q-Chem begins on Sun Sep 26 10:15:29 2021  

Host: cori01
0

     Scratch files written to /tmp/qchem13448//Frg2//
 May1019 |scratch|qcdevops|jenkins|workspace|build_RNUM -1
Processing $rem in /global/common/cori/software/qchem/5.2/config/preferences:
	 MEM_TOTAL  96000 
NAlpha2: 50
NElect   50
Mult     1
Symmetry turned off for PCM/SM12/SMD calculation

Checking the input file for inconsistencies... 	...done.

--------------------------------------------------------------
User input:
--------------------------------------------------------------
$molecule
0 1
 6	1.4141620373	1.7248239662	1.8435297671
 6	1.5711620373	0.5998239662	0.8565297671
 6	1.9731620373	0.8408239662	-0.4564702329
 6	1.2821620373	-0.7031760338	1.2405297671
 6	2.0961620373	-0.2081760338	-1.3564702329
 6	1.4031620373	-1.7501760338	0.3405297671
 6	1.8151620373	-1.5031760338	-0.9584702329
 1	1.8241620373	1.4218239662	2.8085297671
 1	0.3451620373	1.8968239662	1.9765297671
 1	2.2171620373	1.8198239662	-0.8284702329
 1	0.9721620373	-0.9091760338	2.2555297671
 1	2.4201620373	-0.0151760338	-2.3714702329
 1	1.1751620373	-2.7611760338	0.6525297671
 1	1.9171620373	-2.3201760338	-1.6604702329
 1	1.8836820373	2.6688939662	1.5300397671
$end
$rem
EDA2		1
METHOD		WB97X-V
BASIS		DEF2-TZVPD
XC_GRID		000099000590
NL_GRID		1
UNRESTRICTED		FALSE
MAX_SCF_CYCLES		200
SYMMETRY		FALSE
SYM_IGNORE		TRUE
BASIS_LIN_DEP_THRESH		6
THRESH		14
SCF_CONVERGENCE		8
SCF_PRINT_FRGM		TRUE
SOLVENT_METHOD		PCM
!required keywords
JOBTYPE		SP
SYM_IGNORE		TRUE
SUBSYSTEM		TRUE
GEN_SCFMAN		TRUE
CHILD_INSTRUCTION		2
SYM_IGNORE		TRUE
SCFMI		0
RI_K 0		
PARI_K 0		
MIN_PARI_K 0		
IARI_K 0		
OCC_RI_K 0		
PURECART		1111
MEM_STATIC		2000
MEM_TOTAL		96000
GUI		0
CHILD_MP		1
CHILD_MP_ORDERS		232
FRZ_RELAX		0
FRZ_RELAX_METHOD		0
EDA_CLS_ELEC		1
EDA_CLS_DISP		0
FRZ_ORTHO_DECOMP		1
EDA2		FALSE
FRGM_METHOD		FALSE
CIS_N_ROOTS  0
LOCAL_CIS    0
CIS_RLX_DNS  1
$end
$pcm
THEORY                  CPCM
METHOD                  SWIG
SOLVER                  INVERSION
RADII                   UFF
HPOINTS                 302
HEAVYPOINTS             302
PRINTLEVEL              0
$end
$solvent
DIELECTRIC              78.390000 ! water
$end
--------------------------------------------------------------
 ----------------------------------------------------------------
             Standard Nuclear Orientation (Angstroms)
    I     Atom           X                Y                Z
 ----------------------------------------------------------------
    1      C       1.4141620373     1.7248239662     1.8435297671
    2      C       1.5711620373     0.5998239662     0.8565297671
    3      C       1.9731620373     0.8408239662    -0.4564702329
    4      C       1.2821620373    -0.7031760338     1.2405297671
    5      C       2.0961620373    -0.2081760338    -1.3564702329
    6      C       1.4031620373    -1.7501760338     0.3405297671
    7      C       1.8151620373    -1.5031760338    -0.9584702329
    8      H       1.8241620373     1.4218239662     2.8085297671
    9      H       0.3451620373     1.8968239662     1.9765297671
   10      H       2.2171620373     1.8198239662    -0.8284702329
   11      H       0.9721620373    -0.9091760338     2.2555297671
   12      H       2.4201620373    -0.0151760338    -2.3714702329
   13      H       1.1751620373    -2.7611760338     0.6525297671
   14      H       1.9171620373    -2.3201760338    -1.6604702329
   15      H       1.8836820373     2.6688939662     1.5300397671
 ----------------------------------------------------------------
 Nuclear Repulsion Energy =         270.49939399 hartrees
 There are       25 alpha and       25 beta electrons
 Requested basis set is def2-TZVPD
 There are 131 shells and 331 basis functions

 Total QAlloc Memory Limit  96000 MB
 Mega-Array Size      1956 MB
 MEM_STATIC part      2000 MB
 Discretize the solute cavity surface with Lebedev spheres
	Using 302 Lebedev grid points for each H atom
	Using 302 Lebedev grid points for other atoms
	Atomic van der Waals radii will be scaled by 1.20
 Remove points where switching function is < 1.0e-08
 Keep 1794 surface tesserae and discard 2736 interior tesserae
 Molecular Surface Area = 178.112 Angst**2

                       Distance Matrix (Angstroms)
             C (  1)   C (  2)   C (  3)   C (  4)   C (  5)   C (  6)
   C (  2)  1.504807
   C (  3)  2.526645  1.394150
   C (  4)  2.505238  1.388807  2.396086
   C (  5)  3.800212  2.413681  1.387635  2.766230
   C (  6)  3.786127  2.411842  2.770088  1.385947  2.395375
   C (  7)  4.293249  2.788614  2.402354  2.399935  1.383615  1.384974
   H (  8)  1.091391  2.133072  3.319637  2.695925  4.480860  4.041021
   H (  9)  1.090887  2.107056  3.112075  2.860011  4.313457  4.134788
   H ( 10)  2.791669  2.178289  1.075342  3.394188  2.099097  3.843704
   H ( 11)  2.702418  2.143148  3.379267  1.081093  3.847248  2.135478
   H ( 12)  4.669675  3.393967  2.144707  3.849017  1.082797  3.376308
   H ( 13)  4.647558  3.390391  3.852413  2.143025  3.376704  1.082335
   H ( 14)  5.375226  3.870582  3.382998  3.381378  2.141262  2.143151
   H ( 15)  1.099997  2.198257  2.701124  3.437513  4.081007  4.601523
             C (  7)   H (  8)   H (  9)   H ( 10)   H ( 11)   H ( 12)
   H (  8)  4.769276
   H (  9)  4.726005  1.762183
   H ( 10)  3.349751  3.679758  3.373179
   H ( 11)  3.375393  2.542690  2.888703  4.302153
   H ( 12)  2.139331  5.408566  5.183288  2.406093  4.930017
   H ( 13)  2.141841  4.750476  4.913129  4.925920  2.457788  4.270260
   H ( 14)  1.081988  5.829509  5.786367  4.233418  4.268372  2.464053
   H ( 15)  4.858348  1.786970  1.778339  2.528774  3.762950  4.765902
             H ( 13)   H ( 14)
   H ( 14)  2.468808
   H ( 15)  5.545961  5.922102
 
 A cutoff of  1.0D-14 yielded   8362 shell pairs
 There are     54494 function pairs (     69447 Cartesian)
 Smallest overlap matrix eigenvalue = 5.29E-07
 Linear dependence detected in AO basis
 Tighter screening thresholds may be required for diffuse basis sets
 Use S2THRESH > 14 and THRESH = 14 in case of SCF convergence issues
 Number of orthogonalized atomic orbitals = 330
 Maximum deviation from orthogonality = 1.792E-10

 Scale SEOQF with 1.000000e-01/1.000000e-01/1.000000e-01

 Standard Electronic Orientation quadrupole field applied
 Nucleus-field energy     =     0.0000000027 hartrees
 Guess from superposition of atomic densities
 Warning:  Energy on first SCF cycle will be non-variational
 SAD guess density has 49.913408 electrons

 -----------------------------------------------------------------------
  General SCF calculation program by
  Eric Jon Sundstrom, Paul Horn, Yuezhi Mao, Dmitri Zuev, Alec White,
  David Stuck, Shaama M.S., Shane Yost, Joonho Lee, David Small,
  Daniel Levine, Susi Lehtola, Hugh Burton, Evgeny Epifanovsky
 -----------------------------------------------------------------------
 Exchange:     0.1670 Hartree-Fock + 1.0000 wB97X-V + LR-HF
 Correlation:  1.0000 wB97X-V
 Using Euler-Maclaurin-Lebedev (99,590) quadrature formula
 Nonlocal Correlation:  VV10 with C = 0.0100 and b = 6.00 and scale = 1.00000
 Grid used for NLC:  SG-1 standard quadrature
Energy prior to optimization (guess energy) = -271.518200548362
Begin Timing: Total SCF Calculation
begin iterations for algorithm: DIIS         
the SCF tolerance is set to 1.00e-08
    1    -271.5182005484      1.99e-03     00000 
    2    -271.5578800482      1.29e-03     00000 
    3    -271.5808050597      1.39e-04     00000 
    4    -271.5812195733      4.77e-05     00000 
    5    -271.5812538927      1.52e-05     00000 
    6    -271.5812581610      3.11e-06     00000 
    7    -271.5812584288      7.75e-07     00000 
    8    -271.5812584431      3.15e-07     00000 
    9    -271.5812584450      8.38e-08     00000 
   10    -271.5812584452      2.69e-08     00000 
   11    -271.5812584453      1.47e-08     00000 
   12    -271.5812584453      4.77e-09     00000 Convergence criterion met
Timing for Total SCF: 1401.00s (wall), 2775.54s (cpu)

************** Final PCM Free Energy Summary **************
 G_electrostatic  =      -0.00245136 hartree =      -1.53824883 kcal/mol
 G_cavitation     =       0.00000000 hartree =       0.00000000 kcal/mol
 G_dispersion     =       0.00000000 hartree =       0.00000000 kcal/mol
 G_repulsion      =       0.00000000 hartree =       0.00000000 kcal/mol
 --------------------------------------------------
 Non-electrostatic Free Energy =       0.00000000 hartree =       0.00000000 kcal/mol
 Total                         =      -0.00245136 hartree =      -1.53824883 kcal/mol
 --------------------------------------------------
 SCF Energy (H0 + V/2)                       =    -271.58125845 
 Solute Internal Energy (H0)                 =    -271.57880709 
 Total Free Energy (H0 + V/2 + non-elec)     =    -271.58125845 hartree
                                             = -170419.81182052 kcal/mol
***********************************************************

E_pcm = -0.0024513556
Multipole orders to be included
        2
        3
computing dipole RHS
computing quadrupole RHS
total number of RHS in solve_reponses: 8
RHS batch sizes
        8
Beginning Block Conjugate Gradient Iterations. Batch Number: 0
computing hessian-vector products by finite difference
              1      5.81e-01     00000 Conjugate Gradient Iteration
computing hessian-vector products by finite difference
              2      1.90e-01     00000 Conjugate Gradient Iteration
computing hessian-vector products by finite difference
              3      4.44e-02     00000 Conjugate Gradient Iteration
computing hessian-vector products by finite difference
              4      1.03e-02     00000 Conjugate Gradient Iteration
computing hessian-vector products by finite difference
              5      2.20e-03     00000 Conjugate Gradient Iteration
computing hessian-vector products by finite difference
              6      5.79e-04     00000 Conjugate Gradient Iteration
computing hessian-vector products by finite difference
              7      1.51e-04     00000 Conjugate Gradient Iteration
computing hessian-vector products by finite difference
              8      2.35e-05     00000 Conjugate Gradient Iteration
computing hessian-vector products by finite difference
              9      3.35e-06     00000 Conjugate Gradient Iteration
computing hessian-vector products by finite difference
             10      5.06e-07     00000 Conjugate Gradient Iteration
computing hessian-vector products by finite difference
             11      8.95e-08     00000 Conjugate Gradient Iteration
computing hessian-vector products by finite difference
             12      1.32e-08     00000 Conjugate Gradient Iteration
computing hessian-vector products by finite difference
             13      2.34e-09     00000 CG Converged
batch 0 complete
Done Calculating Responses
TESTING ORTHOGONALIZATION OF MULTIPOLE BASIS
Multipole virts passed orthogonality test
Virts Per Order
           75
          125
 
 --------------------------------------------------------------
 
                    Orbital Energies (a.u.)
 --------------------------------------------------------------
 
 Alpha MOs
 -- Occupied --
-10.2827 -10.2717 -10.2705 -10.2683 -10.2681 -10.2677 -10.2631  -0.9997
 -0.9082  -0.8806  -0.8144  -0.7298  -0.7077  -0.6310  -0.5754  -0.5665
 -0.5360  -0.5306  -0.5147  -0.4902  -0.4743  -0.4426  -0.4399  -0.3502
 -0.3379
 -- Virtual --
  0.0631   0.0645   0.0699   0.0788   0.0844   0.1043   0.1101   0.1133
  0.1361   0.1536   0.1646   0.1690   0.1838   0.1902   0.1937   0.2006
  0.2230   0.2275   0.2339   0.2409   0.2466   0.2561   0.2580   0.2702
  0.2795   0.2799   0.2853   0.2918   0.2928   0.3012   0.3038   0.3130
  0.3224   0.3263   0.3307   0.3389   0.3455   0.3539   0.3677   0.3711
  0.3734   0.3825   0.3849   0.3885   0.3922   0.3974   0.4035   0.4043
  0.4123   0.4270   0.4304   0.4374   0.4437   0.4478   0.4529   0.4568
  0.4638   0.4694   0.4784   0.4816   0.4877   0.4997   0.5079   0.5141
  0.5186   0.5257   0.5327   0.5372   0.5425   0.5508   0.5530   0.5666
  0.5750   0.5826   0.5904   0.5957   0.5984   0.6228   0.6387   0.6432
  0.6670   0.6748   0.6827   0.6830   0.6902   0.7054   0.7210   0.7225
  0.7244   0.7297   0.7424   0.7618   0.7649   0.7665   0.7747   0.7831
  0.7917   0.7966   0.7993   0.8003   0.8080   0.8215   0.8257   0.8295
  0.8323   0.8368   0.8501   0.8615   0.8633   0.8668   0.8865   0.8931
  0.9181   0.9291   0.9382   0.9493   0.9533   1.0045   1.0266   1.0417
  1.0490   1.0642   1.0676   1.0750   1.0911   1.0964   1.1029   1.1439
  1.1612   1.1715   1.2547   1.2823   1.2930   1.3247   1.3508   1.3531
  1.3811   1.4396   1.4572   1.4632   1.4678   1.4736   1.5277   1.5411
  1.6048   1.6062   1.6185   1.6262   1.6473   1.6807   1.7320   1.7762
  1.7913   1.7927   1.8083   1.8127   1.8345   1.8578   1.8891   1.9085
  1.9183   1.9257   1.9454   1.9683   1.9891   1.9990   2.0138   2.0276
  2.0355   2.0424   2.0708   2.0891   2.1109   2.1281   2.1689   2.1759
  2.2002   2.2391   2.2441   2.2541   2.2905   2.3169   2.3778   2.4006
  2.4145   2.4261   2.4720   2.5131   2.5354   2.5565   2.5723   2.6014
  2.6186   2.6331   2.6589   2.6685   2.7126   2.7187   2.7717   2.7800
  2.7877   2.8158   2.8284   2.8510   2.8613   2.8971   2.9116   2.9184
  2.9325   2.9380   2.9724   2.9817   2.9960   3.0134   3.0215   3.0548
  3.0687   3.0871   3.1017   3.1644   3.1742   3.1846   3.2031   3.2169
  3.2290   3.2516   3.2769   3.2933   3.3358   3.3574   3.3642   3.3827
  3.4133   3.4328   3.4476   3.4528   3.4596   3.4663   3.4909   3.5044
  3.5105   3.5371   3.5385   3.5477   3.5557   3.5718   3.5831   3.6076
  3.6110   3.6390   3.6618   3.7009   3.7142   3.7584   3.7627   3.8063
  3.8538   3.8998   3.9281   3.9623   3.9643   3.9862   4.0385   4.0656
  4.1267   4.2062   4.2749   4.2808   4.2899   4.3242   4.3322   4.3523
  4.3684   4.3806   4.3859   4.4115   4.4316   4.4679   4.5128   4.5531
  4.6008   4.6527   4.7450   4.7825   4.8261   4.8730   4.9091   4.9528
  5.0320   5.0480   5.1610   5.2794   5.3938   5.4082   5.5008   5.5253
  5.6860   5.8583  22.5739  22.6702  22.9061  22.9214  23.0317  23.0958
 23.4416
 --------------------------------------------------------------
 
          Ground-State Mulliken Net Atomic Charges

     Atom                 Charge (a.u.)
  ----------------------------------------
      1 C                    -1.037699
      2 C                     0.858405
      3 C                    -0.433815
      4 C                    -0.314069
      5 C                    -0.478888
      6 C                    -0.470913
      7 C                    -0.451940
      8 H                     0.259939
      9 H                     0.216935
     10 H                     0.306727
     11 H                     0.336317
     12 H                     0.300452
     13 H                     0.308403
     14 H                     0.329938
     15 H                     0.270207
  ----------------------------------------
  Sum of atomic charges =     0.000000

 -----------------------------------------------------------------
                    Cartesian Multipole Moments
 -----------------------------------------------------------------
    Charge (ESU x 10^10)
                 0.0000
    Dipole Moment (Debye)
         X      -0.0904      Y       0.3608      Z       0.3450
       Tot       0.5073
    Quadrupole Moments (Debye-Ang)
        XX     -45.8270     XY       1.5427     YY     -38.4068
        XZ      -1.6450     YZ       0.3486     ZZ     -38.5527
    Octopole Moments (Debye-Ang^2)
       XXX    -226.8106    XXY      10.7046    XYY     -63.5437
       YYY       7.5056    XXZ     -16.5728    XYZ       1.4302
       YYZ     -11.6369    XZZ     -62.0997    YZZ       2.4007
       ZZZ     -32.4767
    Hexadecapole Moments (Debye-Ang^3)
      XXXX    -839.1463   XXXY      35.2038   XXYY    -205.0264
      XYYY      17.5842   YYYY    -453.1657   XXXZ     -22.4826
      XXYZ     -22.9241   XYYZ      -8.9449   YYYZ     -78.6917
      XXZZ    -189.6219   XYZZ       4.4399   YYZZ    -150.0365
      XZZZ     -18.5094   YZZZ     -79.6396   ZZZZ    -421.3447
 -----------------------------------------------------------------
Archival summary:
1\1\nid00533\SP\ProcedureUnspecified\BasisUnspecified\78\meili\SunSep2618:05:522021SunSep2618:05:522021\0\\#,ProcedureUnspecified,BasisUnspecified,\\0,1\C\C,1,1.38881\H,2,1.08109,1,119.87\C,2,1.38595,1,120.734,3,-179.151,0\H,4,1.08233,2,120.004,1,179.98,0\C,4,1.38497,2,120.02,1,-0.0528906,0\H,6,1.08199,4,120.126,2,179.553,0\C,6,1.38361,4,119.81,2,-0.447279,0\H,8,1.0828,6,119.817,4,179.879,0\C,8,1.38763,6,120.197,4,0.344961,0\H,10,1.07534,8,116.344,6,179.366,0\C,1,1.50481,2,119.891,3,-1.73349,0\H,12,1.09089,1,107.462,2,-73.1849,0\H,12,1.09139,1,109.463,2,43.5128,0\H,12,1.1,1,114.216,2,166.373,0\\\@

 Total job time:  28226.34s(wall), 55992.61s(cpu) 
 Sun Sep 26 18:05:55 2021

        *************************************************************
        *                                                           *
        *  Thank you very much for using Q-Chem.  Have a nice day.  *
        *                                                           *
        *************************************************************


Done Job For Fragment 1
calling putenv with: QCSCRATCH=/global/cscratch1/sd/meili 
calling putenv with: QCLOCALSCR=/tmp 
calling putenv with: QCTHREADS=32 
Doing General SCFMI
 Exchange:     0.1670 Hartree-Fock + 1.0000 wB97X-V + LR-HF
 Correlation:  1.0000 wB97X-V
 Using Euler-Maclaurin-Lebedev (99,590) quadrature formula
 Nonlocal Correlation:  VV10 with C = 0.0100 and b = 6.00 and scale = 1.00000
 Grid used for NLC:  SG-1 standard quadrature
performing fock build before subrot guess so that all methods have access
Printing subrot_rss_gen Method Specification:
Occupied Subspace Method is 0
Virtual Subspace Method is 0
Energy of the unrelaxed supersystem initial determinant -480.818642235787
performing fock build before subrot guess so that all methods have access
Printing subrot_rss_gen Method Specification:
Occupied Subspace Method is 0
Virtual Subspace Method is 0
Energy of the unrelaxed supersystem initial determinant w/ solvent -480.830554911633
write pseudocanon occs and virts to disk
write pseudocanon orbital energies to disk
Tolerance of ortho_decomp_scf: 1.00e-06
GDM subspace size: 20
Beginning the Orthogonal Decomposition of the Initial Supersystem Wavefunction
    1    -480.7918011682      3.00e-02     ortho_decomp Preconditoned Steepest Descent
    2    -480.7940236893      7.10e-04     ortho_decomp BFGS Step
    3    -480.7940298841      5.00e-05     ortho_decomp BFGS Step
    4    -480.7940298947      2.02e-06     ortho_decomp BFGS Step
    5    -480.7940298948      6.33e-08     ortho_decomp 00000 Convergence criterion met
 Hartree-Fock
 Hartree-Fock
 Hartree-Fock
Doing General SCFMI
 Exchange:     0.1670 Hartree-Fock + 1.0000 wB97X-V + LR-HF
 Correlation:  1.0000 wB97X-V
 Using Euler-Maclaurin-Lebedev (99,590) quadrature formula
 Nonlocal Correlation:  VV10 with C = 0.0100 and b = 6.00 and scale = 1.00000
 Grid used for NLC:  SG-1 standard quadrature
performing fock build at end of subrot_r(subrot) constructor so that all methods have access
<S^2> of initial wavefunction before polarization iterations 0.0000000000
Beginning iterations for the determination of the polarized wavefunction
Energy prior to optimization (guess energy) = -480.830554911632
Begin Timing: Total SCF Calculation
begin iterations for algorithm: DIIS         
the SCF tolerance is set to 1.00e-08
    1    -480.8305549116      1.11e-04     00000 
    2    -480.8314050692      5.18e-05     00000 
    3    -480.8315131868      1.95e-05     00000 
    4    -480.8315371361      9.43e-06     00000 
    5    -480.8315415444      4.62e-06     00000 
    6    -480.8315425900      2.75e-06     00000 
    7    -480.8315429175      1.38e-06     00000 
    8    -480.8315429908      8.67e-07     00000 
    9    -480.8315430159      3.77e-07     00000 
   10    -480.8315430194      1.68e-07     00000 
   11    -480.8315430205      9.20e-08     00000 
   12    -480.8315430212      4.83e-08     00000 
   13    -480.8315430215      2.14e-08     00000 
   14    -480.8315430215      7.27e-09     00000 Convergence criterion met
write pseudocanon occs and virts to disk
write pseudocanon orbital energies to disk
Timing for Total SCF: 6428.00s (wall), 12783.72s (cpu)
<S^2> of polarized wavefunction after polarization iterations 0.0000000000
relaxing scfmi constraint to allow all rotations in the entire AO span
Doing General SCFMI
 Exchange:     0.1670 Hartree-Fock + 1.0000 wB97X-V + LR-HF
 Correlation:  1.0000 wB97X-V
 Using Euler-Maclaurin-Lebedev (99,590) quadrature formula
 Nonlocal Correlation:  VV10 with C = 0.0100 and b = 6.00 and scale = 1.00000
 Grid used for NLC:  SG-1 standard quadrature
performing fock build at end of subrot_r(subrot) constructor so that all methods have access
<S^2> of polarized wavefunction before ct-allowed iterations 0.0000000000
Beginning iterations for the determination of the CT-Allowed wavefunction
Energy prior to optimization (guess energy) = -480.831543021522
Begin Timing: Total SCF Calculation
begin iterations for algorithm: DIIS         
the SCF tolerance is set to 1.00e-08
    1    -480.8315430215      9.52e-05     00000 
    2    -480.8327909323      1.02e-05     00000 
    3    -480.8328269335      1.80e-06     00000 
    4    -480.8328279603      1.18e-06     00000 
    5    -480.8328281311      3.14e-07     00000 
    6    -480.8328281450      1.48e-07     00000 
    7    -480.8328281484      2.88e-08     00000 
    8    -480.8328281485      1.10e-08     00000 
    9    -480.8328281486      3.51e-09     00000 Convergence criterion met
write pseudocanon occs and virts to disk
write pseudocanon orbital energies to disk
Timing for Total SCF: 3935.00s (wall), 7815.83s (cpu)
<S^2> of ct_allowed wavefunction after ct-allowed iterations 0.0000000000

================================
        Results of EDA2         
================================
Basic EDA Quantities
--------------------
Fragment Energies (Ha):
1 -209.2459466087
2 -271.5812584453
--------------------
  E_prp (kJ/mol) = 0.0000
  E_sol (kJ/mol) = 7.3784
  E_frz (kJ/mol) = -16.1736
  E_pol (kJ/mol) = -2.5943
  E_vct (kJ/mol) = -3.3741
  E_int (kJ/mol) = -14.7636
--------------------


Initial Wavefunction Decomposition
--------------------
  --------------------
  Orthogonal Fragment Subspace Decomposition:
  --------------------
     E_elec   (ELEC)   (kJ/mol) = -34.8115
     E_pauli  (PAULI)  (kJ/mol) = 37.7773
     E_disp   (DISP)   (kJ/mol) = -19.1393
     --------------------
     Terms summing to E_pauli:
     --------------------
        E_kep_pauli       (kJ/mol) = 48.4469
        E_disp_free_pauli (kJ/mol) = -10.6696
  --------------------
  Classical Frozen Decomposition:
  --------------------
     E_cls_elec  (CLS ELEC)  (kJ/mol) = -19.8424
     E_cls_pauli (CLS PAULI) (kJ/mol) = 3.6688
    [E_mod_pauli (MOD PAULI) (kJ/mol) = 22.8081 (CLS PAULI - DISP from orthogonal decomposition) ]
  --------------------
--------------------

Simplified EDA Summary (kJ/mol)
--------------------
 PREPARATION     0.0000
 SOLVATION       7.3784
 FROZEN          2.9658      (does not include dispersion)
[PAULI           37.7773]     (if this is negligible, then frozen describes electrostatics)
 DISPERSION      -19.1393
 POLARIZATION    -2.5943
 CHARGE TRANSFER -3.3741
 TOTAL           -14.7636     (PRP + SOL + FRZ + DISP + POL + CT)
--------------------
 
 --------------------------------------------------------------
 
                    Orbital Energies (a.u.)
 --------------------------------------------------------------
 
 Alpha MOs
 -- Occupied --
-19.1757 -14.4310 -10.3745 -10.2881 -10.2777 -10.2766 -10.2738 -10.2737
-10.2737 -10.2715 -10.2659  -1.1696  -1.0455  -1.0063  -0.9134  -0.8868
 -0.8709  -0.8188  -0.7353  -0.7135  -0.7123  -0.6611  -0.6360  -0.5882
 -0.5806  -0.5711  -0.5689  -0.5401  -0.5360  -0.5196  -0.5160  -0.5100
 -0.4935  -0.4807  -0.4778  -0.4476  -0.4447  -0.3822  -0.3665  -0.3559
 -0.3434
 -- Virtual --
  0.0525   0.0575   0.0628   0.0733   0.0752   0.0785   0.0978   0.1002
  0.1017   0.1048   0.1093   0.1151   0.1286   0.1339   0.1376   0.1417
  0.1514   0.1623   0.1675   0.1740   0.1753   0.1899   0.1911   0.1947
  0.1976   0.2139   0.2179   0.2239   0.2267   0.2334   0.2409   0.2435
  0.2499   0.2546   0.2563   0.2691   0.2704   0.2718   0.2748   0.2776
  0.2829   0.2854   0.2901   0.2914   0.2944   0.3087   0.3128   0.3161
  0.3233   0.3259   0.3287   0.3369   0.3385   0.3423   0.3483   0.3548
  0.3556   0.3567   0.3613   0.3681   0.3687   0.3716   0.3755   0.3767
  0.3859   0.3897   0.3947   0.3979   0.4030   0.4067   0.4160   0.4201
  0.4245   0.4279   0.4289   0.4322   0.4395   0.4402   0.4458   0.4500
  0.4532   0.4608   0.4617   0.4639   0.4688   0.4728   0.4791   0.4874
  0.4946   0.4952   0.4984   0.5004   0.5053   0.5105   0.5122   0.5194
  0.5265   0.5297   0.5349   0.5410   0.5427   0.5488   0.5520   0.5546
  0.5606   0.5665   0.5749   0.5771   0.5826   0.5868   0.5956   0.6002
  0.6041   0.6100   0.6143   0.6232   0.6277   0.6320   0.6358   0.6425
  0.6482   0.6548   0.6598   0.6634   0.6720   0.6729   0.6839   0.6885
  0.6947   0.6956   0.7051   0.7107   0.7172   0.7270   0.7330   0.7364
  0.7391   0.7446   0.7537   0.7552   0.7570   0.7618   0.7688   0.7725
  0.7788   0.7800   0.7850   0.7898   0.7980   0.8010   0.8035   0.8051
  0.8115   0.8188   0.8254   0.8287   0.8325   0.8367   0.8415   0.8445
  0.8511   0.8595   0.8620   0.8687   0.8758   0.8806   0.8926   0.8943
  0.9009   0.9160   0.9205   0.9252   0.9337   0.9450   0.9585   0.9632
  0.9722   0.9788   0.9951   1.0035   1.0149   1.0273   1.0303   1.0356
  1.0488   1.0566   1.0680   1.0771   1.0900   1.0944   1.0995   1.1128
  1.1137   1.1318   1.1388   1.1461   1.1563   1.1719   1.1743   1.1984
  1.2186   1.2355   1.2685   1.2811   1.2893   1.3146   1.3234   1.3430
  1.3507   1.3570   1.3710   1.3797   1.4027   1.4120   1.4267   1.4451
  1.4527   1.4587   1.4696   1.4878   1.5030   1.5254   1.5431   1.5480
  1.5518   1.5716   1.5821   1.6220   1.6290   1.6402   1.6452   1.6792
  1.7033   1.7356   1.7499   1.7705   1.7799   1.8046   1.8093   1.8163
  1.8232   1.8328   1.8741   1.8953   1.9042   1.9081   1.9152   1.9270
  1.9329   1.9403   1.9469   1.9558   1.9608   1.9753   1.9795   1.9843
  2.0057   2.0111   2.0200   2.0309   2.0433   2.0444   2.0584   2.0632
  2.0723   2.0772   2.1045   2.1343   2.1428   2.1649   2.1716   2.1889
  2.1953   2.1990   2.2234   2.2306   2.2607   2.2632   2.2687   2.2946
  2.2970   2.3094   2.3245   2.3649   2.3824   2.3970   2.4123   2.4204
  2.4260   2.4461   2.4775   2.4843   2.4940   2.5134   2.5217   2.5475
  2.5499   2.5754   2.5919   2.6087   2.6221   2.6347   2.6444   2.6529
  2.6676   2.6745   2.6866   2.7136   2.7279   2.7408   2.7596   2.7791
  2.7836   2.8063   2.8148   2.8175   2.8438   2.8554   2.8575   2.8692
  2.8807   2.8897   2.9140   2.9244   2.9330   2.9435   2.9593   2.9791
  2.9843   3.0026   3.0143   3.0261   3.0282   3.0424   3.0686   3.0799
  3.0941   3.1028   3.1085   3.1208   3.1553   3.1705   3.1897   3.1973
  3.2135   3.2225   3.2317   3.2449   3.2679   3.2851   3.2931   3.3006
  3.3181   3.3219   3.3419   3.3537   3.3567   3.3678   3.3750   3.3822
  3.3936   3.4042   3.4268   3.4392   3.4533   3.4540   3.4707   3.4770
  3.4902   3.4933   3.5045   3.5097   3.5123   3.5477   3.5523   3.5581
  3.5627   3.5708   3.5808   3.5939   3.6005   3.6101   3.6229   3.6392
  3.6430   3.6584   3.6747   3.6882   3.6985   3.7094   3.7263   3.7349
  3.7606   3.7749   3.8060   3.8233   3.8707   3.9029   3.9227   3.9407
  3.9636   3.9714   3.9844   4.0025   4.0438   4.0543   4.0820   4.0875
  4.1257   4.1349   4.2028   4.2249   4.2792   4.2862   4.2976   4.3318
  4.3339   4.3557   4.3600   4.3667   4.3852   4.3869   4.4198   4.4433
  4.4499   4.4740   4.5168   4.5466   4.5673   4.6094   4.6158   4.6492
  4.6682   4.6760   4.7503   4.7908   4.8073   4.8252   4.8738   4.9175
  4.9223   4.9492   4.9569   4.9935   5.0384   5.0560   5.1628   5.2022
  5.2163   5.2792   5.2907   5.3768   5.3908   5.4055   5.4147   5.4306
  5.4934   5.5044   5.5230   5.5661   5.5708   5.6898   5.7840   5.8559
  5.9461   6.2034   6.2654   6.5376   6.6634   6.7604   6.8394   6.9964
  7.2449   7.3397  22.6283  22.6907  22.7171  22.9339  22.9558  23.0550
 23.1148  23.4468  23.6312  32.6119  44.4157
 --------------------------------------------------------------
 
          Ground-State Mulliken Net Atomic Charges

     Atom                 Charge (a.u.)
  ----------------------------------------
      1 C                    -0.491862
      2 C                     0.404895
      3 O                    -0.598634
      4 N                    -0.108848
      5 H                     0.185868
      6 H                     0.023889
      7 H                     0.172600
      8 H                     0.195502
      9 H                     0.194673
     10 C                    -1.196127
     11 C                     0.947768
     12 C                    -0.470465
     13 C                    -0.203597
     14 C                    -0.374518
     15 C                    -0.480934
     16 C                    -0.537083
     17 H                     0.286804
     18 H                     0.211589
     19 H                     0.288349
     20 H                     0.308467
     21 H                     0.297449
     22 H                     0.332790
     23 H                     0.331257
     24 H                     0.280170
  ----------------------------------------
  Sum of atomic charges =     0.000000

 -----------------------------------------------------------------
                    Cartesian Multipole Moments
 -----------------------------------------------------------------
    Charge (ESU x 10^10)
                -0.0000
    Dipole Moment (Debye)
         X       5.2020      Y      -1.4621      Z      -0.5117
       Tot       5.4277
    Quadrupole Moments (Debye-Ang)
        XX     -94.0584     XY      10.4137     YY     -60.7335
        XZ      -0.7818     YZ       0.6395     ZZ     -62.5035
    Octopole Moments (Debye-Ang^2)
       XXX      72.4844    XXY     -28.7464    XYY       3.0202
       YYY       5.0499    XXZ      -7.3684    XYZ       0.2561
       YYZ      -2.4333    XZZ       1.4834    YZZ      -1.1516
       ZZZ      -3.1126
    Hexadecapole Moments (Debye-Ang^3)
      XXXX   -2367.2009   XXXY     187.2198   XXYY    -431.3738
      XYYY      29.8907   YYYY    -607.9623   XXXZ     -99.7155
      XXYZ     -19.4507   XYYZ     -31.0686   YYYZ     -86.5937
      XXZZ    -376.4841   XYZZ      11.3138   YYZZ    -186.7397
      XZZZ     -83.3862   YZZZ     -80.7035   ZZZZ    -473.4886
 -----------------------------------------------------------------
Archival summary:
1\1\nid00533\SP\ProcedureUnspecified\BasisUnspecified\11913\meili\SunSep2623:01:072021SunSep2623:01:072021\0\\#,ProcedureUnspecified,BasisUnspecified,\\0,1\N\H,1,1.0066\H,1,1.00995,2,121.172\C,1,1.32307,2,118.328,3,-178.515,0\O,4,1.22998,1,122.283,2,-2.29734,0\C,4,1.51175,1,116.859,2,177.025,0\H,6,1.09026,4,106.239,1,-82.6525,0\H,6,1.09077,4,109.747,1,33.5923,0\H,6,1.1,4,112.279,1,157.086,0\C,3,2.64123,1,132.512,2,15.145,0\H,10,1.07534,3,113.168,1,-40.6532,0\C,10,1.38763,3,83.2036,1,-156.444,0\H,12,1.0828,10,119.984,3,112.36,0\C,12,1.38361,10,120.197,3,-68.1065,0\H,14,1.08199,12,120.063,10,-179.655,0\C,14,1.38497,12,119.81,10,0.344961,0\H,16,1.08233,14,119.975,12,179.52,0\C,16,1.38595,14,120.02,12,-0.447279,0\H,18,1.08109,16,119.391,14,-179.208,0\C,18,1.38881,16,120.734,14,-0.0528906,0\C,20,1.50481,18,119.891,16,179.116,0\H,21,1.09089,20,107.462,18,-73.1849,0\H,21,1.09139,20,109.463,18,43.5128,0\H,21,1.1,20,114.216,18,166.373,0\\\@

 Total job time:  52146.48s(wall), 35252.18s(cpu) 
 Sun Sep 26 23:01:09 2021

        *************************************************************
        *                                                           *
        *  Thank you very much for using Q-Chem.  Have a nice day.  *
        *                                                           *
        *************************************************************


