                  Welcome to Q-Chem
     A Quantum Leap Into The Future Of Chemistry


 Q-Chem 5.2 (devel), Q-Chem, Inc., Pleasanton, CA (2019)

 Yihan Shao,  Zhengting Gan,  E. Epifanovsky,  A. T. B. Gilbert,  M. Wormit,  
 J. Kussmann,  A. W. Lange,  A. Behn,  Jia Deng,  Xintian Feng,  D. Ghosh,  
 M. Goldey,  P. R. Horn,  L. D. Jacobson,  I. Kaliman,  T. Kus,  A. Landau,  
 Jie Liu,  E. I. Proynov,  R. M. Richard,  R. P. Steele,  E. J. Sundstrom,  
 H. L. Woodcock III,  P. M. Zimmerman,  D. Zuev,  B. Albrecht,  E. Alguire,  
 S. A. Baeppler,  D. Barton,  Z. Benda,  Y. A. Bernard,  E. J. Berquist,  
 K. B. Bravaya,  H. Burton,  D. Casanova,  Chun-Min Chang,  Yunqing Chen,  
 A. Chien,  K. D. Closser,  M. P. Coons,  S. Coriani,  S. Dasgupta,  
 A. L. Dempwolff,  M. Diedenhofen,  Hainam Do,  R. G. Edgar,  Po-Tung Fang,  
 S. Faraji,  S. Fatehi,  Qingguo Feng,  K. D. Fenk,  J. Fosso-Tande,  
 J. Gayvert,  Qinghui Ge,  A. Ghysels,  G. Gidofalvi,  J. Gomes,  
 J. Gonthier,  A. Gunina,  D. Hait,  M. W. D. Hanson-Heine,  
 P. H. P. Harbach,  A. W. Hauser,  M. F. Herbst,  J. E. Herr,  
 E. G. Hohenstein,  Z. C. Holden,  Kerwin Hui,  B. C. Huynh,  T.-C. Jagau,  
 Hyunjun Ji,  B. Kaduk,  K. Khistyaev,  Jaehoon Kim,  P. Klunzinger,  K. Koh,  
 D. Kosenkov,  L. Koulias,  T. Kowalczyk,  C. M. Krauter,  A. Kunitsa,  
 Ka Un Lao,  A. Laurent,  K. V. Lawler,  Joonho Lee,  D. Lefrancois,  
 S. Lehtola,  D. S. Levine,  Yi-Pei Li,  You-Sheng Lin,  Fenglai Liu,  
 E. Livshits,  A. Luenser,  P. Manohar,  E. Mansoor,  S. F. Manzer,  
 Shan-Ping Mao,  Yuezhi Mao,  N. Mardirossian,  A. V. Marenich,  
 T. Markovich,  L. A. Martinez-Martinez,  S. A. Maurer,  N. J. Mayhall,  
 S. C. McKenzie,  J.-M. Mewes,  P. Morgante,  A. F. Morrison,  
 J. W. Mullinax,  K. Nanda,  T. S. Nguyen-Beck,  R. Olivares-Amaya,  
 J. A. Parkhill,  Zheng Pei,  T. M. Perrine,  F. Plasser,  P. Pokhilko,  
 S. Prager,  A. Prociuk,  E. Ramos,  D. R. Rehn,  F. Rob,  M. Scheurer,  
 M. Schneider,  N. Sergueev,  S. M. Sharada,  S. Sharma,  D. W. Small,  
 T. Stauch,  T. Stein,  Yu-Chuan Su,  A. J. W. Thom,  A. Tkatchenko,  
 T. Tsuchimochi,  N. M. Tubman,  L. Vogt,  M. L. Vidal,  O. Vydrov,  
 M. A. Watson,  J. Wenzel,  M. de Wergifosse,  T. A. Wesolowski,  A. White,  
 J. Witte,  A. Yamada,  Jun Yang,  K. Yao,  S. Yeganeh,  S. R. Yost,  
 Zhi-Qiang You,  A. Zech,  Igor Ying Zhang,  Xing Zhang,  Yan Zhao,  
 Ying Zhu,  B. R. Brooks,  G. K. L. Chan,  C. J. Cramer,  M. S. Gordon,  
 W. J. Hehre,  A. Klamt,  M. W. Schmidt,  C. D. Sherrill,  D. G. Truhlar,  
 A. Aspuru-Guzik,  R. Baer,  A. T. Bell,  N. A. Besley,  Jeng-Da Chai,  
 A. E. DePrince, III,  R. A. DiStasio Jr.,  A. Dreuw,  B. D. Dunietz,  
 T. R. Furlani,  Chao-Ping Hsu,  Yousung Jung,  Jing Kong,  D. S. Lambrecht,  
 WanZhen Liang,  C. Ochsenfeld,  V. A. Rassolov,  L. V. Slipchenko,  
 J. E. Subotnik,  T. Van Voorhis,  J. M. Herbert,  A. I. Krylov,  
 P. M. W. Gill,  M. Head-Gordon

 Contributors to earlier versions of Q-Chem not listed above: 
 R. D. Adamson,  B. Austin,  J. Baker,  G. J. O. Beran,  K. Brandhorst,  
 S. T. Brown,  E. F. C. Byrd,  A. K. Chakraborty,  C.-L. Cheng,  
 Siu Hung Chien,  D. M. Chipman,  D. L. Crittenden,  H. Dachsel,  
 R. J. Doerksen,  A. D. Dutoi,  L. Fusti-Molnar,  W. A. Goddard III,  
 A. Golubeva-Zadorozhnaya,  S. R. Gwaltney,  G. Hawkins,  A. Heyden,  
 S. Hirata,  G. Kedziora,  F. J. Keil,  C. Kelley,  Jihan Kim,  R. A. King,  
 R. Z. Khaliullin,  P. P. Korambath,  W. Kurlancheek,  A. M. Lee,  M. S. Lee,  
 S. V. Levchenko,  Ching Yeh Lin,  D. Liotard,  R. C. Lochan,  I. Lotan,  
 P. E. Maslen,  N. Nair,  D. P. O'Neill,  D. Neuhauser,  E. Neuscamman,  
 C. M. Oana,  R. Olson,  B. Peters,  R. Peverati,  P. A. Pieniazek,  
 Y. M. Rhee,  J. Ritchie,  M. A. Rohrdanz,  E. Rosta,  N. J. Russ,  
 H. F. Schaefer III,  N. E. Schultz,  N. Shenvi,  A. C. Simmonett,  A. Sodt,  
 D. Stuck,  K. S. Thanthiriwatte,  V. Vanovschi,  Tao Wang,  A. Warshel,  
 C. F. Williams,  Q. Wu,  X. Xu,  W. Zhang

 Please cite Q-Chem as follows:
 Y. Shao et al., Mol. Phys. 113, 184-215 (2015)
 DOI: 10.1080/00268976.2014.952696

 Q-Chem 5.2.1 for Intel X86 EM64T Linux

 Parts of Q-Chem use Armadillo 8.300.2 (Tropical Shenanigans).
 http://arma.sourceforge.net/

 Q-Chem begins on Tue Sep 28 23:21:15 2021  

compute-0-8.local
Host: 0

     Scratch files written to /home/meili/scratch/qchem60414//
NAlpha2: 128
NElect   128
Mult     1
Symmetry turned off for PCM/SM12/SMD calculation

 Q-Chem warning in module libgen/rem_setup.C, line 2813:

 Neither GIA nor STOLL is specified by user. Use STOLL as the default


Checking the input file for inconsistencies... 	...done.

--------------------------------------------------------------
User input:
--------------------------------------------------------------
$comment
SSI-034PHE-045TRP-1.pdb
$end

$molecule
0 1
--
0 1
C   -0.792962575110    0.590858877073   -1.898752826979
C   -0.449962575110    1.905858877073   -2.627752826979
C   -1.932962575110    0.683858877073   -0.891752826979
C   -3.260962575110    0.694858877073   -1.339752826979
C   -1.674962575110    0.742858877073    0.494247173021
C   -4.317962575110    0.753858877073   -0.422752826979
C   -2.730962575110    0.814858877073    1.430247173021
C   -4.054962575110    0.811858877073    0.962247173021
H   -1.065962575110   -0.170141122927   -2.627752826979
H    0.087037424890    0.253858877073   -1.355752826979
H   -0.195962575110    2.654858877073   -1.879752826979
H   -3.468962575110    0.658858877073   -2.401752826979
H   -0.647962575110    0.733858877073    0.838247173021
H   -5.338962575110    0.756858877073   -0.782752826979
H   -2.517962575110    0.870858877073    2.493247173021
H   -4.877962575110    0.854858877073    1.665247173021
H   -1.302897575110    2.264118877073   -3.222862826979
H    0.427387424890    1.745948877073   -3.271712826979
--
0 1
C    0.177037424890   -3.167141122927    0.403247173021
C    1.144037424890   -2.096141122927   -0.038752826979
C    1.687037424890   -1.984141122927   -1.263752826979
C    1.636037424890   -0.981141122927    0.732247173021
C    2.493037424890   -0.209141122927   -0.110752826979
C    1.433037424890   -0.552141122927    2.064247173021
C    3.135037424890    0.953858877073    0.333247173021
C    2.074037424890    0.611858877073    2.515247173021
C    2.915037424890    1.359858877073    1.656247173021
N    2.508037424890   -0.853141122927   -1.335752826979
H   -0.156962575110   -3.697141122927   -0.493752826979
H   -0.681962575110   -2.655141122927    0.841247173021
H    1.432037424890   -2.736141122927   -2.001752826979
H    3.033037424890   -0.542141122927   -2.147752826979
H    0.790037424890   -1.094141122927    2.751247173021
H    3.775037424890    1.499858877073   -0.347752826979
H    1.907037424890    0.924858877073    3.541247173021
H    3.393037424890    2.258858877073    2.025247173021
H    0.584807424890   -3.857101122927    1.156697173021
$end

$rem
JOBTYPE			EDA
EDA2			1
method			wB97X-V
BASIS			def2-TZVPD
XC_GRID			000099000590
NL_GRID			1
UNRESTRICTED		FALSE
MAX_SCF_CYCLES		200
SYMMETRY		FALSE
SYM_IGNORE		TRUE
MEM_STATIC		2000
BASIS_LIN_DEP_THRESH 	6
THRESH 			14
SCF_CONVERGENCE 	8
SCF_PRINT_FRGM 		TRUE
SOLVENT_METHOD          PCM
$end

$PCM
THEORY                  CPCM
METHOD                  SWIG
SOLVER                  INVERSION
RADII                   UFF
HPOINTS                 302
HEAVYPOINTS             302
PRINTLEVEL              0
$END

$SOLVENT
DIELECTRIC              78.390000 ! water
$END
--------------------------------------------------------------
 ----------------------------------------------------------------
             Standard Nuclear Orientation (Angstroms)
    I     Atom           X                Y                Z
 ----------------------------------------------------------------
    1      C      -0.7929625751     0.5908588771    -1.8987528270
    2      C      -0.4499625751     1.9058588771    -2.6277528270
    3      C      -1.9329625751     0.6838588771    -0.8917528270
    4      C      -3.2609625751     0.6948588771    -1.3397528270
    5      C      -1.6749625751     0.7428588771     0.4942471730
    6      C      -4.3179625751     0.7538588771    -0.4227528270
    7      C      -2.7309625751     0.8148588771     1.4302471730
    8      C      -4.0549625751     0.8118588771     0.9622471730
    9      H      -1.0659625751    -0.1701411229    -2.6277528270
   10      H       0.0870374249     0.2538588771    -1.3557528270
   11      H      -0.1959625751     2.6548588771    -1.8797528270
   12      H      -3.4689625751     0.6588588771    -2.4017528270
   13      H      -0.6479625751     0.7338588771     0.8382471730
   14      H      -5.3389625751     0.7568588771    -0.7827528270
   15      H      -2.5179625751     0.8708588771     2.4932471730
   16      H      -4.8779625751     0.8548588771     1.6652471730
   17      H      -1.3028975751     2.2641188771    -3.2228628270
   18      H       0.4273874249     1.7459488771    -3.2717128270
   19      C       0.1770374249    -3.1671411229     0.4032471730
   20      C       1.1440374249    -2.0961411229    -0.0387528270
   21      C       1.6870374249    -1.9841411229    -1.2637528270
   22      C       1.6360374249    -0.9811411229     0.7322471730
   23      C       2.4930374249    -0.2091411229    -0.1107528270
   24      C       1.4330374249    -0.5521411229     2.0642471730
   25      C       3.1350374249     0.9538588771     0.3332471730
   26      C       2.0740374249     0.6118588771     2.5152471730
   27      C       2.9150374249     1.3598588771     1.6562471730
   28      N       2.5080374249    -0.8531411229    -1.3357528270
   29      H      -0.1569625751    -3.6971411229    -0.4937528270
   30      H      -0.6819625751    -2.6551411229     0.8412471730
   31      H       1.4320374249    -2.7361411229    -2.0017528270
   32      H       3.0330374249    -0.5421411229    -2.1477528270
   33      H       0.7900374249    -1.0941411229     2.7512471730
   34      H       3.7750374249     1.4998588771    -0.3477528270
   35      H       1.9070374249     0.9248588771     3.5412471730
   36      H       3.3930374249     2.2588588771     2.0252471730
   37      H       0.5848074249    -3.8571011229     1.1566971730
 ----------------------------------------------------------------
 Nuclear Repulsion Energy =        1231.34190680 hartrees
 There are       64 alpha and       64 beta electrons
 Requested basis set is def2-TZVPD
 There are 329 shells and 837 basis functions

 Total QAlloc Memory Limit   2000 MB
 Mega-Array Size      1956 MB
 MEM_STATIC part      2000 MB
 Discretize the solute cavity surface with Lebedev spheres
	Using 302 Lebedev grid points for each H atom
	Using 302 Lebedev grid points for other atoms
	Atomic van der Waals radii will be scaled by 1.20
 Remove points where switching function is < 1.0e-08
 Keep 3937 surface tesserae and discard 7237 interior tesserae
 Molecular Surface Area = 372.503 Angst**2
 A cutoff of  1.0D-14 yielded  46577 shell pairs
 There are    303211 function pairs (    383848 Cartesian)
 Smallest overlap matrix eigenvalue = 4.07E-07
 Linear dependence detected in AO basis
 Tighter screening thresholds may be required for diffuse basis sets
 Use S2THRESH > 14 and THRESH = 14 in case of SCF convergence issues
 Number of orthogonalized atomic orbitals = 830
 Maximum deviation from orthogonality = 2.225E-10

 Scale SEOQF with 1.000000e-02/1.000000e-01/1.000000e-01

 Standard Electronic Orientation quadrupole field applied
 Nucleus-field energy     =    -0.0000000101 hartrees

 -----------------------------------------------------------------------
  General SCF calculation program by
  Eric Jon Sundstrom, Paul Horn, Yuezhi Mao, Dmitri Zuev, Alec White,
  David Stuck, Shaama M.S., Shane Yost, Joonho Lee, David Small,
  Daniel Levine, Susi Lehtola, Hugh Burton, Evgeny Epifanovsky,
  Bang C. Huynh
 -----------------------------------------------------------------------
================================================================
                 ALMO-EDA with the EDA2 driver                  
================================================================
 The second-generation ALMO-EDA (for DFT):                      
 P. R. Horn, Y. Mao and M. Head-Gordon, PCCP, 18, 23067 (2016)  
 Decomposition of the frozen energy:                            
 P. R. Horn, Y. Mao and M. Head-Gordon, JCP, 144, 114107 (2016) 
 FERF model for polarization:                                   
 P. R. Horn and M. Head-Gordon, JCP, 143, 114111 (2015)         
Using eda2 option set 1
Option set summary: Frozen orbital wavefunction, initial wavefunction decomposition, and nDQ polarization.
--------------------------------
Printing EDA Options
--------------------------------
eda_child_super_basis      0
fragmo_guess_mode          0
child_mp                   1
child_mp_orders            232
cls_elec                   1
cls_disp                   0
scfmi_mode                 1
scfmi_occs                 0
scfmi_virts                0
frz_relax                  0
frz_relax_method           0
dc_pen_start               0
dc_pen_conv                0
dc_pen_increment           0
dc_pen_steps               0
dc_pen_thresh_factor       0
dc_pen_pre_newton_thresh   0
frz_ortho_decomp           1
frz_ortho_decomp_conv      6
frgm_method                2
scfmi_freeze_ss            0
separate_rehyb             0
plot_diff_den              0
eda_nocv                   0
eda_vct_relax              1
disp_free_x                0
disp_free_c                0
eda_bsse                   0
eda_pct_a                  0
eda_covp                   0
--------------------------------
Attempting to make child job directory: /home/meili/scratch/qchem60414//Frg1/
Attempting to make child job directory: /home/meili/scratch/qchem60414//Frg2/
Creating input file /home/meili/scratch/qchem60414/Frg1.input
using default PutDataFrgm: nothing
calling putenv with: QCSCRATCH=/home/meili/scratch/qchem60414/ 
Spawning Job For Fragment 0
                  Welcome to Q-Chem
     A Quantum Leap Into The Future Of Chemistry


 Q-Chem 5.2 (devel), Q-Chem, Inc., Pleasanton, CA (2019)

 Yihan Shao,  Zhengting Gan,  E. Epifanovsky,  A. T. B. Gilbert,  M. Wormit,  
 J. Kussmann,  A. W. Lange,  A. Behn,  Jia Deng,  Xintian Feng,  D. Ghosh,  
 M. Goldey,  P. R. Horn,  L. D. Jacobson,  I. Kaliman,  T. Kus,  A. Landau,  
 Jie Liu,  E. I. Proynov,  R. M. Richard,  R. P. Steele,  E. J. Sundstrom,  
 H. L. Woodcock III,  P. M. Zimmerman,  D. Zuev,  B. Albrecht,  E. Alguire,  
 S. A. Baeppler,  D. Barton,  Z. Benda,  Y. A. Bernard,  E. J. Berquist,  
 K. B. Bravaya,  H. Burton,  D. Casanova,  Chun-Min Chang,  Yunqing Chen,  
 A. Chien,  K. D. Closser,  M. P. Coons,  S. Coriani,  S. Dasgupta,  
 A. L. Dempwolff,  M. Diedenhofen,  Hainam Do,  R. G. Edgar,  Po-Tung Fang,  
 S. Faraji,  S. Fatehi,  Qingguo Feng,  K. D. Fenk,  J. Fosso-Tande,  
 J. Gayvert,  Qinghui Ge,  A. Ghysels,  G. Gidofalvi,  J. Gomes,  
 J. Gonthier,  A. Gunina,  D. Hait,  M. W. D. Hanson-Heine,  
 P. H. P. Harbach,  A. W. Hauser,  M. F. Herbst,  J. E. Herr,  
 E. G. Hohenstein,  Z. C. Holden,  Kerwin Hui,  B. C. Huynh,  T.-C. Jagau,  
 Hyunjun Ji,  B. Kaduk,  K. Khistyaev,  Jaehoon Kim,  P. Klunzinger,  K. Koh,  
 D. Kosenkov,  L. Koulias,  T. Kowalczyk,  C. M. Krauter,  A. Kunitsa,  
 Ka Un Lao,  A. Laurent,  K. V. Lawler,  Joonho Lee,  D. Lefrancois,  
 S. Lehtola,  D. S. Levine,  Yi-Pei Li,  You-Sheng Lin,  Fenglai Liu,  
 E. Livshits,  A. Luenser,  P. Manohar,  E. Mansoor,  S. F. Manzer,  
 Shan-Ping Mao,  Yuezhi Mao,  N. Mardirossian,  A. V. Marenich,  
 T. Markovich,  L. A. Martinez-Martinez,  S. A. Maurer,  N. J. Mayhall,  
 S. C. McKenzie,  J.-M. Mewes,  P. Morgante,  A. F. Morrison,  
 J. W. Mullinax,  K. Nanda,  T. S. Nguyen-Beck,  R. Olivares-Amaya,  
 J. A. Parkhill,  Zheng Pei,  T. M. Perrine,  F. Plasser,  P. Pokhilko,  
 S. Prager,  A. Prociuk,  E. Ramos,  D. R. Rehn,  F. Rob,  M. Scheurer,  
 M. Schneider,  N. Sergueev,  S. M. Sharada,  S. Sharma,  D. W. Small,  
 T. Stauch,  T. Stein,  Yu-Chuan Su,  A. J. W. Thom,  A. Tkatchenko,  
 T. Tsuchimochi,  N. M. Tubman,  L. Vogt,  M. L. Vidal,  O. Vydrov,  
 M. A. Watson,  J. Wenzel,  M. de Wergifosse,  T. A. Wesolowski,  A. White,  
 J. Witte,  A. Yamada,  Jun Yang,  K. Yao,  S. Yeganeh,  S. R. Yost,  
 Zhi-Qiang You,  A. Zech,  Igor Ying Zhang,  Xing Zhang,  Yan Zhao,  
 Ying Zhu,  B. R. Brooks,  G. K. L. Chan,  C. J. Cramer,  M. S. Gordon,  
 W. J. Hehre,  A. Klamt,  M. W. Schmidt,  C. D. Sherrill,  D. G. Truhlar,  
 A. Aspuru-Guzik,  R. Baer,  A. T. Bell,  N. A. Besley,  Jeng-Da Chai,  
 A. E. DePrince, III,  R. A. DiStasio Jr.,  A. Dreuw,  B. D. Dunietz,  
 T. R. Furlani,  Chao-Ping Hsu,  Yousung Jung,  Jing Kong,  D. S. Lambrecht,  
 WanZhen Liang,  C. Ochsenfeld,  V. A. Rassolov,  L. V. Slipchenko,  
 J. E. Subotnik,  T. Van Voorhis,  J. M. Herbert,  A. I. Krylov,  
 P. M. W. Gill,  M. Head-Gordon

 Contributors to earlier versions of Q-Chem not listed above: 
 R. D. Adamson,  B. Austin,  J. Baker,  G. J. O. Beran,  K. Brandhorst,  
 S. T. Brown,  E. F. C. Byrd,  A. K. Chakraborty,  C.-L. Cheng,  
 Siu Hung Chien,  D. M. Chipman,  D. L. Crittenden,  H. Dachsel,  
 R. J. Doerksen,  A. D. Dutoi,  L. Fusti-Molnar,  W. A. Goddard III,  
 A. Golubeva-Zadorozhnaya,  S. R. Gwaltney,  G. Hawkins,  A. Heyden,  
 S. Hirata,  G. Kedziora,  F. J. Keil,  C. Kelley,  Jihan Kim,  R. A. King,  
 R. Z. Khaliullin,  P. P. Korambath,  W. Kurlancheek,  A. M. Lee,  M. S. Lee,  
 S. V. Levchenko,  Ching Yeh Lin,  D. Liotard,  R. C. Lochan,  I. Lotan,  
 P. E. Maslen,  N. Nair,  D. P. O'Neill,  D. Neuhauser,  E. Neuscamman,  
 C. M. Oana,  R. Olson,  B. Peters,  R. Peverati,  P. A. Pieniazek,  
 Y. M. Rhee,  J. Ritchie,  M. A. Rohrdanz,  E. Rosta,  N. J. Russ,  
 H. F. Schaefer III,  N. E. Schultz,  N. Shenvi,  A. C. Simmonett,  A. Sodt,  
 D. Stuck,  K. S. Thanthiriwatte,  V. Vanovschi,  Tao Wang,  A. Warshel,  
 C. F. Williams,  Q. Wu,  X. Xu,  W. Zhang

 Please cite Q-Chem as follows:
 Y. Shao et al., Mol. Phys. 113, 184-215 (2015)
 DOI: 10.1080/00268976.2014.952696

 Q-Chem 5.2.1 for Intel X86 EM64T Linux

 Parts of Q-Chem use Armadillo 8.300.2 (Tropical Shenanigans).
 http://arma.sourceforge.net/

 Q-Chem begins on Tue Sep 28 23:21:25 2021  

compute-0-8.local
Host: 0

     Scratch files written to /home/meili/scratch/qchem60414//Frg1//
NAlpha2: 58
NElect   58
Mult     1
Symmetry turned off for PCM/SM12/SMD calculation

Checking the input file for inconsistencies... 	...done.

--------------------------------------------------------------
User input:
--------------------------------------------------------------
$molecule
0 1
 6	-0.7929625751	0.5908588771	-1.8987528270
 6	-0.4499625751	1.9058588771	-2.6277528270
 6	-1.9329625751	0.6838588771	-0.8917528270
 6	-3.2609625751	0.6948588771	-1.3397528270
 6	-1.6749625751	0.7428588771	0.4942471730
 6	-4.3179625751	0.7538588771	-0.4227528270
 6	-2.7309625751	0.8148588771	1.4302471730
 6	-4.0549625751	0.8118588771	0.9622471730
 1	-1.0659625751	-0.1701411229	-2.6277528270
 1	0.0870374249	0.2538588771	-1.3557528270
 1	-0.1959625751	2.6548588771	-1.8797528270
 1	-3.4689625751	0.6588588771	-2.4017528270
 1	-0.6479625751	0.7338588771	0.8382471730
 1	-5.3389625751	0.7568588771	-0.7827528270
 1	-2.5179625751	0.8708588771	2.4932471730
 1	-4.8779625751	0.8548588771	1.6652471730
 1	-1.3028975751	2.2641188771	-3.2228628270
 1	0.4273874249	1.7459488771	-3.2717128270
$end
$rem
EDA2		1
METHOD		WB97X-V
BASIS		DEF2-TZVPD
XC_GRID		000099000590
NL_GRID		1
UNRESTRICTED		FALSE
MAX_SCF_CYCLES		200
SYMMETRY		FALSE
SYM_IGNORE		TRUE
BASIS_LIN_DEP_THRESH		6
THRESH		14
SCF_CONVERGENCE		8
SCF_PRINT_FRGM		TRUE
SOLVENT_METHOD		PCM
!required keywords
JOBTYPE		SP
SYM_IGNORE		TRUE
SUBSYSTEM		TRUE
GEN_SCFMAN		TRUE
CHILD_INSTRUCTION		2
SYM_IGNORE		TRUE
SCFMI		0
RI_K 0		
PARI_K 0		
MIN_PARI_K 0		
IARI_K 0		
OCC_RI_K 0		
PURECART		1111
MEM_STATIC		2000
MEM_TOTAL		2000
GUI		0
CHILD_MP		1
CHILD_MP_ORDERS		232
FRZ_RELAX		0
FRZ_RELAX_METHOD		0
EDA_CLS_ELEC		1
EDA_CLS_DISP		0
FRZ_ORTHO_DECOMP		1
EDA2		FALSE
FRGM_METHOD		FALSE
CIS_N_ROOTS  0
LOCAL_CIS    0
CIS_RLX_DNS  1
$end
$pcm
THEORY                  CPCM
METHOD                  SWIG
SOLVER                  INVERSION
RADII                   UFF
HPOINTS                 302
HEAVYPOINTS             302
PRINTLEVEL              0
$end
$solvent
DIELECTRIC              78.390000 ! water
$end
--------------------------------------------------------------
 ----------------------------------------------------------------
             Standard Nuclear Orientation (Angstroms)
    I     Atom           X                Y                Z
 ----------------------------------------------------------------
    1      C      -0.7929625751     0.5908588771    -1.8987528270
    2      C      -0.4499625751     1.9058588771    -2.6277528270
    3      C      -1.9329625751     0.6838588771    -0.8917528270
    4      C      -3.2609625751     0.6948588771    -1.3397528270
    5      C      -1.6749625751     0.7428588771     0.4942471730
    6      C      -4.3179625751     0.7538588771    -0.4227528270
    7      C      -2.7309625751     0.8148588771     1.4302471730
    8      C      -4.0549625751     0.8118588771     0.9622471730
    9      H      -1.0659625751    -0.1701411229    -2.6277528270
   10      H       0.0870374249     0.2538588771    -1.3557528270
   11      H      -0.1959625751     2.6548588771    -1.8797528270
   12      H      -3.4689625751     0.6588588771    -2.4017528270
   13      H      -0.6479625751     0.7338588771     0.8382471730
   14      H      -5.3389625751     0.7568588771    -0.7827528270
   15      H      -2.5179625751     0.8708588771     2.4932471730
   16      H      -4.8779625751     0.8548588771     1.6652471730
   17      H      -1.3028975751     2.2641188771    -3.2228628270
   18      H       0.4273874249     1.7459488771    -3.2717128270
 ----------------------------------------------------------------
 Nuclear Repulsion Energy =         337.44741709 hartrees
 There are       29 alpha and       29 beta electrons
 Requested basis set is def2-TZVPD
 There are 154 shells and 386 basis functions

 Total QAlloc Memory Limit   2000 MB
 Mega-Array Size      1956 MB
 MEM_STATIC part      2000 MB
 Discretize the solute cavity surface with Lebedev spheres
	Using 302 Lebedev grid points for each H atom
	Using 302 Lebedev grid points for other atoms
	Atomic van der Waals radii will be scaled by 1.20
 Remove points where switching function is < 1.0e-08
 Keep 2096 surface tesserae and discard 3340 interior tesserae
 Molecular Surface Area = 203.422 Angst**2
 A cutoff of  1.0D-14 yielded  11328 shell pairs
 There are     72552 function pairs (     91931 Cartesian)
 Smallest overlap matrix eigenvalue = 6.07E-07
 Linear dependence detected in AO basis
 Tighter screening thresholds may be required for diffuse basis sets
 Use S2THRESH > 14 and THRESH = 14 in case of SCF convergence issues
 Number of orthogonalized atomic orbitals = 385
 Maximum deviation from orthogonality = 1.903E-10

 Scale SEOQF with 1.000000e-02/1.000000e-01/1.000000e-01

 Standard Electronic Orientation quadrupole field applied
 Nucleus-field energy     =    -0.0000000099 hartrees
 Guess from superposition of atomic densities
 Warning:  Energy on first SCF cycle will be non-variational
 SAD guess density has 58.000000 electrons

 -----------------------------------------------------------------------
  General SCF calculation program by
  Eric Jon Sundstrom, Paul Horn, Yuezhi Mao, Dmitri Zuev, Alec White,
  David Stuck, Shaama M.S., Shane Yost, Joonho Lee, David Small,
  Daniel Levine, Susi Lehtola, Hugh Burton, Evgeny Epifanovsky,
  Bang C. Huynh
 -----------------------------------------------------------------------
 Exchange:     0.1670 Hartree-Fock + 1.0000 wB97X-V + LR-HF
 Correlation:  1.0000 wB97X-V
 Using Euler-Maclaurin-Lebedev (99,590) quadrature formula
 Nonlocal Correlation:  VV10 with C = 0.0100 and b = 6.00 and scale = 1.00000
 Grid used for NLC:  SG-1 standard quadrature
Energy prior to optimization (guess energy) = -310.839662227467
Begin Timing: Total SCF Calculation
begin iterations for algorithm: DIIS         
the SCF tolerance is set to 1.00e-08
    1    -310.8396622275      1.61e-03     00000 
    2    -310.8784666943      9.82e-04     00000 
    3    -310.8967617916      1.26e-04     00000 
    4    -310.8972451454      3.14e-05     00000 
    5    -310.8972669744      1.55e-05     00000 
    6    -310.8972720247      3.97e-06     00000 
    7    -310.8972724548      1.38e-06     00000 
    8    -310.8972725034      3.47e-07     00000 
    9    -310.8972725079      8.76e-08     00000 
   10    -310.8972725084      5.19e-08     00000 
   11    -310.8972725085      1.74e-08     00000 
   12    -310.8972725085      6.99e-09     00000 Convergence criterion met
Timing for Total SCF: 945.00s (wall), 5344.37s (cpu)

************** Final PCM Free Energy Summary **************
 G_electrostatic  =      -0.00276628 hartree =      -1.73586420 kcal/mol
 G_cavitation     =       0.00000000 hartree =       0.00000000 kcal/mol
 G_dispersion     =       0.00000000 hartree =       0.00000000 kcal/mol
 G_repulsion      =       0.00000000 hartree =       0.00000000 kcal/mol
 --------------------------------------------------
 Non-electrostatic Free Energy =       0.00000000 hartree =       0.00000000 kcal/mol
 Total                         =      -0.00276628 hartree =      -1.73586420 kcal/mol
 --------------------------------------------------
 SCF Energy (H0 + V/2)                       =    -310.89727251 
 Solute Internal Energy (H0)                 =    -310.89450623 
 Total Free Energy (H0 + V/2 + non-elec)     =    -310.89727251 hartree
                                             = -195090.98300716 kcal/mol
***********************************************************

E_pcm = -0.0027662757
Multipole orders to be included
        2
        3
computing dipole RHS
computing quadrupole RHS
total number of RHS in solve_reponses: 8
RHS batch sizes
        8
Beginning Block Conjugate Gradient Iterations. Batch Number: 0
computing hessian-vector products by finite difference
              1      5.69e-01     00000 Conjugate Gradient Iteration
computing hessian-vector products by finite difference
              2      1.88e-01     00000 Conjugate Gradient Iteration
computing hessian-vector products by finite difference
              3      4.66e-02     00000 Conjugate Gradient Iteration
computing hessian-vector products by finite difference
              4      1.13e-02     00000 Conjugate Gradient Iteration
computing hessian-vector products by finite difference
              5      2.60e-03     00000 Conjugate Gradient Iteration
computing hessian-vector products by finite difference
              6      6.21e-04     00000 Conjugate Gradient Iteration
computing hessian-vector products by finite difference
              7      1.80e-04     00000 Conjugate Gradient Iteration
computing hessian-vector products by finite difference
              8      2.88e-05     00000 Conjugate Gradient Iteration
computing hessian-vector products by finite difference
              9      4.59e-06     00000 Conjugate Gradient Iteration
computing hessian-vector products by finite difference
             10      6.80e-07     00000 Conjugate Gradient Iteration
computing hessian-vector products by finite difference
             11      1.05e-07     00000 Conjugate Gradient Iteration
computing hessian-vector products by finite difference
             12      1.83e-08     00000 Conjugate Gradient Iteration
computing hessian-vector products by finite difference
             13      3.19e-09     00000 CG Converged
batch 0 complete
Done Calculating Responses
TESTING ORTHOGONALIZATION OF MULTIPOLE BASIS
Multipole virts passed orthogonality test
Virts Per Order
           87
          145

 --------------------------------------------------------------

                    Orbital Energies (a.u.)
 --------------------------------------------------------------

 Alpha MOs
 -- Occupied --
-10.2842 -10.2796 -10.2780 -10.2762 -10.2760 -10.2735 -10.2692 -10.2605
 -0.9921  -0.9188  -0.8766  -0.8527  -0.7580  -0.7299  -0.6969  -0.6270
 -0.5805  -0.5731  -0.5400  -0.5348  -0.5252  -0.5028  -0.4809  -0.4613
 -0.4571  -0.4372  -0.4290  -0.3479  -0.3369
 -- Virtual --
  0.0585   0.0607   0.0660   0.0809   0.0831   0.0909   0.1041   0.1086
  0.1134   0.1310   0.1567   0.1629   0.1678   0.1730   0.1839   0.1877
  0.1940   0.1979   0.2108   0.2140   0.2223   0.2303   0.2386   0.2492
  0.2616   0.2652   0.2663   0.2705   0.2752   0.2819   0.2873   0.2912
  0.2945   0.2994   0.3023   0.3080   0.3183   0.3248   0.3297   0.3327
  0.3439   0.3477   0.3487   0.3514   0.3611   0.3646   0.3693   0.3736
  0.3774   0.3848   0.3875   0.3897   0.3996   0.4063   0.4105   0.4158
  0.4203   0.4287   0.4322   0.4383   0.4407   0.4502   0.4529   0.4559
  0.4614   0.4666   0.4738   0.4780   0.4854   0.4896   0.4947   0.4968
  0.5075   0.5151   0.5177   0.5249   0.5314   0.5343   0.5378   0.5431
  0.5482   0.5540   0.5647   0.5738   0.5833   0.5860   0.5905   0.6036
  0.6104   0.6182   0.6311   0.6364   0.6474   0.6543   0.6666   0.6704
  0.6824   0.6880   0.6977   0.7054   0.7138   0.7191   0.7235   0.7273
  0.7326   0.7473   0.7535   0.7569   0.7638   0.7646   0.7783   0.7822
  0.7913   0.7931   0.7978   0.7989   0.8044   0.8113   0.8142   0.8190
  0.8269   0.8314   0.8407   0.8421   0.8452   0.8491   0.8647   0.8711
  0.8812   0.8825   0.9094   0.9113   0.9247   0.9378   0.9511   0.9676
  0.9990   1.0060   1.0121   1.0421   1.0469   1.0571   1.0741   1.0778
  1.0894   1.1019   1.1058   1.1107   1.1553   1.1699   1.1901   1.2024
  1.2157   1.2785   1.2899   1.3113   1.3309   1.3574   1.3776   1.3962
  1.4003   1.4217   1.4407   1.4489   1.4679   1.4880   1.5122   1.5214
  1.5461   1.5654   1.6172   1.6217   1.6270   1.6520   1.6771   1.7269
  1.7619   1.7747   1.7895   1.7983   1.8149   1.8298   1.8379   1.8778
  1.8944   1.9014   1.9149   1.9198   1.9266   1.9479   1.9760   1.9823
  1.9870   2.0001   2.0086   2.0266   2.0327   2.0453   2.0552   2.0763
  2.0770   2.0954   2.1347   2.1399   2.1738   2.1957   2.1987   2.2215
  2.2394   2.2704   2.2935   2.3078   2.3088   2.3755   2.3905   2.3996
  2.4228   2.4639   2.4986   2.5123   2.5357   2.5504   2.5888   2.5985
  2.6042   2.6244   2.6337   2.6558   2.6710   2.6888   2.7163   2.7311
  2.7369   2.7616   2.7766   2.7864   2.8002   2.8165   2.8358   2.8502
  2.8795   2.9011   2.9049   2.9191   2.9220   2.9358   2.9521   2.9730
  2.9799   3.0033   3.0245   3.0296   3.0334   3.0471   3.0652   3.0752
  3.0998   3.1436   3.1604   3.1929   3.2108   3.2212   3.2414   3.2582
  3.2906   3.2947   3.3097   3.3403   3.3633   3.3858   3.4006   3.4079
  3.4142   3.4239   3.4544   3.4636   3.4819   3.4853   3.4927   3.4940
  3.5032   3.5139   3.5302   3.5348   3.5424   3.5525   3.5628   3.5845
  3.6099   3.6179   3.6263   3.6630   3.6646   3.6824   3.6870   3.7104
  3.7387   3.7539   3.7822   3.8148   3.8419   3.8580   3.9080   3.9341
  3.9584   3.9705   4.0225   4.0473   4.0977   4.1133   4.1667   4.1748
  4.2030   4.2494   4.2649   4.2877   4.3046   4.3165   4.3223   4.3452
  4.3658   4.3817   4.3963   4.4159   4.4421   4.4693   4.5276   4.5629
  4.6145   4.6777   4.7132   4.7370   4.7954   4.8313   4.8949   4.9161
  4.9464   4.9882   5.0008   5.1076   5.1573   5.2854   5.3134   5.3346
  5.4819   5.5226   5.6722   5.8393  22.6272  22.6458  22.7631  22.8464
 22.8982  22.9694  23.0186  23.3693
 --------------------------------------------------------------

          Ground-State Mulliken Net Atomic Charges

     Atom                 Charge (a.u.)
  ----------------------------------------
      1 C                    -0.539386
      2 C                    -0.769682
      3 C                     0.811664
      4 C                    -0.280781
      5 C                    -0.371291
      6 C                    -0.574633
      7 C                    -0.596685
      8 C                    -0.491953
      9 H                     0.252335
     10 H                     0.259356
     11 H                     0.239919
     12 H                     0.338756
     13 H                     0.304348
     14 H                     0.320014
     15 H                     0.315288
     16 H                     0.339872
     17 H                     0.238246
     18 H                     0.204614
  ----------------------------------------
  Sum of atomic charges =     0.000000

 -----------------------------------------------------------------
                    Cartesian Multipole Moments
 -----------------------------------------------------------------
    Charge (ESU x 10^10)
                -0.0000
    Dipole Moment (Debye)
         X       0.4067      Y      -0.0138      Z      -0.3799
       Tot       0.5567
    Quadrupole Moments (Debye-Ang)
        XX     -46.5344     XY       0.1559     YY     -53.7785
        XZ       0.6662     YZ       0.3445     ZZ     -44.2163
    Octopole Moments (Debye-Ang^2)
       XXX     312.4337    XXY     -41.6654    XYY     127.8967
       YYY    -144.8631    XXZ      27.9213    XYZ      -0.6748
       YYZ      30.9979    XZZ     100.6886    YZZ     -41.6294
       ZZZ      89.2263
    Hexadecapole Moments (Debye-Ang^3)
      XXXX   -2053.8390   XXXY     240.4625   XXYY    -489.2906
      XYYY     300.3327   YYYY    -400.8060   XXXZ     -32.6147
      XXYZ      43.5596   XYYZ     -10.8559   YYYZ     129.8049
      XXZZ    -459.9430   XYZZ      78.1654   YYZZ    -201.9395
      XZZZ     -35.6101   YZZZ     130.9201   ZZZZ    -754.9717
 -----------------------------------------------------------------
Archival summary:
1\1\compute-0-8.local\SP\ProcedureUnspecified\BasisUnspecified\810\meili\WedSep2905:21:522021WedSep2905:21:522021\0\\#,ProcedureUnspecified,BasisUnspecified,\\0,1\C\C,1,1.40157\H,2,1.08278,1,119.687\C,2,1.40058,1,120.406,3,-179.914,0\H,4,1.08261,2,119.613,1,-179.705,0\C,4,1.41094,2,120.248,1,0.424447,0\H,6,1.08323,4,119.806,2,-179.851,0\C,6,1.40428,4,120.197,2,0.191764,0\H,8,1.08558,6,120.76,4,179.286,0\C,1,1.41104,2,119.136,3,179.455,0\H,10,1.08312,1,119.012,2,179.977,0\C,1,1.52391,2,119.872,3,-1.32696,0\H,12,1.08757,1,107.115,2,-160.689,0\H,12,1.08862,1,107.312,2,-44.112,0\C,12,1.54218,1,115.259,2,78.259,0\H,15,1.08859,12,108.287,1,57.9734,0\H,15,1.1,12,109.279,1,175.902,0\H,15,1.1,12,111.161,1,-61.9602,0\\\@

 Total job time:  21627.05s(wall), 125753.38s(cpu) 
 Wed Sep 29 05:21:52 2021

        *************************************************************
        *                                                           *
        *  Thank you very much for using Q-Chem.  Have a nice day.  *
        *                                                           *
        *************************************************************


Done Job For Fragment 0
calling putenv with: QCSCRATCH=/home/meili/scratch 
calling putenv with: QCTHREADS=8 
Creating input file /home/meili/scratch/qchem60414/Frg2.input
using default PutDataFrgm: nothing
calling putenv with: QCSCRATCH=/home/meili/scratch/qchem60414/ 
Spawning Job For Fragment 1
                  Welcome to Q-Chem
     A Quantum Leap Into The Future Of Chemistry


 Q-Chem 5.2 (devel), Q-Chem, Inc., Pleasanton, CA (2019)

 Yihan Shao,  Zhengting Gan,  E. Epifanovsky,  A. T. B. Gilbert,  M. Wormit,  
 J. Kussmann,  A. W. Lange,  A. Behn,  Jia Deng,  Xintian Feng,  D. Ghosh,  
 M. Goldey,  P. R. Horn,  L. D. Jacobson,  I. Kaliman,  T. Kus,  A. Landau,  
 Jie Liu,  E. I. Proynov,  R. M. Richard,  R. P. Steele,  E. J. Sundstrom,  
 H. L. Woodcock III,  P. M. Zimmerman,  D. Zuev,  B. Albrecht,  E. Alguire,  
 S. A. Baeppler,  D. Barton,  Z. Benda,  Y. A. Bernard,  E. J. Berquist,  
 K. B. Bravaya,  H. Burton,  D. Casanova,  Chun-Min Chang,  Yunqing Chen,  
 A. Chien,  K. D. Closser,  M. P. Coons,  S. Coriani,  S. Dasgupta,  
 A. L. Dempwolff,  M. Diedenhofen,  Hainam Do,  R. G. Edgar,  Po-Tung Fang,  
 S. Faraji,  S. Fatehi,  Qingguo Feng,  K. D. Fenk,  J. Fosso-Tande,  
 J. Gayvert,  Qinghui Ge,  A. Ghysels,  G. Gidofalvi,  J. Gomes,  
 J. Gonthier,  A. Gunina,  D. Hait,  M. W. D. Hanson-Heine,  
 P. H. P. Harbach,  A. W. Hauser,  M. F. Herbst,  J. E. Herr,  
 E. G. Hohenstein,  Z. C. Holden,  Kerwin Hui,  B. C. Huynh,  T.-C. Jagau,  
 Hyunjun Ji,  B. Kaduk,  K. Khistyaev,  Jaehoon Kim,  P. Klunzinger,  K. Koh,  
 D. Kosenkov,  L. Koulias,  T. Kowalczyk,  C. M. Krauter,  A. Kunitsa,  
 Ka Un Lao,  A. Laurent,  K. V. Lawler,  Joonho Lee,  D. Lefrancois,  
 S. Lehtola,  D. S. Levine,  Yi-Pei Li,  You-Sheng Lin,  Fenglai Liu,  
 E. Livshits,  A. Luenser,  P. Manohar,  E. Mansoor,  S. F. Manzer,  
 Shan-Ping Mao,  Yuezhi Mao,  N. Mardirossian,  A. V. Marenich,  
 T. Markovich,  L. A. Martinez-Martinez,  S. A. Maurer,  N. J. Mayhall,  
 S. C. McKenzie,  J.-M. Mewes,  P. Morgante,  A. F. Morrison,  
 J. W. Mullinax,  K. Nanda,  T. S. Nguyen-Beck,  R. Olivares-Amaya,  
 J. A. Parkhill,  Zheng Pei,  T. M. Perrine,  F. Plasser,  P. Pokhilko,  
 S. Prager,  A. Prociuk,  E. Ramos,  D. R. Rehn,  F. Rob,  M. Scheurer,  
 M. Schneider,  N. Sergueev,  S. M. Sharada,  S. Sharma,  D. W. Small,  
 T. Stauch,  T. Stein,  Yu-Chuan Su,  A. J. W. Thom,  A. Tkatchenko,  
 T. Tsuchimochi,  N. M. Tubman,  L. Vogt,  M. L. Vidal,  O. Vydrov,  
 M. A. Watson,  J. Wenzel,  M. de Wergifosse,  T. A. Wesolowski,  A. White,  
 J. Witte,  A. Yamada,  Jun Yang,  K. Yao,  S. Yeganeh,  S. R. Yost,  
 Zhi-Qiang You,  A. Zech,  Igor Ying Zhang,  Xing Zhang,  Yan Zhao,  
 Ying Zhu,  B. R. Brooks,  G. K. L. Chan,  C. J. Cramer,  M. S. Gordon,  
 W. J. Hehre,  A. Klamt,  M. W. Schmidt,  C. D. Sherrill,  D. G. Truhlar,  
 A. Aspuru-Guzik,  R. Baer,  A. T. Bell,  N. A. Besley,  Jeng-Da Chai,  
 A. E. DePrince, III,  R. A. DiStasio Jr.,  A. Dreuw,  B. D. Dunietz,  
 T. R. Furlani,  Chao-Ping Hsu,  Yousung Jung,  Jing Kong,  D. S. Lambrecht,  
 WanZhen Liang,  C. Ochsenfeld,  V. A. Rassolov,  L. V. Slipchenko,  
 J. E. Subotnik,  T. Van Voorhis,  J. M. Herbert,  A. I. Krylov,  
 P. M. W. Gill,  M. Head-Gordon

 Contributors to earlier versions of Q-Chem not listed above: 
 R. D. Adamson,  B. Austin,  J. Baker,  G. J. O. Beran,  K. Brandhorst,  
 S. T. Brown,  E. F. C. Byrd,  A. K. Chakraborty,  C.-L. Cheng,  
 Siu Hung Chien,  D. M. Chipman,  D. L. Crittenden,  H. Dachsel,  
 R. J. Doerksen,  A. D. Dutoi,  L. Fusti-Molnar,  W. A. Goddard III,  
 A. Golubeva-Zadorozhnaya,  S. R. Gwaltney,  G. Hawkins,  A. Heyden,  
 S. Hirata,  G. Kedziora,  F. J. Keil,  C. Kelley,  Jihan Kim,  R. A. King,  
 R. Z. Khaliullin,  P. P. Korambath,  W. Kurlancheek,  A. M. Lee,  M. S. Lee,  
 S. V. Levchenko,  Ching Yeh Lin,  D. Liotard,  R. C. Lochan,  I. Lotan,  
 P. E. Maslen,  N. Nair,  D. P. O'Neill,  D. Neuhauser,  E. Neuscamman,  
 C. M. Oana,  R. Olson,  B. Peters,  R. Peverati,  P. A. Pieniazek,  
 Y. M. Rhee,  J. Ritchie,  M. A. Rohrdanz,  E. Rosta,  N. J. Russ,  
 H. F. Schaefer III,  N. E. Schultz,  N. Shenvi,  A. C. Simmonett,  A. Sodt,  
 D. Stuck,  K. S. Thanthiriwatte,  V. Vanovschi,  Tao Wang,  A. Warshel,  
 C. F. Williams,  Q. Wu,  X. Xu,  W. Zhang

 Please cite Q-Chem as follows:
 Y. Shao et al., Mol. Phys. 113, 184-215 (2015)
 DOI: 10.1080/00268976.2014.952696

 Q-Chem 5.2.1 for Intel X86 EM64T Linux

 Parts of Q-Chem use Armadillo 8.300.2 (Tropical Shenanigans).
 http://arma.sourceforge.net/

 Q-Chem begins on Wed Sep 29 05:21:52 2021  

compute-0-8.local
Host: 0

     Scratch files written to /home/meili/scratch/qchem60414//Frg2//
NAlpha2: 70
NElect   70
Mult     1
Symmetry turned off for PCM/SM12/SMD calculation

Checking the input file for inconsistencies... 	...done.

--------------------------------------------------------------
User input:
--------------------------------------------------------------
$molecule
0 1
 6	0.1770374249	-3.1671411229	0.4032471730
 6	1.1440374249	-2.0961411229	-0.0387528270
 6	1.6870374249	-1.9841411229	-1.2637528270
 6	1.6360374249	-0.9811411229	0.7322471730
 6	2.4930374249	-0.2091411229	-0.1107528270
 6	1.4330374249	-0.5521411229	2.0642471730
 6	3.1350374249	0.9538588771	0.3332471730
 6	2.0740374249	0.6118588771	2.5152471730
 6	2.9150374249	1.3598588771	1.6562471730
 7	2.5080374249	-0.8531411229	-1.3357528270
 1	-0.1569625751	-3.6971411229	-0.4937528270
 1	-0.6819625751	-2.6551411229	0.8412471730
 1	1.4320374249	-2.7361411229	-2.0017528270
 1	3.0330374249	-0.5421411229	-2.1477528270
 1	0.7900374249	-1.0941411229	2.7512471730
 1	3.7750374249	1.4998588771	-0.3477528270
 1	1.9070374249	0.9248588771	3.5412471730
 1	3.3930374249	2.2588588771	2.0252471730
 1	0.5848074249	-3.8571011229	1.1566971730
$end
$rem
EDA2		1
METHOD		WB97X-V
BASIS		DEF2-TZVPD
XC_GRID		000099000590
NL_GRID		1
UNRESTRICTED		FALSE
MAX_SCF_CYCLES		200
SYMMETRY		FALSE
SYM_IGNORE		TRUE
BASIS_LIN_DEP_THRESH		6
THRESH		14
SCF_CONVERGENCE		8
SCF_PRINT_FRGM		TRUE
SOLVENT_METHOD		PCM
!required keywords
JOBTYPE		SP
SYM_IGNORE		TRUE
SUBSYSTEM		TRUE
GEN_SCFMAN		TRUE
CHILD_INSTRUCTION		2
SYM_IGNORE		TRUE
SCFMI		0
RI_K 0		
PARI_K 0		
MIN_PARI_K 0		
IARI_K 0		
OCC_RI_K 0		
PURECART		1111
MEM_STATIC		2000
MEM_TOTAL		2000
GUI		0
CHILD_MP		1
CHILD_MP_ORDERS		232
FRZ_RELAX		0
FRZ_RELAX_METHOD		0
EDA_CLS_ELEC		1
EDA_CLS_DISP		0
FRZ_ORTHO_DECOMP		1
EDA2		FALSE
FRGM_METHOD		FALSE
CIS_N_ROOTS  0
LOCAL_CIS    0
CIS_RLX_DNS  1
$end
$pcm
THEORY                  CPCM
METHOD                  SWIG
SOLVER                  INVERSION
RADII                   UFF
HPOINTS                 302
HEAVYPOINTS             302
PRINTLEVEL              0
$end
$solvent
DIELECTRIC              78.390000 ! water
$end
--------------------------------------------------------------
 ----------------------------------------------------------------
             Standard Nuclear Orientation (Angstroms)
    I     Atom           X                Y                Z
 ----------------------------------------------------------------
    1      C       0.1770374249    -3.1671411229     0.4032471730
    2      C       1.1440374249    -2.0961411229    -0.0387528270
    3      C       1.6870374249    -1.9841411229    -1.2637528270
    4      C       1.6360374249    -0.9811411229     0.7322471730
    5      C       2.4930374249    -0.2091411229    -0.1107528270
    6      C       1.4330374249    -0.5521411229     2.0642471730
    7      C       3.1350374249     0.9538588771     0.3332471730
    8      C       2.0740374249     0.6118588771     2.5152471730
    9      C       2.9150374249     1.3598588771     1.6562471730
   10      N       2.5080374249    -0.8531411229    -1.3357528270
   11      H      -0.1569625751    -3.6971411229    -0.4937528270
   12      H      -0.6819625751    -2.6551411229     0.8412471730
   13      H       1.4320374249    -2.7361411229    -2.0017528270
   14      H       3.0330374249    -0.5421411229    -2.1477528270
   15      H       0.7900374249    -1.0941411229     2.7512471730
   16      H       3.7750374249     1.4998588771    -0.3477528270
   17      H       1.9070374249     0.9248588771     3.5412471730
   18      H       3.3930374249     2.2588588771     2.0252471730
   19      H       0.5848074249    -3.8571011229     1.1566971730
 ----------------------------------------------------------------
 Nuclear Repulsion Energy =         481.77175591 hartrees
 There are       35 alpha and       35 beta electrons
 Requested basis set is def2-TZVPD
 There are 175 shells and 451 basis functions

 Total QAlloc Memory Limit   2000 MB
 Mega-Array Size      1956 MB
 MEM_STATIC part      2000 MB
 Discretize the solute cavity surface with Lebedev spheres
	Using 302 Lebedev grid points for each H atom
	Using 302 Lebedev grid points for other atoms
	Atomic van der Waals radii will be scaled by 1.20
 Remove points where switching function is < 1.0e-08
 Keep 2174 surface tesserae and discard 3564 interior tesserae
 Molecular Surface Area = 216.642 Angst**2
 A cutoff of  1.0D-14 yielded  14453 shell pairs
 There are     98149 function pairs (    126287 Cartesian)
 Smallest overlap matrix eigenvalue = 5.75E-07
 Linear dependence detected in AO basis
 Tighter screening thresholds may be required for diffuse basis sets
 Use S2THRESH > 14 and THRESH = 14 in case of SCF convergence issues
 Number of orthogonalized atomic orbitals = 448
 Maximum deviation from orthogonality = 1.209E-10

 Scale SEOQF with 1.000000e-01/1.000000e-01/1.000000e-01

 Standard Electronic Orientation quadrupole field applied
 Nucleus-field energy     =     0.0000000098 hartrees
 Guess from superposition of atomic densities
 Warning:  Energy on first SCF cycle will be non-variational
 SAD guess density has 70.000000 electrons

 -----------------------------------------------------------------------
  General SCF calculation program by
  Eric Jon Sundstrom, Paul Horn, Yuezhi Mao, Dmitri Zuev, Alec White,
  David Stuck, Shaama M.S., Shane Yost, Joonho Lee, David Small,
  Daniel Levine, Susi Lehtola, Hugh Burton, Evgeny Epifanovsky,
  Bang C. Huynh
 -----------------------------------------------------------------------
 Exchange:     0.1670 Hartree-Fock + 1.0000 wB97X-V + LR-HF
 Correlation:  1.0000 wB97X-V
 Using Euler-Maclaurin-Lebedev (99,590) quadrature formula
 Nonlocal Correlation:  VV10 with C = 0.0100 and b = 6.00 and scale = 1.00000
 Grid used for NLC:  SG-1 standard quadrature
Energy prior to optimization (guess energy) = -403.079387292681
Begin Timing: Total SCF Calculation
begin iterations for algorithm: DIIS         
the SCF tolerance is set to 1.00e-08
    1    -403.0793872927      1.63e-03     00000 
    2    -403.1269167543      1.17e-03     00000 
    3    -403.1621514818      2.55e-04     00000 
    4    -403.1636584900      1.19e-04     00000 
    5    -403.1640201584      2.40e-05     00000 
    6    -403.1640389134      9.49e-06     00000 
    7    -403.1640414516      2.85e-06     00000 
    8    -403.1640418853      7.02e-07     00000 
    9    -403.1640419354      3.51e-07     00000 
   10    -403.1640419476      1.68e-07     00000 
   11    -403.1640419513      6.09e-08     00000 
   12    -403.1640419518      2.95e-08     00000 
   13    -403.1640419519      8.95e-09     00000 Convergence criterion met
Timing for Total SCF: 1791.00s (wall), 10610.18s (cpu)

************** Final PCM Free Energy Summary **************
 G_electrostatic  =      -0.00636713 hartree =      -3.99543670 kcal/mol
 G_cavitation     =       0.00000000 hartree =       0.00000000 kcal/mol
 G_dispersion     =       0.00000000 hartree =       0.00000000 kcal/mol
 G_repulsion      =       0.00000000 hartree =       0.00000000 kcal/mol
 --------------------------------------------------
 Non-electrostatic Free Energy =       0.00000000 hartree =       0.00000000 kcal/mol
 Total                         =      -0.00636713 hartree =      -3.99543670 kcal/mol
 --------------------------------------------------
 SCF Energy (H0 + V/2)                       =    -403.16404195 
 Solute Internal Energy (H0)                 =    -403.15767482 
 Total Free Energy (H0 + V/2 + non-elec)     =    -403.16404195 hartree
                                             = -252989.25469148 kcal/mol
***********************************************************

E_pcm = -0.0063671337
Multipole orders to be included
        2
        3
computing dipole RHS
computing quadrupole RHS
total number of RHS in solve_reponses: 8
RHS batch sizes
        8
Beginning Block Conjugate Gradient Iterations. Batch Number: 0
computing hessian-vector products by finite difference
              1      6.26e-01     00000 Conjugate Gradient Iteration
computing hessian-vector products by finite difference
              2      2.11e-01     00000 Conjugate Gradient Iteration
computing hessian-vector products by finite difference
              3      6.07e-02     00000 Conjugate Gradient Iteration
computing hessian-vector products by finite difference
              4      2.44e-02     00000 Conjugate Gradient Iteration
computing hessian-vector products by finite difference
              5      9.20e-03     00000 Conjugate Gradient Iteration
computing hessian-vector products by finite difference
              6      2.39e-03     00000 Conjugate Gradient Iteration
computing hessian-vector products by finite difference
              7      6.36e-04     00000 Conjugate Gradient Iteration
computing hessian-vector products by finite difference
              8      1.44e-04     00000 Conjugate Gradient Iteration
computing hessian-vector products by finite difference
              9      2.69e-05     00000 Conjugate Gradient Iteration
computing hessian-vector products by finite difference
             10      4.82e-06     00000 Conjugate Gradient Iteration
computing hessian-vector products by finite difference
             11      8.50e-07     00000 Conjugate Gradient Iteration
computing hessian-vector products by finite difference
             12      1.77e-07     00000 Conjugate Gradient Iteration
computing hessian-vector products by finite difference
             13      5.24e-08     00000 Conjugate Gradient Iteration
computing hessian-vector products by finite difference
             14      9.02e-09     00000 CG Converged
batch 0 complete
Done Calculating Responses
TESTING ORTHOGONALIZATION OF MULTIPOLE BASIS
Multipole virts passed orthogonality test
Virts Per Order
          105
          175

 --------------------------------------------------------------

                    Orbital Energies (a.u.)
 --------------------------------------------------------------

 Alpha MOs
 -- Occupied --
-14.4526 -10.3083 -10.2972 -10.2776 -10.2757 -10.2755 -10.2712 -10.2692
-10.2656 -10.2624  -1.1087  -0.9738  -0.9330  -0.8674  -0.8601  -0.8183
 -0.7432  -0.7165  -0.6744  -0.6507  -0.6048  -0.5799  -0.5521  -0.5484
 -0.5397  -0.5150  -0.5122  -0.4937  -0.4846  -0.4536  -0.4496  -0.4337
 -0.3783  -0.3155  -0.2960
 -- Virtual --
  0.0508   0.0596   0.0745   0.0764   0.0863   0.0965   0.0984   0.1052
  0.1264   0.1318   0.1357   0.1458   0.1550   0.1630   0.1676   0.1761
  0.1865   0.1911   0.2001   0.2052   0.2095   0.2149   0.2231   0.2424
  0.2454   0.2535   0.2566   0.2622   0.2634   0.2675   0.2731   0.2750
  0.2791   0.2826   0.2847   0.2880   0.2995   0.3044   0.3119   0.3160
  0.3265   0.3302   0.3315   0.3342   0.3401   0.3414   0.3439   0.3498
  0.3518   0.3548   0.3664   0.3710   0.3739   0.3833   0.3878   0.3912
  0.4012   0.4047   0.4094   0.4106   0.4117   0.4180   0.4218   0.4321
  0.4341   0.4422   0.4459   0.4516   0.4550   0.4616   0.4653   0.4728
  0.4837   0.4869   0.4932   0.4952   0.4995   0.5066   0.5173   0.5196
  0.5261   0.5353   0.5386   0.5414   0.5460   0.5499   0.5537   0.5604
  0.5659   0.5755   0.5774   0.5894   0.6014   0.6070   0.6136   0.6193
  0.6327   0.6368   0.6416   0.6445   0.6512   0.6597   0.6757   0.6803
  0.6872   0.6924   0.6934   0.6993   0.7049   0.7143   0.7225   0.7283
  0.7346   0.7417   0.7482   0.7554   0.7577   0.7662   0.7696   0.7725
  0.7737   0.7774   0.7822   0.7836   0.7935   0.7995   0.8038   0.8091
  0.8128   0.8193   0.8271   0.8296   0.8348   0.8428   0.8493   0.8531
  0.8570   0.8632   0.8722   0.8924   0.9007   0.9036   0.9126   0.9290
  0.9458   0.9522   0.9709   0.9813   0.9912   1.0055   1.0100   1.0109
  1.0308   1.0407   1.0511   1.0604   1.0666   1.0703   1.0908   1.0980
  1.1138   1.1270   1.1336   1.1459   1.1682   1.1801   1.1948   1.2042
  1.2456   1.2492   1.2604   1.2700   1.2892   1.3035   1.3212   1.3400
  1.3685   1.3775   1.3856   1.4029   1.4208   1.4353   1.4482   1.4754
  1.5066   1.5217   1.5453   1.5628   1.5836   1.5973   1.6044   1.6220
  1.6412   1.6505   1.6866   1.7014   1.7072   1.7150   1.7473   1.7543
  1.7823   1.8064   1.8387   1.8447   1.8510   1.8559   1.8749   1.8811
  1.8910   1.9198   1.9249   1.9337   1.9464   1.9614   1.9699   1.9872
  1.9917   1.9941   2.0033   2.0206   2.0265   2.0559   2.0654   2.0753
  2.0885   2.1097   2.1130   2.1665   2.1772   2.1859   2.1977   2.2123
  2.2556   2.2930   2.2998   2.3032   2.3274   2.3366   2.3552   2.3925
  2.3979   2.4199   2.4442   2.4648   2.4735   2.4899   2.5008   2.5213
  2.5497   2.5725   2.5897   2.5934   2.6043   2.6281   2.6619   2.6707
  2.6904   2.7113   2.7243   2.7428   2.7597   2.7617   2.7808   2.7999
  2.8076   2.8279   2.8345   2.8507   2.8648   2.8735   2.8990   2.9063
  2.9164   2.9314   2.9477   2.9564   2.9878   2.9960   3.0141   3.0264
  3.0326   3.0523   3.0731   3.0846   3.1076   3.1155   3.1210   3.1327
  3.1715   3.1815   3.1986   3.2106   3.2274   3.2457   3.2538   3.2666
  3.2926   3.3092   3.3117   3.3275   3.3379   3.3630   3.3638   3.3775
  3.3954   3.4103   3.4213   3.4337   3.4414   3.4528   3.4661   3.4682
  3.4752   3.4947   3.5037   3.5041   3.5203   3.5238   3.5425   3.5673
  3.5775   3.5840   3.6021   3.6200   3.6322   3.6458   3.6543   3.6604
  3.6867   3.6944   3.7056   3.7175   3.7374   3.7448   3.7548   3.7693
  3.8104   3.8550   3.8890   3.8949   3.9050   3.9436   3.9605   4.0121
  4.0247   4.0351   4.0950   4.1328   4.1548   4.1756   4.1985   4.2145
  4.2386   4.2524   4.2566   4.2844   4.2877   4.3270   4.3402   4.3571
  4.3669   4.4070   4.4228   4.4593   4.4628   4.4941   4.5145   4.5704
  4.5981   4.6255   4.6459   4.7236   4.7561   4.7987   4.8229   4.8952
  4.9259   4.9316   4.9555   4.9708   4.9830   5.0389   5.0462   5.0928
  5.1159   5.1472   5.1754   5.1885   5.2307   5.3673   5.3825   5.4306
  5.4624   5.5158   5.5673   5.6115   5.7025   5.7976   5.8230   5.9370
  5.9502   6.2399   6.3230  22.6253  22.7354  22.8817  22.8987  22.9220
 23.1265  23.2222  23.4507  23.7239  32.8352
 --------------------------------------------------------------

          Ground-State Mulliken Net Atomic Charges

     Atom                 Charge (a.u.)
  ----------------------------------------
      1 C                    -0.981798
      2 C                     0.620603
      3 C                    -0.592796
      4 C                     0.478475
      5 C                    -0.010503
      6 C                    -0.433024
      7 C                    -0.721142
      8 C                    -0.623364
      9 C                    -0.414625
     10 N                     0.134320
     11 H                     0.264393
     12 H                     0.245129
     13 H                     0.241715
     14 H                     0.181338
     15 H                     0.355617
     16 H                     0.343321
     17 H                     0.335827
     18 H                     0.351580
     19 H                     0.224933
  ----------------------------------------
  Sum of atomic charges =     0.000000

 -----------------------------------------------------------------
                    Cartesian Multipole Moments
 -----------------------------------------------------------------
    Charge (ESU x 10^10)
                -0.0000
    Dipole Moment (Debye)
         X       0.4462      Y      -0.5419      Z      -2.4050
       Tot       2.5054
    Quadrupole Moments (Debye-Ang)
        XX     -57.7076     XY       3.9205     YY     -56.1231
        XZ      -9.1603     YZ       2.6537     ZZ     -52.1092
    Octopole Moments (Debye-Ang^2)
       XXX    -330.4028    XXY      62.3069    XYY    -108.7522
       YYY     122.8637    XXZ     -62.6660    XYZ       8.3049
       YYZ     -34.0228    XZZ     -96.8092    YZZ      38.9090
       ZZZ     -97.4493
    Hexadecapole Moments (Debye-Ang^3)
      XXXX   -1643.5471   XXXY      95.0312   XXYY    -441.1275
      XYYY      45.8627   YYYY   -1011.7710   XXXZ    -279.1994
      XXYZ      -7.9868   XYYZ     -51.0618   YYYZ     -66.7907
      XXZZ    -369.6525   XYZZ      14.5728   YYZZ    -272.9992
      XZZZ    -209.6977   YZZZ     -59.4490   ZZZZ    -700.0216
 -----------------------------------------------------------------
Archival summary:
1\1\compute-0-8.local\SP\ProcedureUnspecified\BasisUnspecified\199\meili\WedSep2915:15:322021WedSep2915:15:322021\0\\#,ProcedureUnspecified,BasisUnspecified,\\0,1\C\C,1,1.41403\H,2,1.0859,1,121.974\C,2,1.40327,1,119.264,3,-179.68,0\H,4,1.0856,2,118.205,1,-179.929,0\C,4,1.41586,2,120.968,1,0.139385,0\H,6,1.08298,4,119.604,2,179.554,0\C,6,1.40127,4,120.864,2,-0.306234,0\H,8,1.08235,6,122.732,4,-179.718,0\C,8,1.40067,6,117.898,4,0.262876,0\N,10,1.38405,8,131.448,6,179.922,0\H,11,1.01572,10,124.799,8,0.061252,0\C,11,1.39942,10,108.915,8,-179.795,0\H,13,1.08405,11,131.576,10,179.524,0\C,13,1.34463,11,110.555,10,-0.0868922,0\C,15,1.50914,13,125.782,11,178.25,0\H,16,1.09173,15,106.789,13,-127.732,0\H,16,1.0941,15,107.414,13,-11.5993,0\H,16,1.1,15,114.093,13,112.875,0\\\@

 Total job time:  35619.15s(wall), 212710.24s(cpu) 
 Wed Sep 29 15:15:32 2021

        *************************************************************
        *                                                           *
        *  Thank you very much for using Q-Chem.  Have a nice day.  *
        *                                                           *
        *************************************************************


Done Job For Fragment 1
calling putenv with: QCSCRATCH=/home/meili/scratch 
calling putenv with: QCTHREADS=8 
Doing General SCFMI
 Exchange:     0.1670 Hartree-Fock + 1.0000 wB97X-V + LR-HF
 Correlation:  1.0000 wB97X-V
 Using Euler-Maclaurin-Lebedev (99,590) quadrature formula
 Nonlocal Correlation:  VV10 with C = 0.0100 and b = 6.00 and scale = 1.00000
 Grid used for NLC:  SG-1 standard quadrature
performing fock build before subrot guess so that all methods have access
Printing subrot_rss_gen Method Specification:
Occupied Subspace Method is 0
Virtual Subspace Method is 0
Energy of the unrelaxed supersystem initial determinant -714.058125728841
performing fock build before subrot guess so that all methods have access
Printing subrot_rss_gen Method Specification:
Occupied Subspace Method is 0
Virtual Subspace Method is 0
Energy of the unrelaxed supersystem initial determinant w/ solvent -714.066443779282
write pseudocanon occs and virts to disk
write pseudocanon orbital energies to disk
Tolerance of ortho_decomp_scf: 1.00e-06
GDM subspace size: 20
Beginning the Orthogonal Decomposition of the Initial Supersystem Wavefunction
    1    -714.0265117818      1.87e-02     ortho_decomp Preconditoned Steepest Descent
    2    -714.0289838163      4.77e-04     ortho_decomp BFGS Step
    3    -714.0289919629      3.72e-05     ortho_decomp BFGS Step
    4    -714.0289919785      1.50e-06     ortho_decomp BFGS Step
    5    -714.0289919785      4.45e-08     ortho_decomp 00000 Convergence criterion met
 Hartree-Fock
 Hartree-Fock
 Hartree-Fock
Doing General SCFMI
 Exchange:     0.1670 Hartree-Fock + 1.0000 wB97X-V + LR-HF
 Correlation:  1.0000 wB97X-V
 Using Euler-Maclaurin-Lebedev (99,590) quadrature formula
 Nonlocal Correlation:  VV10 with C = 0.0100 and b = 6.00 and scale = 1.00000
 Grid used for NLC:  SG-1 standard quadrature
performing fock build at end of subrot_r(subrot) constructor so that all methods have access
<S^2> of initial wavefunction before polarization iterations 0.0000000000
Beginning iterations for the determination of the polarized wavefunction
Energy prior to optimization (guess energy) = -714.066443779281
Begin Timing: Total SCF Calculation
begin iterations for algorithm: DIIS         
the SCF tolerance is set to 1.00e-08
    1    -714.0664437793      5.10e-05     00000 
    2    -714.0668802363      2.15e-05     00000 
    3    -714.0669256477      1.24e-05     00000 
    4    -714.0669429511      3.69e-06     00000 
    5    -714.0669448071      1.90e-06     00000 
    6    -714.0669453401      1.06e-06     00000 
    7    -714.0669454705      6.58e-07     00000 
    8    -714.0669455070      4.38e-07     00000 
    9    -714.0669455212      2.45e-07     00000 
   10    -714.0669455253      1.35e-07     00000 
   11    -714.0669455269      6.44e-08     00000 
   12    -714.0669455275      3.25e-08     00000 
   13    -714.0669455278      1.69e-08     00000 
   14    -714.0669455278      7.22e-09     00000 Convergence criterion met
write pseudocanon occs and virts to disk
write pseudocanon orbital energies to disk
Timing for Total SCF: 14864.00s (wall), 93935.82s (cpu)
<S^2> of polarized wavefunction after polarization iterations 0.0000000000
relaxing scfmi constraint to allow all rotations in the entire AO span
Doing General SCFMI
 Exchange:     0.1670 Hartree-Fock + 1.0000 wB97X-V + LR-HF
 Correlation:  1.0000 wB97X-V
 Using Euler-Maclaurin-Lebedev (99,590) quadrature formula
 Nonlocal Correlation:  VV10 with C = 0.0100 and b = 6.00 and scale = 1.00000
 Grid used for NLC:  SG-1 standard quadrature
performing fock build at end of subrot_r(subrot) constructor so that all methods have access
<S^2> of polarized wavefunction before ct-allowed iterations 0.0000000000
Beginning iterations for the determination of the CT-Allowed wavefunction
Energy prior to optimization (guess energy) = -714.066945527817
Begin Timing: Total SCF Calculation
begin iterations for algorithm: DIIS         
the SCF tolerance is set to 1.00e-08
    1    -714.0669455278      6.49e-05     00000 
    2    -714.0683310262      6.51e-06     00000 
    3    -714.0683688630      1.19e-06     00000 
    4    -714.0683699790      7.63e-07     00000 
    5    -714.0683701936      1.35e-07     00000 
    6    -714.0683702049      6.57e-08     00000 
    7    -714.0683702069      1.21e-08     00000 
    8    -714.0683702071      6.31e-09     00000 Convergence criterion met
write pseudocanon occs and virts to disk
write pseudocanon orbital energies to disk
Timing for Total SCF: 9310.00s (wall), 56181.62s (cpu)
<S^2> of ct_allowed wavefunction after ct-allowed iterations 0.0000000000

================================
        Results of EDA2         
================================
Basic EDA Quantities
--------------------
Fragment Energies (Ha):
1 -310.8972725085
2 -403.1640419519
--------------------
  E_prp (kJ/mol) = 0.0000
  E_sol (kJ/mol) = 2.1408
  E_frz (kJ/mol) = -15.6079
  E_pol (kJ/mol) = -1.3174
  E_vct (kJ/mol) = -3.7405
  E_int (kJ/mol) = -18.5251
--------------------


Initial Wavefunction Decomposition
--------------------
  --------------------
  Orthogonal Fragment Subspace Decomposition:
  --------------------
     E_elec   (ELEC)   (kJ/mol) = -32.0983
     E_pauli  (PAULI)  (kJ/mol) = 46.2714
     E_disp   (DISP)   (kJ/mol) = -29.7810
     --------------------
     Terms summing to E_pauli:
     --------------------
        E_kep_pauli       (kJ/mol) = 60.8836
        E_disp_free_pauli (kJ/mol) = -14.6123
  --------------------
  Classical Frozen Decomposition:
  --------------------
     E_cls_elec  (CLS ELEC)  (kJ/mol) = -13.7116
     E_cls_pauli (CLS PAULI) (kJ/mol) = -1.8963
    [E_mod_pauli (MOD PAULI) (kJ/mol) = 27.8846 (CLS PAULI - DISP from orthogonal decomposition) ]
  --------------------
--------------------

Simplified EDA Summary (kJ/mol)
--------------------
 PREPARATION     0.0000
 SOLVATION       2.1408
 FROZEN          14.1730      (does not include dispersion)
[PAULI           46.2714]     (if this is negligible, then frozen describes electrostatics)
 DISPERSION      -29.7810
 POLARIZATION    -1.3174
 CHARGE TRANSFER -3.7405
 TOTAL           -18.5251     (PRP + SOL + FRZ + DISP + POL + CT)
--------------------

 --------------------------------------------------------------

                    Orbital Energies (a.u.)
 --------------------------------------------------------------

 Alpha MOs
 -- Occupied --
-14.4538 -10.3097 -10.2979 -10.2813 -10.2791 -10.2777 -10.2769 -10.2767
-10.2763 -10.2747 -10.2722 -10.2719 -10.2716 -10.2706 -10.2657 -10.2640
-10.2631 -10.2587  -1.1101  -0.9898  -0.9752  -0.9338  -0.9158  -0.8744
 -0.8686  -0.8612  -0.8504  -0.8188  -0.7553  -0.7443  -0.7276  -0.7175
 -0.6946  -0.6754  -0.6517  -0.6248  -0.6058  -0.5810  -0.5798  -0.5724
 -0.5525  -0.5494  -0.5409  -0.5378  -0.5316  -0.5233  -0.5156  -0.5124
 -0.5002  -0.4941  -0.4854  -0.4792  -0.4617  -0.4554  -0.4545  -0.4454
 -0.4347  -0.4332  -0.4258  -0.3787  -0.3458  -0.3348  -0.3170  -0.2970
 -- Virtual --
  0.0469   0.0547   0.0616   0.0629   0.0679   0.0715   0.0730   0.0850
  0.0875   0.0903   0.0923   0.0961   0.1027   0.1084   0.1112   0.1167
  0.1247   0.1249   0.1284   0.1366   0.1428   0.1503   0.1511   0.1579
  0.1643   0.1682   0.1734   0.1769   0.1806   0.1865   0.1872   0.1935
  0.1950   0.2060   0.2072   0.2093   0.2169   0.2179   0.2202   0.2269
  0.2282   0.2359   0.2419   0.2421   0.2479   0.2523   0.2547   0.2584
  0.2605   0.2630   0.2650   0.2693   0.2704   0.2749   0.2772   0.2784
  0.2808   0.2839   0.2868   0.2902   0.2942   0.2968   0.2992   0.3008
  0.3014   0.3061   0.3110   0.3131   0.3149   0.3180   0.3199   0.3243
  0.3271   0.3324   0.3342   0.3349   0.3365   0.3384   0.3418   0.3461
  0.3490   0.3514   0.3537   0.3561   0.3588   0.3624   0.3658   0.3701
  0.3715   0.3739   0.3776   0.3802   0.3808   0.3826   0.3868   0.3885
  0.3891   0.3931   0.3964   0.3978   0.4006   0.4033   0.4086   0.4120
  0.4158   0.4169   0.4200   0.4254   0.4260   0.4271   0.4294   0.4316
  0.4342   0.4360   0.4401   0.4426   0.4498   0.4501   0.4517   0.4536
  0.4564   0.4595   0.4619   0.4663   0.4688   0.4712   0.4722   0.4761
  0.4855   0.4868   0.4911   0.4918   0.4953   0.4971   0.5014   0.5052
  0.5086   0.5101   0.5126   0.5146   0.5196   0.5220   0.5265   0.5312
  0.5343   0.5350   0.5375   0.5454   0.5467   0.5508   0.5536   0.5568
  0.5587   0.5621   0.5645   0.5674   0.5715   0.5764   0.5777   0.5845
  0.5867   0.5894   0.5977   0.6015   0.6080   0.6087   0.6113   0.6138
  0.6160   0.6186   0.6224   0.6271   0.6311   0.6359   0.6412   0.6436
  0.6456   0.6511   0.6537   0.6545   0.6581   0.6595   0.6643   0.6694
  0.6745   0.6781   0.6825   0.6845   0.6872   0.6889   0.6985   0.6998
  0.7031   0.7032   0.7064   0.7126   0.7164   0.7202   0.7208   0.7273
  0.7329   0.7338   0.7374   0.7448   0.7459   0.7465   0.7491   0.7546
  0.7569   0.7595   0.7634   0.7672   0.7696   0.7736   0.7771   0.7781
  0.7806   0.7834   0.7838   0.7885   0.7903   0.7967   0.8000   0.8032
  0.8083   0.8114   0.8122   0.8126   0.8184   0.8201   0.8217   0.8252
  0.8265   0.8303   0.8347   0.8377   0.8410   0.8428   0.8454   0.8482
  0.8509   0.8562   0.8602   0.8631   0.8667   0.8725   0.8736   0.8782
  0.8833   0.8844   0.8931   0.8951   0.8984   0.9028   0.9076   0.9141
  0.9159   0.9225   0.9299   0.9306   0.9336   0.9434   0.9460   0.9537
  0.9601   0.9634   0.9707   0.9749   0.9783   0.9800   0.9822   0.9902
  0.9957   1.0019   1.0058   1.0132   1.0171   1.0300   1.0314   1.0371
  1.0427   1.0506   1.0574   1.0647   1.0740   1.0761   1.0837   1.0895
  1.0922   1.0996   1.1063   1.1074   1.1211   1.1224   1.1273   1.1288
  1.1313   1.1480   1.1595   1.1671   1.1709   1.1769   1.1861   1.1904
  1.2085   1.2128   1.2195   1.2242   1.2324   1.2399   1.2452   1.2605
  1.2636   1.2778   1.2792   1.2822   1.2994   1.3026   1.3146   1.3195
  1.3270   1.3347   1.3427   1.3516   1.3622   1.3780   1.3816   1.3931
  1.3962   1.4072   1.4136   1.4229   1.4246   1.4372   1.4444   1.4490
  1.4516   1.4577   1.4610   1.4754   1.4773   1.4871   1.4998   1.5006
  1.5068   1.5333   1.5397   1.5444   1.5580   1.5589   1.5628   1.5707
  1.5858   1.6104   1.6159   1.6190   1.6349   1.6396   1.6499   1.6545
  1.6620   1.6663   1.6744   1.6867   1.6997   1.7019   1.7204   1.7288
  1.7457   1.7507   1.7685   1.7818   1.7977   1.8070   1.8139   1.8241
  1.8296   1.8368   1.8467   1.8505   1.8686   1.8721   1.8827   1.8847
  1.8913   1.9029   1.9163   1.9294   1.9353   1.9431   1.9497   1.9544
  1.9588   1.9637   1.9656   1.9803   1.9866   1.9899   1.9971   2.0028
  2.0073   2.0134   2.0199   2.0249   2.0353   2.0362   2.0452   2.0526
  2.0611   2.0704   2.0772   2.0813   2.0867   2.1000   2.1024   2.1043
  2.1271   2.1303   2.1348   2.1429   2.1542   2.1575   2.1618   2.1715
  2.1825   2.1915   2.1977   2.2042   2.2047   2.2235   2.2263   2.2424
  2.2493   2.2631   2.2735   2.2829   2.3011   2.3104   2.3200   2.3211
  2.3300   2.3461   2.3493   2.3537   2.3652   2.3730   2.3745   2.3918
  2.4033   2.4088   2.4181   2.4298   2.4457   2.4585   2.4657   2.4761
  2.4868   2.5005   2.5052   2.5094   2.5214   2.5286   2.5457   2.5539
  2.5715   2.5883   2.5889   2.6065   2.6121   2.6169   2.6223   2.6306
  2.6349   2.6403   2.6499   2.6561   2.6652   2.6922   2.6996   2.7045
  2.7200   2.7274   2.7320   2.7384   2.7441   2.7505   2.7556   2.7681
  2.7713   2.7784   2.7832   2.7945   2.8003   2.8066   2.8159   2.8239
  2.8334   2.8391   2.8495   2.8542   2.8657   2.8752   2.8798   2.8910
  2.8973   2.9102   2.9152   2.9226   2.9275   2.9308   2.9339   2.9397
  2.9510   2.9567   2.9596   2.9676   2.9735   2.9834   2.9988   3.0015
  3.0047   3.0146   3.0231   3.0268   3.0346   3.0416   3.0434   3.0497
  3.0539   3.0636   3.0738   3.0807   3.0962   3.0986   3.1044   3.1159
  3.1221   3.1393   3.1520   3.1602   3.1758   3.1802   3.1907   3.2024
  3.2065   3.2145   3.2357   3.2384   3.2472   3.2626   3.2688   3.2717
  3.2761   3.2859   3.2955   3.3040   3.3183   3.3277   3.3387   3.3425
  3.3578   3.3589   3.3635   3.3682   3.3801   3.3831   3.3961   3.4047
  3.4114   3.4158   3.4191   3.4262   3.4311   3.4452   3.4488   3.4578
  3.4589   3.4627   3.4645   3.4725   3.4790   3.4865   3.4898   3.4928
  3.5003   3.5093   3.5167   3.5190   3.5245   3.5313   3.5398   3.5418
  3.5445   3.5516   3.5534   3.5562   3.5600   3.5684   3.5716   3.5752
  3.5864   3.5887   3.6029   3.6078   3.6132   3.6269   3.6275   3.6379
  3.6462   3.6539   3.6631   3.6704   3.6757   3.6816   3.6879   3.6948
  3.6978   3.7039   3.7073   3.7127   3.7214   3.7271   3.7366   3.7469
  3.7563   3.7615   3.7715   3.7791   3.7877   3.7946   3.8017   3.8141
  3.8366   3.8481   3.8668   3.8772   3.8851   3.9031   3.9185   3.9309
  3.9431   3.9610   3.9684   3.9792   3.9890   3.9968   4.0366   4.0464
  4.0515   4.0581   4.0869   4.1083   4.1376   4.1499   4.1638   4.1756
  4.1907   4.2010   4.2077   4.2161   4.2233   4.2360   4.2596   4.2706
  4.2719   4.2792   4.2880   4.2946   4.3066   4.3186   4.3272   4.3326
  4.3373   4.3508   4.3606   4.3666   4.3754   4.3773   4.3924   4.4113
  4.4142   4.4284   4.4378   4.4397   4.4660   4.4789   4.4889   4.4947
  4.5104   4.5354   4.5525   4.5838   4.6027   4.6194   4.6393   4.6518
  4.6639   4.7083   4.7254   4.7289   4.7514   4.7727   4.8084   4.8250
  4.8362   4.8736   4.9021   4.9290   4.9407   4.9553   4.9615   4.9710
  4.9784   4.9966   5.0042   5.0122   5.0285   5.0542   5.0710   5.1005
  5.1279   5.1551   5.1579   5.1871   5.2003   5.2116   5.2482   5.3037
  5.3248   5.3435   5.3757   5.4010   5.4582   5.4761   5.5023   5.5166
  5.5329   5.5781   5.6180   5.7080   5.7149   5.8052   5.8290   5.8343
  5.9403   5.9692   6.2552   6.3287  22.6649  22.6944  22.7105  22.8166
 22.8233  22.8711  22.9195  22.9499  22.9728  23.0187  23.0282  23.0607
 23.1536  23.2796  23.4141  23.4808  23.7315  32.9280
 --------------------------------------------------------------

          Ground-State Mulliken Net Atomic Charges

     Atom                 Charge (a.u.)
  ----------------------------------------
      1 C                    -0.102365
      2 C                    -0.922939
      3 C                     0.181923
      4 C                    -0.343075
      5 C                    -0.134211
      6 C                    -0.484682
      7 C                    -0.549799
      8 C                    -0.393500
      9 H                     0.311504
     10 H                    -0.126041
     11 H                     0.250666
     12 H                     0.375718
     13 H                     0.344278
     14 H                     0.327254
     15 H                     0.340947
     16 H                     0.354383
     17 H                     0.252849
     18 H                     0.231631
     19 C                    -1.044862
     20 C                     0.613628
     21 C                    -0.437633
     22 C                     0.197328
     23 C                    -0.035329
     24 C                    -0.341942
     25 C                    -0.666494
     26 C                    -0.505891
     27 C                    -0.446060
     28 N                     0.178020
     29 H                     0.272045
     30 H                     0.216374
     31 H                     0.227518
     32 H                     0.198405
     33 H                     0.363443
     34 H                     0.354611
     35 H                     0.340136
     36 H                     0.364071
     37 H                     0.238090
  ----------------------------------------
  Sum of atomic charges =     0.000000

 -----------------------------------------------------------------
                    Cartesian Multipole Moments
 -----------------------------------------------------------------
    Charge (ESU x 10^10)
                 0.0000
    Dipole Moment (Debye)
         X       1.2171      Y      -0.7195      Z      -2.6739
       Tot       3.0247
    Quadrupole Moments (Debye-Ang)
        XX    -104.9852     XY       4.3506     YY    -110.1032
        XZ      -8.4632     YZ       3.2588     ZZ     -96.6793
    Octopole Moments (Debye-Ang^2)
       XXX     -11.7820    XXY      20.1690    XYY      19.9180
       YYY     -23.0822    XXZ     -34.3476    XYZ       7.8573
       YYZ      -2.5120    XZZ       5.4225    YZZ      -3.5192
       ZZZ      -6.6186
    Hexadecapole Moments (Debye-Ang^3)
      XXXX   -3715.9359   XXXY     340.8330   XXYY    -932.0101
      XYYY     347.7435   YYYY   -1414.8964   XXXZ    -310.8792
      XXYZ      36.4594   XYYZ     -61.8470   YYYZ      64.7099
      XXZZ    -831.9293   XYZZ      93.8681   YYZZ    -476.6577
      XZZZ    -245.0496   YZZZ      74.1307   ZZZZ   -1459.8861
 -----------------------------------------------------------------
Archival summary:
1\1\compute-0-8.local\SP\ProcedureUnspecified\BasisUnspecified\11719\meili\ThuSep3002:53:202021ThuSep3002:53:202021\0\\#,ProcedureUnspecified,BasisUnspecified,\\0,1\N\H,1,1.01572\C,1,1.38405,2,124.799\C,1,1.39942,2,126.286,3,179.832,0\H,4,1.08405,1,131.576,2,-0.329894,0\C,4,1.34463,1,110.555,2,-179.941,0\C,3,1.40067,1,131.448,2,0.061252,0\H,7,1.08235,3,119.37,1,-0.0968493,0\C,7,1.40127,3,117.898,1,179.922,0\H,9,1.08298,7,119.532,3,-179.597,0\C,9,1.41586,7,120.864,3,0.262876,0\H,11,1.0856,9,120.827,7,179.764,0\C,11,1.40327,9,120.968,7,-0.306234,0\H,13,1.0859,11,118.762,9,-179.551,0\C,13,1.41403,11,119.264,9,0.139385,0\C,6,1.50914,4,125.782,1,178.25,0\H,16,1.09173,6,106.789,4,-127.732,0\H,16,1.0941,6,107.414,4,-11.5993,0\H,16,1.1,6,114.093,4,112.875,0\H,1,2.66216,2,109.677,3,89.6648,0\C,20,1.08757,1,150.278,2,37.9314,0\H,21,1.08862,20,108.702,1,44.307,0\C,21,1.52391,20,107.115,1,159.962,0\C,23,1.40157,21,119.872,20,-160.689,0\H,24,1.08278,23,119.687,21,-1.32696,0\C,24,1.40058,23,120.406,21,178.759,0\H,26,1.08261,24,119.613,23,-179.705,0\C,26,1.41094,24,120.248,23,0.424447,0\H,28,1.08323,26,119.806,24,-179.851,0\C,28,1.40428,26,120.197,24,0.191764,0\H,30,1.08558,28,120.76,26,179.286,0\C,23,1.41104,21,120.987,20,18.5143,0\H,32,1.08312,23,119.012,21,0.768223,0\C,21,1.54218,20,108.679,1,-74.9098,0\H,34,1.08859,21,108.287,20,-62.2254,0\H,34,1.1,21,109.279,20,55.7032,0\H,34,1.1,21,111.161,20,177.841,0\\\@

 Total job time:  99125.02s(wall), 269809.98s(cpu) 
 Thu Sep 30 02:53:20 2021

        *************************************************************
        *                                                           *
        *  Thank you very much for using Q-Chem.  Have a nice day.  *
        *                                                           *
        *************************************************************


