
Running Job 1 of 1 SSI-106ASN-130HIE-1_SMD_TZVPD.in
qchem SSI-106ASN-130HIE-1_SMD_TZVPD.in_64368.0 /tmp/qchem64368/ 0
/global/common/cori/software/qchem/5.2/exe/qcprog.exe_s SSI-106ASN-130HIE-1_SMD_TZVPD.in_64368.0 /tmp/qchem64368/
                  Welcome to Q-Chem
     A Quantum Leap Into The Future Of Chemistry


 Q-Chem 5.2, Q-Chem, Inc., Pleasanton, CA (2019)

 License issued to: National Energy Research Scientific Computing Center

 Yihan Shao,  Zhengting Gan,  E. Epifanovsky,  A. T. B. Gilbert,  M. Wormit,  
 J. Kussmann,  A. W. Lange,  A. Behn,  Jia Deng,  Xintian Feng,  D. Ghosh,  
 M. Goldey,  P. R. Horn,  L. D. Jacobson,  I. Kaliman,  T. Kus,  A. Landau,  
 Jie Liu,  E. I. Proynov,  R. M. Richard,  R. P. Steele,  E. J. Sundstrom,  
 H. L. Woodcock III,  P. M. Zimmerman,  D. Zuev,  B. Albrecht,  E. Alguire,  
 S. A. Baeppler,  D. Barton,  Z. Benda,  Y. A. Bernard,  E. J. Berquist,  
 K. B. Bravaya,  H. Burton,  D. Casanova,  Chun-Min Chang,  Yunqing Chen,  
 A. Chien,  K. D. Closser,  M. P. Coons,  S. Coriani,  S. Dasgupta,  
 A. L. Dempwolff,  M. Diedenhofen,  Hainam Do,  R. G. Edgar,  Po-Tung Fang,  
 S. Faraji,  S. Fatehi,  Qingguo Feng,  K. D. Fenk,  J. Fosso-Tande,  
 J. Gayvert,  Qinghui Ge,  A. Ghysels,  G. Gidofalvi,  J. Gomes,  
 J. Gonthier,  A. Gunina,  D. Hait,  M. W. D. Hanson-Heine,  
 P. H. P. Harbach,  A. W. Hauser,  M. F. Herbst,  J. E. Herr,  
 E. G. Hohenstein,  Z. C. Holden,  Kerwin Hui,  B. C. Huynh,  T.-C. Jagau,  
 Hyunjun Ji,  B. Kaduk,  K. Khistyaev,  Jaehoon Kim,  P. Klunzinger,  K. Koh,  
 D. Kosenkov,  L. Koulias,  T. Kowalczyk,  C. M. Krauter,  A. Kunitsa,  
 Ka Un Lao,  A. Laurent,  K. V. Lawler,  Joonho Lee,  D. Lefrancois,  
 S. Lehtola,  D. S. Levine,  Yi-Pei Li,  You-Sheng Lin,  Fenglai Liu,  
 E. Livshits,  A. Luenser,  P. Manohar,  E. Mansoor,  S. F. Manzer,  
 Shan-Ping Mao,  Yuezhi Mao,  N. Mardirossian,  A. V. Marenich,  
 T. Markovich,  L. A. Martinez-Martinez,  S. A. Maurer,  N. J. Mayhall,  
 S. C. McKenzie,  J.-M. Mewes,  P. Morgante,  A. F. Morrison,  
 J. W. Mullinax,  K. Nanda,  T. S. Nguyen-Beck,  R. Olivares-Amaya,  
 J. A. Parkhill,  Zheng Pei,  T. M. Perrine,  F. Plasser,  P. Pokhilko,  
 S. Prager,  A. Prociuk,  E. Ramos,  D. R. Rehn,  F. Rob,  M. Scheurer,  
 M. Schneider,  N. Sergueev,  S. M. Sharada,  S. Sharma,  D. W. Small,  
 T. Stauch,  T. Stein,  Yu-Chuan Su,  A. J. W. Thom,  A. Tkatchenko,  
 T. Tsuchimochi,  N. M. Tubman,  L. Vogt,  M. L. Vidal,  O. Vydrov,  
 M. A. Watson,  J. Wenzel,  M. de Wergifosse,  T. A. Wesolowski,  A. White,  
 J. Witte,  A. Yamada,  Jun Yang,  K. Yao,  S. Yeganeh,  S. R. Yost,  
 Zhi-Qiang You,  A. Zech,  Igor Ying Zhang,  Xing Zhang,  Yan Zhao,  
 Ying Zhu,  B. R. Brooks,  G. K. L. Chan,  C. J. Cramer,  M. S. Gordon,  
 W. J. Hehre,  A. Klamt,  M. W. Schmidt,  C. D. Sherrill,  D. G. Truhlar,  
 A. Aspuru-Guzik,  R. Baer,  A. T. Bell,  N. A. Besley,  Jeng-Da Chai,  
 A. E. DePrince, III,  R. A. DiStasio Jr.,  A. Dreuw,  B. D. Dunietz,  
 T. R. Furlani,  Chao-Ping Hsu,  Yousung Jung,  Jing Kong,  D. S. Lambrecht,  
 WanZhen Liang,  C. Ochsenfeld,  V. A. Rassolov,  L. V. Slipchenko,  
 J. E. Subotnik,  T. Van Voorhis,  J. M. Herbert,  A. I. Krylov,  
 P. M. W. Gill,  M. Head-Gordon

 Contributors to earlier versions of Q-Chem not listed above: 
 R. D. Adamson,  B. Austin,  J. Baker,  G. J. O. Beran,  K. Brandhorst,  
 S. T. Brown,  E. F. C. Byrd,  A. K. Chakraborty,  C.-L. Cheng,  
 Siu Hung Chien,  D. M. Chipman,  D. L. Crittenden,  H. Dachsel,  
 R. J. Doerksen,  A. D. Dutoi,  L. Fusti-Molnar,  W. A. Goddard III,  
 A. Golubeva-Zadorozhnaya,  S. R. Gwaltney,  G. Hawkins,  A. Heyden,  
 S. Hirata,  G. Kedziora,  F. J. Keil,  C. Kelley,  Jihan Kim,  R. A. King,  
 R. Z. Khaliullin,  P. P. Korambath,  W. Kurlancheek,  A. M. Lee,  M. S. Lee,  
 S. V. Levchenko,  Ching Yeh Lin,  D. Liotard,  R. C. Lochan,  I. Lotan,  
 P. E. Maslen,  N. Nair,  D. P. O'Neill,  D. Neuhauser,  E. Neuscamman,  
 C. M. Oana,  R. Olson,  B. Peters,  R. Peverati,  P. A. Pieniazek,  
 Y. M. Rhee,  J. Ritchie,  M. A. Rohrdanz,  E. Rosta,  N. J. Russ,  
 H. F. Schaefer III,  N. E. Schultz,  N. Shenvi,  A. C. Simmonett,  A. Sodt,  
 D. Stuck,  K. S. Thanthiriwatte,  V. Vanovschi,  Tao Wang,  A. Warshel,  
 C. F. Williams,  Q. Wu,  X. Xu,  W. Zhang

 Please cite Q-Chem as follows:
 Y. Shao et al., Mol. Phys. 113, 184-215 (2015)
 DOI: 10.1080/00268976.2014.952696

 Q-Chem 5.2.0 for Intel X86 EM64T Linux

 Parts of Q-Chem use Armadillo 8.300.2 (Tropical Shenanigans).
 http://arma.sourceforge.net/

 Q-Chem begins on Sun Sep 26 13:12:51 2021  

Host: cori01
0

     Scratch files written to /tmp/qchem64368//
 May1019 |scratch|qcdevops|jenkins|workspace|build_RNUM -1
Processing $rem in /global/common/cori/software/qchem/5.2/config/preferences:
	 MEM_TOTAL  96000 
NAlpha2: 76
NElect   76
Mult     1
Symmetry turned off for PCM/SM12/SMD calculation

 Q-Chem warning in module libgen/rem_setup.C, line 2803:

 Neither GIA nor STOLL is specified by user. Use STOLL as the default


Checking the input file for inconsistencies... 	...done.

--------------------------------------------------------------
User input:
--------------------------------------------------------------
$comment
SSI-106ASN-130HIE-1.pdb
$end

$molecule
0 1
--
0 1
C    2.260581999755    3.000912053306    0.100227064282
C    1.288581999755    2.056912053306    0.779227064282
O    0.098581999755    2.048912053306    0.478227064282
N    1.776581999755    1.250912053306    1.708227064282
H    2.496581999755    3.794912053306    0.789227064282
H    1.740581999755    3.470912053306   -0.733772935718
H    1.092581999755    0.645912053306    2.146227064282
H    2.746581999755    0.999912053306    1.741227064282
H    3.167806199755    2.505672053306   -0.276181935718
--
0 1
C   -2.723418000245   -0.760087946694   -1.702772935718
C    0.510581999755   -1.459087946694   -0.206772935718
C   -1.561418000245   -1.305087946694   -0.926772935718
C   -1.527418000245   -2.250087946694    0.048227064282
N   -0.280418000245   -0.815087946694   -1.052772935718
N   -0.218418000245   -2.336087946694    0.473227064282
H    1.575581999755   -1.300087946694   -0.087772935718
H    0.141581999755   -2.963087946694    1.185227064282
H   -2.370418000245   -2.817087946694    0.415227064282
H   -3.442418000245   -1.565087946694   -1.854772935718
H   -2.384418000245   -0.433087946694   -2.683772935718
H   -3.215250000245    0.077902053306   -1.187142935718
$end

$rem
JOBTYPE			EDA
EDA2			1
method			wB97X-V
BASIS			def2-TZVPD
XC_GRID			000099000590
NL_GRID			1
UNRESTRICTED		FALSE
MAX_SCF_CYCLES		200
SYMMETRY		FALSE
SYM_IGNORE		TRUE
MEM_STATIC		2000
BASIS_LIN_DEP_THRESH 	6
THRESH 			14
SCF_CONVERGENCE 	8
SCF_PRINT_FRGM 		TRUE
SOLVENT_METHOD          SMD
$end

$SMX
SOLVENT			WATER
$END
--------------------------------------------------------------
 ----------------------------------------------------------------
             Standard Nuclear Orientation (Angstroms)
    I     Atom           X                Y                Z
 ----------------------------------------------------------------
    1      C       2.2605819998     3.0009120533     0.1002270643
    2      C       1.2885819998     2.0569120533     0.7792270643
    3      O       0.0985819998     2.0489120533     0.4782270643
    4      N       1.7765819998     1.2509120533     1.7082270643
    5      H       2.4965819998     3.7949120533     0.7892270643
    6      H       1.7405819998     3.4709120533    -0.7337729357
    7      H       1.0925819998     0.6459120533     2.1462270643
    8      H       2.7465819998     0.9999120533     1.7412270643
    9      H       3.1678061998     2.5056720533    -0.2761819357
   10      C      -2.7234180002    -0.7600879467    -1.7027729357
   11      C       0.5105819998    -1.4590879467    -0.2067729357
   12      C      -1.5614180002    -1.3050879467    -0.9267729357
   13      C      -1.5274180002    -2.2500879467     0.0482270643
   14      N      -0.2804180002    -0.8150879467    -1.0527729357
   15      N      -0.2184180002    -2.3360879467     0.4732270643
   16      H       1.5755819998    -1.3000879467    -0.0877729357
   17      H       0.1415819998    -2.9630879467     1.1852270643
   18      H      -2.3704180002    -2.8170879467     0.4152270643
   19      H      -3.4424180002    -1.5650879467    -1.8547729357
   20      H      -2.3844180002    -0.4330879467    -2.6837729357
   21      H      -3.2152500002     0.0779020533    -1.1871429357
 ----------------------------------------------------------------
 Nuclear Repulsion Energy =         505.91693688 hartrees
 There are       38 alpha and       38 beta electrons
 Requested basis set is def2-TZVPD
 There are 186 shells and 472 basis functions

 Total QAlloc Memory Limit  96000 MB
 Mega-Array Size      1956 MB
 MEM_STATIC part      2000 MB
 
 Citation of the SMD model:
 Marenich, A.V.; Cramer, C.J.; Truhlar, D.G.
 J. Phys. Chem. B 2009, 113, 6378-6396.
 iSolventCode=           1
 Solvent: water                                                           
 
 vradii
            1           2           3           4           5           6
    1   1.8500000   1.8500000   1.5200000   1.8900000   1.2000000   1.2000000
            7           8           9          10          11          12
    1   1.2000000   1.2000000   1.2000000   1.8500000   1.8500000   1.8500000
           13          14          15          16          17          18
    1   1.8500000   1.8900000   1.8900000   1.2000000   1.2000000   1.2000000
           19          20          21
    1   1.2000000   1.2000000   1.2000000
 Changing PCM_VDW_RADII to SMD_RADIUS
 Discretize the solute cavity surface with Lebedev spheres
	Using 110 Lebedev grid points for each H atom
	Using 194 Lebedev grid points for other atoms
	Atomic van der Waals radii will be scaled by 1.20
 Remove points where switching function is < 1.0e-08
 Keep 1618 surface tesserae and discard 1532 interior tesserae
 Molecular Surface Area = 202.465 Angst**2
 A cutoff of  1.0D-14 yielded  15342 shell pairs
 There are     99656 function pairs (    126063 Cartesian)
 Smallest overlap matrix eigenvalue = 1.70E-06

 Scale SEOQF with 1.000000e-01/1.000000e-01/1.000000e-01

 Standard Electronic Orientation quadrupole field applied
 Nucleus-field energy     =     0.0000000185 hartrees

 -----------------------------------------------------------------------
  General SCF calculation program by
  Eric Jon Sundstrom, Paul Horn, Yuezhi Mao, Dmitri Zuev, Alec White,
  David Stuck, Shaama M.S., Shane Yost, Joonho Lee, David Small,
  Daniel Levine, Susi Lehtola, Hugh Burton, Evgeny Epifanovsky
 -----------------------------------------------------------------------
================================================================
                 ALMO-EDA with the EDA2 driver                  
================================================================
 The second-generation ALMO-EDA (for DFT):                      
 P. R. Horn, Y. Mao and M. Head-Gordon, PCCP, 18, 23067 (2016)  
 Decomposition of the frozen energy:                            
 P. R. Horn, Y. Mao and M. Head-Gordon, JCP, 144, 114107 (2016) 
 FERF model for polarization:                                   
 P. R. Horn and M. Head-Gordon, JCP, 143, 114111 (2015)         
Using eda2 option set 1
Option set summary: Frozen orbital wavefunction, initial wavefunction decomposition, and nDQ polarization.
--------------------------------
Printing EDA Options
--------------------------------
eda_child_super_basis      0
fragmo_guess_mode          0
child_mp                   1
child_mp_orders            232
cls_elec                   1
cls_disp                   0
scfmi_mode                 1
scfmi_occs                 0
scfmi_virts                0
frz_relax                  0
frz_relax_method           0
dc_pen_start               0
dc_pen_conv                0
dc_pen_increment           0
dc_pen_steps               0
dc_pen_thresh_factor       0
dc_pen_pre_newton_thresh   0
frz_ortho_decomp           1
frz_ortho_decomp_conv      6
frgm_method                2
scfmi_freeze_ss            0
separate_rehyb             0
plot_diff_den              0
eda_nocv                   0
eda_vct_relax              1
disp_free_x                0
disp_free_c                0
eda_bsse                   0
eda_pct_a                  0
eda_covp                   0
--------------------------------
Attempting to make child job directory: /tmp/qchem64368//Frg1/
Attempting to make child job directory: /tmp/qchem64368//Frg2/
Creating input file /tmp/qchem64368/Frg1.input
using default PutDataFrgm: nothing
calling putenv with: QCSCRATCH=/tmp/qchem64368/ 
calling putenv with: QCLOCALSCR=/tmp/qchem64368/ 
Spawning Job For Fragment 0
                  Welcome to Q-Chem
     A Quantum Leap Into The Future Of Chemistry


 Q-Chem 5.2, Q-Chem, Inc., Pleasanton, CA (2019)

 License issued to: National Energy Research Scientific Computing Center

 Yihan Shao,  Zhengting Gan,  E. Epifanovsky,  A. T. B. Gilbert,  M. Wormit,  
 J. Kussmann,  A. W. Lange,  A. Behn,  Jia Deng,  Xintian Feng,  D. Ghosh,  
 M. Goldey,  P. R. Horn,  L. D. Jacobson,  I. Kaliman,  T. Kus,  A. Landau,  
 Jie Liu,  E. I. Proynov,  R. M. Richard,  R. P. Steele,  E. J. Sundstrom,  
 H. L. Woodcock III,  P. M. Zimmerman,  D. Zuev,  B. Albrecht,  E. Alguire,  
 S. A. Baeppler,  D. Barton,  Z. Benda,  Y. A. Bernard,  E. J. Berquist,  
 K. B. Bravaya,  H. Burton,  D. Casanova,  Chun-Min Chang,  Yunqing Chen,  
 A. Chien,  K. D. Closser,  M. P. Coons,  S. Coriani,  S. Dasgupta,  
 A. L. Dempwolff,  M. Diedenhofen,  Hainam Do,  R. G. Edgar,  Po-Tung Fang,  
 S. Faraji,  S. Fatehi,  Qingguo Feng,  K. D. Fenk,  J. Fosso-Tande,  
 J. Gayvert,  Qinghui Ge,  A. Ghysels,  G. Gidofalvi,  J. Gomes,  
 J. Gonthier,  A. Gunina,  D. Hait,  M. W. D. Hanson-Heine,  
 P. H. P. Harbach,  A. W. Hauser,  M. F. Herbst,  J. E. Herr,  
 E. G. Hohenstein,  Z. C. Holden,  Kerwin Hui,  B. C. Huynh,  T.-C. Jagau,  
 Hyunjun Ji,  B. Kaduk,  K. Khistyaev,  Jaehoon Kim,  P. Klunzinger,  K. Koh,  
 D. Kosenkov,  L. Koulias,  T. Kowalczyk,  C. M. Krauter,  A. Kunitsa,  
 Ka Un Lao,  A. Laurent,  K. V. Lawler,  Joonho Lee,  D. Lefrancois,  
 S. Lehtola,  D. S. Levine,  Yi-Pei Li,  You-Sheng Lin,  Fenglai Liu,  
 E. Livshits,  A. Luenser,  P. Manohar,  E. Mansoor,  S. F. Manzer,  
 Shan-Ping Mao,  Yuezhi Mao,  N. Mardirossian,  A. V. Marenich,  
 T. Markovich,  L. A. Martinez-Martinez,  S. A. Maurer,  N. J. Mayhall,  
 S. C. McKenzie,  J.-M. Mewes,  P. Morgante,  A. F. Morrison,  
 J. W. Mullinax,  K. Nanda,  T. S. Nguyen-Beck,  R. Olivares-Amaya,  
 J. A. Parkhill,  Zheng Pei,  T. M. Perrine,  F. Plasser,  P. Pokhilko,  
 S. Prager,  A. Prociuk,  E. Ramos,  D. R. Rehn,  F. Rob,  M. Scheurer,  
 M. Schneider,  N. Sergueev,  S. M. Sharada,  S. Sharma,  D. W. Small,  
 T. Stauch,  T. Stein,  Yu-Chuan Su,  A. J. W. Thom,  A. Tkatchenko,  
 T. Tsuchimochi,  N. M. Tubman,  L. Vogt,  M. L. Vidal,  O. Vydrov,  
 M. A. Watson,  J. Wenzel,  M. de Wergifosse,  T. A. Wesolowski,  A. White,  
 J. Witte,  A. Yamada,  Jun Yang,  K. Yao,  S. Yeganeh,  S. R. Yost,  
 Zhi-Qiang You,  A. Zech,  Igor Ying Zhang,  Xing Zhang,  Yan Zhao,  
 Ying Zhu,  B. R. Brooks,  G. K. L. Chan,  C. J. Cramer,  M. S. Gordon,  
 W. J. Hehre,  A. Klamt,  M. W. Schmidt,  C. D. Sherrill,  D. G. Truhlar,  
 A. Aspuru-Guzik,  R. Baer,  A. T. Bell,  N. A. Besley,  Jeng-Da Chai,  
 A. E. DePrince, III,  R. A. DiStasio Jr.,  A. Dreuw,  B. D. Dunietz,  
 T. R. Furlani,  Chao-Ping Hsu,  Yousung Jung,  Jing Kong,  D. S. Lambrecht,  
 WanZhen Liang,  C. Ochsenfeld,  V. A. Rassolov,  L. V. Slipchenko,  
 J. E. Subotnik,  T. Van Voorhis,  J. M. Herbert,  A. I. Krylov,  
 P. M. W. Gill,  M. Head-Gordon

 Contributors to earlier versions of Q-Chem not listed above: 
 R. D. Adamson,  B. Austin,  J. Baker,  G. J. O. Beran,  K. Brandhorst,  
 S. T. Brown,  E. F. C. Byrd,  A. K. Chakraborty,  C.-L. Cheng,  
 Siu Hung Chien,  D. M. Chipman,  D. L. Crittenden,  H. Dachsel,  
 R. J. Doerksen,  A. D. Dutoi,  L. Fusti-Molnar,  W. A. Goddard III,  
 A. Golubeva-Zadorozhnaya,  S. R. Gwaltney,  G. Hawkins,  A. Heyden,  
 S. Hirata,  G. Kedziora,  F. J. Keil,  C. Kelley,  Jihan Kim,  R. A. King,  
 R. Z. Khaliullin,  P. P. Korambath,  W. Kurlancheek,  A. M. Lee,  M. S. Lee,  
 S. V. Levchenko,  Ching Yeh Lin,  D. Liotard,  R. C. Lochan,  I. Lotan,  
 P. E. Maslen,  N. Nair,  D. P. O'Neill,  D. Neuhauser,  E. Neuscamman,  
 C. M. Oana,  R. Olson,  B. Peters,  R. Peverati,  P. A. Pieniazek,  
 Y. M. Rhee,  J. Ritchie,  M. A. Rohrdanz,  E. Rosta,  N. J. Russ,  
 H. F. Schaefer III,  N. E. Schultz,  N. Shenvi,  A. C. Simmonett,  A. Sodt,  
 D. Stuck,  K. S. Thanthiriwatte,  V. Vanovschi,  Tao Wang,  A. Warshel,  
 C. F. Williams,  Q. Wu,  X. Xu,  W. Zhang

 Please cite Q-Chem as follows:
 Y. Shao et al., Mol. Phys. 113, 184-215 (2015)
 DOI: 10.1080/00268976.2014.952696

 Q-Chem 5.2.0 for Intel X86 EM64T Linux

 Parts of Q-Chem use Armadillo 8.300.2 (Tropical Shenanigans).
 http://arma.sourceforge.net/

 Q-Chem begins on Sun Sep 26 13:12:55 2021  

Host: cori01
0

     Scratch files written to /tmp/qchem64368//Frg1//
 May1019 |scratch|qcdevops|jenkins|workspace|build_RNUM -1
Processing $rem in /global/common/cori/software/qchem/5.2/config/preferences:
	 MEM_TOTAL  96000 
NAlpha2: 32
NElect   32
Mult     1
Symmetry turned off for PCM/SM12/SMD calculation

Checking the input file for inconsistencies... 	...done.

--------------------------------------------------------------
User input:
--------------------------------------------------------------
$molecule
0 1
 6	2.2605819998	3.0009120533	0.1002270643
 6	1.2885819998	2.0569120533	0.7792270643
 8	0.0985819998	2.0489120533	0.4782270643
 7	1.7765819998	1.2509120533	1.7082270643
 1	2.4965819998	3.7949120533	0.7892270643
 1	1.7405819998	3.4709120533	-0.7337729357
 1	1.0925819998	0.6459120533	2.1462270643
 1	2.7465819998	0.9999120533	1.7412270643
 1	3.1678061998	2.5056720533	-0.2761819357
$end
$rem
EDA2		1
METHOD		WB97X-V
BASIS		DEF2-TZVPD
XC_GRID		000099000590
NL_GRID		1
UNRESTRICTED		FALSE
MAX_SCF_CYCLES		200
SYMMETRY		FALSE
SYM_IGNORE		TRUE
BASIS_LIN_DEP_THRESH		6
THRESH		14
SCF_CONVERGENCE		8
SCF_PRINT_FRGM		TRUE
SOLVENT_METHOD		SMD
!required keywords
JOBTYPE		SP
SYM_IGNORE		TRUE
SUBSYSTEM		TRUE
GEN_SCFMAN		TRUE
CHILD_INSTRUCTION		2
SYM_IGNORE		TRUE
SCFMI		0
RI_K 0		
PARI_K 0		
MIN_PARI_K 0		
IARI_K 0		
OCC_RI_K 0		
PURECART		1111
MEM_STATIC		2000
MEM_TOTAL		96000
GUI		0
CHILD_MP		1
CHILD_MP_ORDERS		232
FRZ_RELAX		0
FRZ_RELAX_METHOD		0
EDA_CLS_ELEC		1
EDA_CLS_DISP		0
FRZ_ORTHO_DECOMP		1
EDA2		FALSE
FRGM_METHOD		FALSE
CIS_N_ROOTS  0
LOCAL_CIS    0
CIS_RLX_DNS  1
$end
$smx
SOLVENT			WATER
$end
--------------------------------------------------------------
 ----------------------------------------------------------------
             Standard Nuclear Orientation (Angstroms)
    I     Atom           X                Y                Z
 ----------------------------------------------------------------
    1      C       2.2605819998     3.0009120533     0.1002270643
    2      C       1.2885819998     2.0569120533     0.7792270643
    3      O       0.0985819998     2.0489120533     0.4782270643
    4      N       1.7765819998     1.2509120533     1.7082270643
    5      H       2.4965819998     3.7949120533     0.7892270643
    6      H       1.7405819998     3.4709120533    -0.7337729357
    7      H       1.0925819998     0.6459120533     2.1462270643
    8      H       2.7465819998     0.9999120533     1.7412270643
    9      H       3.1678061998     2.5056720533    -0.2761819357
 ----------------------------------------------------------------
 Nuclear Repulsion Energy =         122.52547503 hartrees
 There are       16 alpha and       16 beta electrons
 Requested basis set is def2-TZVPD
 There are 78 shells and 196 basis functions

 Total QAlloc Memory Limit  96000 MB
 Mega-Array Size      1956 MB
 MEM_STATIC part      2000 MB
 
 Citation of the SMD model:
 Marenich, A.V.; Cramer, C.J.; Truhlar, D.G.
 J. Phys. Chem. B 2009, 113, 6378-6396.
 iSolventCode=           1
 Solvent: water                                                           
 
 vradii
            1           2           3           4           5           6
    1   1.8500000   1.8500000   1.5200000   1.8900000   1.2000000   1.2000000
            7           8           9
    1   1.2000000   1.2000000   1.2000000
 Changing PCM_VDW_RADII to SMD_RADIUS
 Discretize the solute cavity surface with Lebedev spheres
	Using 110 Lebedev grid points for each H atom
	Using 194 Lebedev grid points for other atoms
	Atomic van der Waals radii will be scaled by 1.20
 Remove points where switching function is < 1.0e-08
 Keep 716 surface tesserae and discard 610 interior tesserae
 Molecular Surface Area = 90.276 Angst**2

                       Distance Matrix (Angstroms)
             C (  1)   C (  2)   O (  3)   N (  4)   H (  5)   H (  6)
   C (  2)  1.515573
   O (  3)  2.392370  1.227504
   N (  4)  2.425370  1.323186  2.228315
   H (  5)  1.077429  2.116603  2.982556  2.799089
   H (  6)  1.089429  2.119639  2.487407  3.300464  1.730908
   H (  7)  3.331121  1.974342  2.395552  1.012781  3.705248  4.085943
   H (  8)  2.633074  2.041680  3.115682  1.002492  2.963246  3.639162
   H (  9)  1.100001  2.201535  3.193415  2.729067  1.802159  1.782708
             H (  7)   H (  8)
   H (  8)  1.739269
   H (  9)  3.692334  2.552388
 
 A cutoff of  1.0D-14 yielded   3054 shell pairs
 There are     19544 function pairs (     24702 Cartesian)
 Smallest overlap matrix eigenvalue = 1.02E-05

 Scale SEOQF with 1.000000e-01/1.000000e-01/1.000000e-01

 Standard Electronic Orientation quadrupole field applied
 Nucleus-field energy     =     0.0000000108 hartrees
 Guess from superposition of atomic densities
 Warning:  Energy on first SCF cycle will be non-variational
 SAD guess density has 31.604610 electrons

 -----------------------------------------------------------------------
  General SCF calculation program by
  Eric Jon Sundstrom, Paul Horn, Yuezhi Mao, Dmitri Zuev, Alec White,
  David Stuck, Shaama M.S., Shane Yost, Joonho Lee, David Small,
  Daniel Levine, Susi Lehtola, Hugh Burton, Evgeny Epifanovsky
 -----------------------------------------------------------------------
 Exchange:     0.1670 Hartree-Fock + 1.0000 wB97X-V + LR-HF
 Correlation:  1.0000 wB97X-V
 Using Euler-Maclaurin-Lebedev (99,590) quadrature formula
 Nonlocal Correlation:  VV10 with C = 0.0100 and b = 6.00 and scale = 1.00000
 Grid used for NLC:  SG-1 standard quadrature
Energy prior to optimization (guess energy) = -208.705510582597
Begin Timing: Total SCF Calculation
begin iterations for algorithm: DIIS         
the SCF tolerance is set to 1.00e-08
    1    -208.7055105826      1.25e-02     00000 
    2    -208.3520543980      1.52e-02     00000 
    3    -209.2349124554      2.33e-03     00000 
    4    -209.2529184288      7.49e-04     00000 
    5    -209.2558160540      1.93e-04     00000 
    6    -209.2560706298      6.48e-05     00000 
    7    -209.2561086748      1.96e-05     00000 
    8    -209.2561133588      5.69e-06     00000 
    9    -209.2561140609      1.95e-06     00000 
   10    -209.2561141088      3.20e-07     00000 
   11    -209.2561141100      1.38e-07     00000 
   12    -209.2561141102      2.36e-08     00000 
   13    -209.2561141102      6.54e-09     00000 Convergence criterion met
Timing for Total SCF: 383.00s (wall), 756.03s (cpu)
(3)  G-ENP(liq) elect-nuc-pol free energy of system     -209.256114110 a.u.
(4)  G-CDS(liq) cavity-dispersion-solvent structure 
     free energy                                                3.5090 kcal/mol
(6)  G-S(liq) free energy of system                     -209.250522114 a.u.
E_pcm = -0.0282421719
E_cds = 0.0055919959
Multipole orders to be included
        2
        3
computing dipole RHS
computing quadrupole RHS
total number of RHS in solve_reponses: 8
RHS batch sizes
        8
Beginning Block Conjugate Gradient Iterations. Batch Number: 0
computing hessian-vector products by finite difference
              1      6.78e-01     00000 Conjugate Gradient Iteration
computing hessian-vector products by finite difference
              2      2.14e-01     00000 Conjugate Gradient Iteration
computing hessian-vector products by finite difference
              3      5.54e-02     00000 Conjugate Gradient Iteration
computing hessian-vector products by finite difference
              4      1.37e-02     00000 Conjugate Gradient Iteration
computing hessian-vector products by finite difference
              5      2.01e-03     00000 Conjugate Gradient Iteration
computing hessian-vector products by finite difference
              6      4.56e-04     00000 Conjugate Gradient Iteration
computing hessian-vector products by finite difference
              7      6.23e-05     00000 Conjugate Gradient Iteration
computing hessian-vector products by finite difference
              8      7.35e-06     00000 Conjugate Gradient Iteration
computing hessian-vector products by finite difference
              9      1.11e-06     00000 Conjugate Gradient Iteration
computing hessian-vector products by finite difference
             10      1.15e-07     00000 Conjugate Gradient Iteration
computing hessian-vector products by finite difference
             11      1.24e-08     00000 Conjugate Gradient Iteration
computing hessian-vector products by finite difference
             12      2.00e-09     00000 CG Converged
batch 0 complete
Done Calculating Responses
TESTING ORTHOGONALIZATION OF MULTIPOLE BASIS
Multipole virts passed orthogonality test
Virts Per Order
        48
        80
 
 --------------------------------------------------------------
 
                    Orbital Energies (a.u.)
 --------------------------------------------------------------
 
 Alpha MOs
 -- Occupied --
-19.1852 -14.4239 -10.3773 -10.2604  -1.1792  -1.0419  -0.8635  -0.7075
 -0.6513  -0.5909  -0.5665  -0.5198  -0.4948  -0.4805  -0.3867  -0.3746
 -- Virtual --
  0.0646   0.0952   0.0963   0.1043   0.1283   0.1333   0.1408   0.1512
  0.1735   0.1945   0.2054   0.2106   0.2324   0.2418   0.2506   0.2574
  0.2637   0.2845   0.3094   0.3163   0.3308   0.3381   0.3478   0.3542
  0.3625   0.3737   0.3803   0.3857   0.3926   0.4066   0.4149   0.4250
  0.4347   0.4587   0.4618   0.4793   0.4822   0.4858   0.4890   0.5057
  0.5246   0.5351   0.5460   0.5724   0.5849   0.5969   0.6258   0.6332
  0.6462   0.6506   0.6736   0.6906   0.7084   0.7207   0.7284   0.7551
  0.7758   0.7976   0.8059   0.8105   0.8125   0.8409   0.8512   0.8790
  0.9206   0.9558   0.9683   0.9886   0.9980   1.0208   1.0481   1.1060
  1.1292   1.1832   1.2187   1.2491   1.2919   1.3196   1.3266   1.3959
  1.4810   1.5087   1.5181   1.6103   1.6653   1.7314   1.7575   1.7955
  1.8372   1.8683   1.8860   1.9218   1.9315   1.9459   2.0076   2.0313
  2.0480   2.1174   2.1508   2.1981   2.2414   2.2690   2.2920   2.3171
  2.3728   2.3949   2.4532   2.4955   2.5123   2.5795   2.6027   2.6452
  2.6835   2.7223   2.7716   2.8188   2.8787   2.9342   2.9545   2.9728
  3.0295   3.1399   3.1439   3.1519   3.2029   3.2423   3.2670   3.2943
  3.3111   3.3327   3.3589   3.4067   3.4792   3.5200   3.5517   3.5735
  3.6084   3.6507   3.6935   3.7754   3.8726   3.9012   3.9658   4.0319
  4.0995   4.1746   4.2609   4.4464   4.5620   4.5919   4.6335   4.6615
  4.8255   4.9093   4.9244   4.9571   5.1517   5.1818   5.2696   5.3275
  5.3693   5.3841   5.4444   5.4862   5.5302   5.7703   5.9192   6.1335
  6.2614   6.5227   6.6326   6.7267   6.8224   6.9770   7.2289   7.3103
 22.6109  23.5814  32.4255  44.2888
 --------------------------------------------------------------
 
          Ground-State Mulliken Net Atomic Charges

     Atom                 Charge (a.u.)
  ----------------------------------------
      1 C                    -0.642032
      2 C                     0.416731
      3 O                    -0.677753
      4 N                    -0.313053
      5 H                     0.219627
      6 H                     0.213252
      7 H                     0.267420
      8 H                     0.250311
      9 H                     0.265496
  ----------------------------------------
  Sum of atomic charges =     0.000000

 -----------------------------------------------------------------
                    Cartesian Multipole Moments
 -----------------------------------------------------------------
    Charge (ESU x 10^10)
                 0.0000
    Dipole Moment (Debye)
         X       5.2784      Y      -1.2181      Z       1.7328
       Tot       5.6875
    Quadrupole Moments (Debye-Ang)
        XX     -12.6803     XY       8.6741     YY     -26.0449
        XZ       4.9841     YZ      -0.4393     ZZ     -20.5930
    Octopole Moments (Debye-Ang^2)
       XXX     -72.1341    XXY     -34.6556    XYY     -15.1404
       YYY    -152.5703    XXZ      -6.4900    XYZ       3.7670
       YYZ     -19.9679    XZZ     -28.0396    YZZ     -52.9843
       ZZZ     -48.1115
    Hexadecapole Moments (Debye-Ang^3)
      XXXX    -341.6666   XXXY    -193.9245   XXYY    -165.8943
      XYYY    -179.8454   YYYY    -734.4698   XXXZ     -43.3033
      XXYZ     -19.0726   XYYZ     -19.0002   YYYZ     -82.0591
      XXZZ     -85.1370   XYZZ     -78.1982   YYZZ    -160.4463
      XZZZ     -70.1221   YZZZ     -91.3290   ZZZZ    -165.9843
 -----------------------------------------------------------------
Archival summary:
1\1\nid00531\SP\ProcedureUnspecified\BasisUnspecified\1125\meili\SunSep2614:51:002021SunSep2614:51:002021\0\\#,ProcedureUnspecified,BasisUnspecified,\\0,1\C\O,1,1.2275\N,1,1.32319,2,121.717\H,3,1.00249,1,122.173,2,157.356,0\H,3,1.01278,1,114.736,2,-0.580355,0\C,1,1.51557,2,121.061,3,-179.745,0\H,6,1.07743,1,108.24,2,105.139,0\H,6,1.08943,1,107.792,2,-9.13831,0\H,6,1.1,1,113.692,2,-130.112,0\\\@

 Total job time:  5887.26s(wall), 11638.01s(cpu) 
 Sun Sep 26 14:51:02 2021

        *************************************************************
        *                                                           *
        *  Thank you very much for using Q-Chem.  Have a nice day.  *
        *                                                           *
        *************************************************************


Done Job For Fragment 0
calling putenv with: QCSCRATCH=/global/cscratch1/sd/meili 
calling putenv with: QCLOCALSCR=/tmp 
calling putenv with: QCTHREADS=32 
Creating input file /tmp/qchem64368/Frg2.input
using default PutDataFrgm: nothing
calling putenv with: QCSCRATCH=/tmp/qchem64368/ 
calling putenv with: QCLOCALSCR=/tmp/qchem64368/ 
Spawning Job For Fragment 1
                  Welcome to Q-Chem
     A Quantum Leap Into The Future Of Chemistry


 Q-Chem 5.2, Q-Chem, Inc., Pleasanton, CA (2019)

 License issued to: National Energy Research Scientific Computing Center

 Yihan Shao,  Zhengting Gan,  E. Epifanovsky,  A. T. B. Gilbert,  M. Wormit,  
 J. Kussmann,  A. W. Lange,  A. Behn,  Jia Deng,  Xintian Feng,  D. Ghosh,  
 M. Goldey,  P. R. Horn,  L. D. Jacobson,  I. Kaliman,  T. Kus,  A. Landau,  
 Jie Liu,  E. I. Proynov,  R. M. Richard,  R. P. Steele,  E. J. Sundstrom,  
 H. L. Woodcock III,  P. M. Zimmerman,  D. Zuev,  B. Albrecht,  E. Alguire,  
 S. A. Baeppler,  D. Barton,  Z. Benda,  Y. A. Bernard,  E. J. Berquist,  
 K. B. Bravaya,  H. Burton,  D. Casanova,  Chun-Min Chang,  Yunqing Chen,  
 A. Chien,  K. D. Closser,  M. P. Coons,  S. Coriani,  S. Dasgupta,  
 A. L. Dempwolff,  M. Diedenhofen,  Hainam Do,  R. G. Edgar,  Po-Tung Fang,  
 S. Faraji,  S. Fatehi,  Qingguo Feng,  K. D. Fenk,  J. Fosso-Tande,  
 J. Gayvert,  Qinghui Ge,  A. Ghysels,  G. Gidofalvi,  J. Gomes,  
 J. Gonthier,  A. Gunina,  D. Hait,  M. W. D. Hanson-Heine,  
 P. H. P. Harbach,  A. W. Hauser,  M. F. Herbst,  J. E. Herr,  
 E. G. Hohenstein,  Z. C. Holden,  Kerwin Hui,  B. C. Huynh,  T.-C. Jagau,  
 Hyunjun Ji,  B. Kaduk,  K. Khistyaev,  Jaehoon Kim,  P. Klunzinger,  K. Koh,  
 D. Kosenkov,  L. Koulias,  T. Kowalczyk,  C. M. Krauter,  A. Kunitsa,  
 Ka Un Lao,  A. Laurent,  K. V. Lawler,  Joonho Lee,  D. Lefrancois,  
 S. Lehtola,  D. S. Levine,  Yi-Pei Li,  You-Sheng Lin,  Fenglai Liu,  
 E. Livshits,  A. Luenser,  P. Manohar,  E. Mansoor,  S. F. Manzer,  
 Shan-Ping Mao,  Yuezhi Mao,  N. Mardirossian,  A. V. Marenich,  
 T. Markovich,  L. A. Martinez-Martinez,  S. A. Maurer,  N. J. Mayhall,  
 S. C. McKenzie,  J.-M. Mewes,  P. Morgante,  A. F. Morrison,  
 J. W. Mullinax,  K. Nanda,  T. S. Nguyen-Beck,  R. Olivares-Amaya,  
 J. A. Parkhill,  Zheng Pei,  T. M. Perrine,  F. Plasser,  P. Pokhilko,  
 S. Prager,  A. Prociuk,  E. Ramos,  D. R. Rehn,  F. Rob,  M. Scheurer,  
 M. Schneider,  N. Sergueev,  S. M. Sharada,  S. Sharma,  D. W. Small,  
 T. Stauch,  T. Stein,  Yu-Chuan Su,  A. J. W. Thom,  A. Tkatchenko,  
 T. Tsuchimochi,  N. M. Tubman,  L. Vogt,  M. L. Vidal,  O. Vydrov,  
 M. A. Watson,  J. Wenzel,  M. de Wergifosse,  T. A. Wesolowski,  A. White,  
 J. Witte,  A. Yamada,  Jun Yang,  K. Yao,  S. Yeganeh,  S. R. Yost,  
 Zhi-Qiang You,  A. Zech,  Igor Ying Zhang,  Xing Zhang,  Yan Zhao,  
 Ying Zhu,  B. R. Brooks,  G. K. L. Chan,  C. J. Cramer,  M. S. Gordon,  
 W. J. Hehre,  A. Klamt,  M. W. Schmidt,  C. D. Sherrill,  D. G. Truhlar,  
 A. Aspuru-Guzik,  R. Baer,  A. T. Bell,  N. A. Besley,  Jeng-Da Chai,  
 A. E. DePrince, III,  R. A. DiStasio Jr.,  A. Dreuw,  B. D. Dunietz,  
 T. R. Furlani,  Chao-Ping Hsu,  Yousung Jung,  Jing Kong,  D. S. Lambrecht,  
 WanZhen Liang,  C. Ochsenfeld,  V. A. Rassolov,  L. V. Slipchenko,  
 J. E. Subotnik,  T. Van Voorhis,  J. M. Herbert,  A. I. Krylov,  
 P. M. W. Gill,  M. Head-Gordon

 Contributors to earlier versions of Q-Chem not listed above: 
 R. D. Adamson,  B. Austin,  J. Baker,  G. J. O. Beran,  K. Brandhorst,  
 S. T. Brown,  E. F. C. Byrd,  A. K. Chakraborty,  C.-L. Cheng,  
 Siu Hung Chien,  D. M. Chipman,  D. L. Crittenden,  H. Dachsel,  
 R. J. Doerksen,  A. D. Dutoi,  L. Fusti-Molnar,  W. A. Goddard III,  
 A. Golubeva-Zadorozhnaya,  S. R. Gwaltney,  G. Hawkins,  A. Heyden,  
 S. Hirata,  G. Kedziora,  F. J. Keil,  C. Kelley,  Jihan Kim,  R. A. King,  
 R. Z. Khaliullin,  P. P. Korambath,  W. Kurlancheek,  A. M. Lee,  M. S. Lee,  
 S. V. Levchenko,  Ching Yeh Lin,  D. Liotard,  R. C. Lochan,  I. Lotan,  
 P. E. Maslen,  N. Nair,  D. P. O'Neill,  D. Neuhauser,  E. Neuscamman,  
 C. M. Oana,  R. Olson,  B. Peters,  R. Peverati,  P. A. Pieniazek,  
 Y. M. Rhee,  J. Ritchie,  M. A. Rohrdanz,  E. Rosta,  N. J. Russ,  
 H. F. Schaefer III,  N. E. Schultz,  N. Shenvi,  A. C. Simmonett,  A. Sodt,  
 D. Stuck,  K. S. Thanthiriwatte,  V. Vanovschi,  Tao Wang,  A. Warshel,  
 C. F. Williams,  Q. Wu,  X. Xu,  W. Zhang

 Please cite Q-Chem as follows:
 Y. Shao et al., Mol. Phys. 113, 184-215 (2015)
 DOI: 10.1080/00268976.2014.952696

 Q-Chem 5.2.0 for Intel X86 EM64T Linux

 Parts of Q-Chem use Armadillo 8.300.2 (Tropical Shenanigans).
 http://arma.sourceforge.net/

 Q-Chem begins on Sun Sep 26 14:51:05 2021  

Host: cori01
0

     Scratch files written to /tmp/qchem64368//Frg2//
 May1019 |scratch|qcdevops|jenkins|workspace|build_RNUM -1
Processing $rem in /global/common/cori/software/qchem/5.2/config/preferences:
	 MEM_TOTAL  96000 
NAlpha2: 44
NElect   44
Mult     1
Symmetry turned off for PCM/SM12/SMD calculation

Checking the input file for inconsistencies... 	...done.

--------------------------------------------------------------
User input:
--------------------------------------------------------------
$molecule
0 1
 6	-2.7234180002	-0.7600879467	-1.7027729357
 6	0.5105819998	-1.4590879467	-0.2067729357
 6	-1.5614180002	-1.3050879467	-0.9267729357
 6	-1.5274180002	-2.2500879467	0.0482270643
 7	-0.2804180002	-0.8150879467	-1.0527729357
 7	-0.2184180002	-2.3360879467	0.4732270643
 1	1.5755819998	-1.3000879467	-0.0877729357
 1	0.1415819998	-2.9630879467	1.1852270643
 1	-2.3704180002	-2.8170879467	0.4152270643
 1	-3.4424180002	-1.5650879467	-1.8547729357
 1	-2.3844180002	-0.4330879467	-2.6837729357
 1	-3.2152500002	0.0779020533	-1.1871429357
$end
$rem
EDA2		1
METHOD		WB97X-V
BASIS		DEF2-TZVPD
XC_GRID		000099000590
NL_GRID		1
UNRESTRICTED		FALSE
MAX_SCF_CYCLES		200
SYMMETRY		FALSE
SYM_IGNORE		TRUE
BASIS_LIN_DEP_THRESH		6
THRESH		14
SCF_CONVERGENCE		8
SCF_PRINT_FRGM		TRUE
SOLVENT_METHOD		SMD
!required keywords
JOBTYPE		SP
SYM_IGNORE		TRUE
SUBSYSTEM		TRUE
GEN_SCFMAN		TRUE
CHILD_INSTRUCTION		2
SYM_IGNORE		TRUE
SCFMI		0
RI_K 0		
PARI_K 0		
MIN_PARI_K 0		
IARI_K 0		
OCC_RI_K 0		
PURECART		1111
MEM_STATIC		2000
MEM_TOTAL		96000
GUI		0
CHILD_MP		1
CHILD_MP_ORDERS		232
FRZ_RELAX		0
FRZ_RELAX_METHOD		0
EDA_CLS_ELEC		1
EDA_CLS_DISP		0
FRZ_ORTHO_DECOMP		1
EDA2		FALSE
FRGM_METHOD		FALSE
CIS_N_ROOTS  0
LOCAL_CIS    0
CIS_RLX_DNS  1
$end
$smx
SOLVENT			WATER
$end
--------------------------------------------------------------
 ----------------------------------------------------------------
             Standard Nuclear Orientation (Angstroms)
    I     Atom           X                Y                Z
 ----------------------------------------------------------------
    1      C      -2.7234180002    -0.7600879467    -1.7027729357
    2      C       0.5105819998    -1.4590879467    -0.2067729357
    3      C      -1.5614180002    -1.3050879467    -0.9267729357
    4      C      -1.5274180002    -2.2500879467     0.0482270643
    5      N      -0.2804180002    -0.8150879467    -1.0527729357
    6      N      -0.2184180002    -2.3360879467     0.4732270643
    7      H       1.5755819998    -1.3000879467    -0.0877729357
    8      H       0.1415819998    -2.9630879467     1.1852270643
    9      H      -2.3704180002    -2.8170879467     0.4152270643
   10      H      -3.4424180002    -1.5650879467    -1.8547729357
   11      H      -2.3844180002    -0.4330879467    -2.6837729357
   12      H      -3.2152500002     0.0779020533    -1.1871429357
 ----------------------------------------------------------------
 Nuclear Repulsion Energy =         224.78790616 hartrees
 There are       22 alpha and       22 beta electrons
 Requested basis set is def2-TZVPD
 There are 108 shells and 276 basis functions

 Total QAlloc Memory Limit  96000 MB
 Mega-Array Size      1956 MB
 MEM_STATIC part      2000 MB
 
 Citation of the SMD model:
 Marenich, A.V.; Cramer, C.J.; Truhlar, D.G.
 J. Phys. Chem. B 2009, 113, 6378-6396.
 iSolventCode=           1
 Solvent: water                                                           
 
 vradii
            1           2           3           4           5           6
    1   1.8500000   1.8500000   1.8500000   1.8500000   1.8900000   1.8900000
            7           8           9          10          11          12
    1   1.2000000   1.2000000   1.2000000   1.2000000   1.2000000   1.2000000
 Changing PCM_VDW_RADII to SMD_RADIUS
 Discretize the solute cavity surface with Lebedev spheres
	Using 110 Lebedev grid points for each H atom
	Using 194 Lebedev grid points for other atoms
	Atomic van der Waals radii will be scaled by 1.20
 Remove points where switching function is < 1.0e-08
 Keep 902 surface tesserae and discard 922 interior tesserae
 Molecular Surface Area = 116.229 Angst**2

                       Distance Matrix (Angstroms)
             C (  1)   C (  2)   C (  3)   C (  4)   N (  5)   N (  6)
   C (  2)  3.631167
   C (  3)  1.499815  2.198932
   C (  4)  2.591624  2.200943  1.358236
   N (  5)  2.528591  1.325192  1.377293  2.196915
   N (  6)  3.673388  1.327769  2.196955  1.378950  2.155449
   H (  7)  4.623984  1.083359  3.247263  3.248016  2.147367  2.146265
   H (  8)  4.626227  2.082268  3.179578  2.141658  3.130596  1.014728
   H (  9)  2.973513  3.245182  2.177519  1.080198  3.245170  2.205862
   H ( 10)  1.089995  4.284081  2.113515  2.785293  3.347230  4.050704
   H ( 11)  1.088215  3.945786  2.127149  3.391130  2.689405  4.275467
   H ( 12)  1.100000  4.147926  2.171546  3.129609  3.070623  4.191083
             H (  7)   H (  8)   H (  9)   H ( 10)   H ( 11)
   H (  8)  2.538199
   H (  9)  4.257372  2.631418
   H ( 10)  5.326616  4.903168  2.805279
   H ( 11)  4.813783  5.267897  3.909917  1.757279
   H ( 12)  5.104855  5.113128  3.415011  1.787946  1.786419
 
 A cutoff of  1.0D-14 yielded   5736 shell pairs
 There are     38170 function pairs (     48949 Cartesian)
 Smallest overlap matrix eigenvalue = 1.80E-06

 Scale SEOQF with 1.000000e-01/1.000000e-01/1.000000e-01

 Standard Electronic Orientation quadrupole field applied
 Nucleus-field energy     =     0.0000000077 hartrees
 Guess from superposition of atomic densities
 Warning:  Energy on first SCF cycle will be non-variational
 SAD guess density has 43.559167 electrons

 -----------------------------------------------------------------------
  General SCF calculation program by
  Eric Jon Sundstrom, Paul Horn, Yuezhi Mao, Dmitri Zuev, Alec White,
  David Stuck, Shaama M.S., Shane Yost, Joonho Lee, David Small,
  Daniel Levine, Susi Lehtola, Hugh Burton, Evgeny Epifanovsky
 -----------------------------------------------------------------------
 Exchange:     0.1670 Hartree-Fock + 1.0000 wB97X-V + LR-HF
 Correlation:  1.0000 wB97X-V
 Using Euler-Maclaurin-Lebedev (99,590) quadrature formula
 Nonlocal Correlation:  VV10 with C = 0.0100 and b = 6.00 and scale = 1.00000
 Grid used for NLC:  SG-1 standard quadrature
Energy prior to optimization (guess energy) = -265.142401854563
Begin Timing: Total SCF Calculation
begin iterations for algorithm: DIIS         
the SCF tolerance is set to 1.00e-08
    1    -265.1424018546      7.23e-03     00000 
    2    -265.1000504067      7.39e-03     00000 
    3    -265.5668964699      7.25e-04     00000 
    4    -265.5715891144      3.81e-04     00000 
    5    -265.5729969669      1.12e-04     00000 
    6    -265.5731573511      4.20e-05     00000 
    7    -265.5731822165      1.18e-05     00000 
    8    -265.5731848944      3.43e-06     00000 
    9    -265.5731851941      1.67e-06     00000 
   10    -265.5731852460      4.10e-07     00000 
   11    -265.5731852514      7.85e-08     00000 
   12    -265.5731852516      3.98e-08     00000 
   13    -265.5731852516      1.10e-08     00000 
   14    -265.5731852517      4.29e-09     00000 Convergence criterion met
Timing for Total SCF: 932.00s (wall), 1850.67s (cpu)
(3)  G-ENP(liq) elect-nuc-pol free energy of system     -265.573185252 a.u.
(4)  G-CDS(liq) cavity-dispersion-solvent structure 
     free energy                                                2.1144 kcal/mol
(6)  G-S(liq) free energy of system                     -265.569815779 a.u.
E_pcm = -0.0227275212
E_cds = 0.0033694722
Multipole orders to be included
        2
        3
computing dipole RHS
computing quadrupole RHS
total number of RHS in solve_reponses: 8
RHS batch sizes
        8
Beginning Block Conjugate Gradient Iterations. Batch Number: 0
computing hessian-vector products by finite difference
              1      5.88e-01     00000 Conjugate Gradient Iteration
computing hessian-vector products by finite difference
              2      1.77e-01     00000 Conjugate Gradient Iteration
computing hessian-vector products by finite difference
              3      4.39e-02     00000 Conjugate Gradient Iteration
computing hessian-vector products by finite difference
              4      1.33e-02     00000 Conjugate Gradient Iteration
computing hessian-vector products by finite difference
              5      2.60e-03     00000 Conjugate Gradient Iteration
computing hessian-vector products by finite difference
              6      4.99e-04     00000 Conjugate Gradient Iteration
computing hessian-vector products by finite difference
              7      9.84e-05     00000 Conjugate Gradient Iteration
computing hessian-vector products by finite difference
              8      1.56e-05     00000 Conjugate Gradient Iteration
computing hessian-vector products by finite difference
              9      2.63e-06     00000 Conjugate Gradient Iteration
computing hessian-vector products by finite difference
             10      4.90e-07     00000 Conjugate Gradient Iteration
computing hessian-vector products by finite difference
             11      8.25e-08     00000 Conjugate Gradient Iteration
computing hessian-vector products by finite difference
             12      1.17e-08     00000 Conjugate Gradient Iteration
computing hessian-vector products by finite difference
             13      3.15e-09     00000 CG Converged
batch 0 complete
Done Calculating Responses
TESTING ORTHOGONALIZATION OF MULTIPOLE BASIS
Multipole virts passed orthogonality test
Virts Per Order
           66
          110
 
 --------------------------------------------------------------
 
                    Orbital Energies (a.u.)
 --------------------------------------------------------------
 
 Alpha MOs
 -- Occupied --
-14.4588 -14.3850 -10.3163 -10.2829 -10.2820 -10.2567  -1.1521  -0.9934
 -0.8953  -0.8221  -0.7221  -0.6821  -0.6626  -0.5625  -0.5525  -0.5365
 -0.5090  -0.4953  -0.4753  -0.3772  -0.3751  -0.3212
 -- Virtual --
  0.0689   0.0878   0.0973   0.1069   0.1182   0.1301   0.1367   0.1470
  0.1704   0.1756   0.1794   0.1881   0.2003   0.2054   0.2274   0.2452
  0.2470   0.2551   0.2611   0.2625   0.2695   0.2920   0.2991   0.3081
  0.3147   0.3178   0.3227   0.3274   0.3314   0.3420   0.3523   0.3581
  0.3595   0.3697   0.3805   0.3855   0.3966   0.3971   0.4128   0.4200
  0.4213   0.4286   0.4358   0.4541   0.4617   0.4704   0.4722   0.4816
  0.4889   0.4943   0.4985   0.5203   0.5240   0.5435   0.5546   0.5626
  0.5709   0.5822   0.5861   0.5919   0.6092   0.6152   0.6213   0.6310
  0.6539   0.6624   0.6667   0.6856   0.6970   0.7032   0.7071   0.7291
  0.7345   0.7431   0.7747   0.7767   0.7835   0.7883   0.7917   0.7944
  0.8089   0.8238   0.8284   0.8410   0.8710   0.8819   0.8840   0.8943
  0.9173   0.9354   0.9604   0.9894   1.0042   1.0093   1.0212   1.0431
  1.0704   1.0768   1.0965   1.1016   1.1349   1.1711   1.1793   1.2170
  1.2318   1.2379   1.2795   1.3249   1.3431   1.3630   1.3850   1.4282
  1.4539   1.4654   1.5258   1.5583   1.6177   1.6367   1.6574   1.6797
  1.7018   1.7489   1.8046   1.8319   1.8436   1.8606   1.8787   1.8852
  1.9124   1.9438   1.9491   1.9541   1.9715   1.9970   2.0068   2.0133
  2.0293   2.0660   2.0942   2.1321   2.1884   2.2375   2.2531   2.2665
  2.3062   2.3234   2.3929   2.4041   2.4344   2.4593   2.4723   2.5079
  2.5440   2.5798   2.5914   2.6321   2.6447   2.6621   2.6901   2.7242
  2.7588   2.7717   2.8033   2.8342   2.8617   2.9006   2.9218   2.9977
  3.0135   3.0318   3.0575   3.0718   3.0900   3.1204   3.1445   3.1825
  3.1856   3.2160   3.2356   3.2485   3.2755   3.2942   3.3228   3.3387
  3.3620   3.3668   3.3867   3.4080   3.4118   3.4327   3.4770   3.4909
  3.5035   3.5435   3.5667   3.6038   3.6236   3.6629   3.6911   3.7183
  3.7484   3.7900   3.8306   3.8697   3.9038   3.9480   3.9721   4.0416
  4.0857   4.1155   4.1304   4.2414   4.3003   4.3701   4.4337   4.4793
  4.5119   4.5834   4.6033   4.7559   4.7719   4.8228   4.8373   4.8731
  4.9273   4.9660   5.0247   5.0435   5.0561   5.0896   5.1630   5.2013
  5.2422   5.3072   5.3831   5.4509   5.4916   5.5377   5.5860   5.6083
  5.6718   5.7040   5.7507   5.7986   5.8779   6.0337   6.2342   6.2959
 22.6236  22.8714  23.1305  23.3917  32.6533  32.7791
 --------------------------------------------------------------
 
          Ground-State Mulliken Net Atomic Charges

     Atom                 Charge (a.u.)
  ----------------------------------------
      1 C                    -0.828568
      2 C                    -0.250989
      3 C                     0.543169
      4 C                    -0.581810
      5 N                    -0.547141
      6 N                     0.074082
      7 H                     0.344259
      8 H                     0.198501
      9 H                     0.320182
     10 H                     0.252050
     11 H                     0.256414
     12 H                     0.219852
  ----------------------------------------
  Sum of atomic charges =     0.000000

 -----------------------------------------------------------------
                    Cartesian Multipole Moments
 -----------------------------------------------------------------
    Charge (ESU x 10^10)
                 0.0000
    Dipole Moment (Debye)
         X      -0.0382      Y      -3.5243      Z       3.5564
       Tot       5.0069
    Quadrupole Moments (Debye-Ang)
        XX     -29.1310     XY       0.4786     YY     -25.6568
        XZ       1.8656     YZ      -6.3831     ZZ     -37.9644
    Octopole Moments (Debye-Ang^2)
       XXX     102.1377    XXY      40.6971    XYY      34.1029
       YYY     127.5846    XXZ      18.1620    XYZ      -1.0695
       YYZ      41.9097    XZZ      35.2408    YZZ      49.2509
       ZZZ      72.1360
    Hexadecapole Moments (Debye-Ang^3)
      XXXX    -543.3406   XXXY    -116.0333   XXYY    -168.5752
      XYYY    -130.5418   YYYY    -518.9431   XXXZ    -121.2990
      XXYZ     -12.4321   XYYZ     -45.2247   YYYZ    -103.3594
      XXZZ    -137.0344   XYZZ     -46.1906   YYZZ    -130.8897
      XZZZ    -122.5197   YZZZ     -52.7398   ZZZZ    -267.0184
 -----------------------------------------------------------------
Archival summary:
1\1\nid00531\SP\ProcedureUnspecified\BasisUnspecified\246\meili\SunSep2619:13:462021SunSep2619:13:462021\0\\#,ProcedureUnspecified,BasisUnspecified,\\0,1\N\C,1,1.32519\H,2,1.08336,1,125.844\N,2,1.32777,1,108.676,3,-179.93,0\H,4,1.01473,2,124.938,1,179.785,0\C,1,1.37729,2,108.897,3,179.146,0\C,6,1.35824,1,106.853,2,1.34273,0\H,7,1.0802,6,126.126,1,178.454,0\C,6,1.49981,1,122.955,2,177.589,0\H,9,1.08821,6,109.528,1,33.3047,0\H,9,1.09,6,108.351,1,150.364,0\H,9,1.1,6,112.377,1,-88.5686,0\\\@

 Total job time:  15764.71s(wall), 31285.13s(cpu) 
 Sun Sep 26 19:13:50 2021

        *************************************************************
        *                                                           *
        *  Thank you very much for using Q-Chem.  Have a nice day.  *
        *                                                           *
        *************************************************************


Done Job For Fragment 1
calling putenv with: QCSCRATCH=/global/cscratch1/sd/meili 
calling putenv with: QCLOCALSCR=/tmp 
calling putenv with: QCTHREADS=32 
Doing General SCFMI
 Exchange:     0.1670 Hartree-Fock + 1.0000 wB97X-V + LR-HF
 Correlation:  1.0000 wB97X-V
 Using Euler-Maclaurin-Lebedev (99,590) quadrature formula
 Nonlocal Correlation:  VV10 with C = 0.0100 and b = 6.00 and scale = 1.00000
 Grid used for NLC:  SG-1 standard quadrature
performing fock build before subrot guess so that all methods have access
Printing subrot_rss_gen Method Specification:
Occupied Subspace Method is 0
Virtual Subspace Method is 0
Energy of the unrelaxed supersystem initial determinant -474.769589476548
performing fock build before subrot guess so that all methods have access
Printing subrot_rss_gen Method Specification:
Occupied Subspace Method is 0
Virtual Subspace Method is 0
Energy of the unrelaxed supersystem initial determinant w/ solvent -474.830049910007
write pseudocanon occs and virts to disk
write pseudocanon orbital energies to disk
Tolerance of ortho_decomp_scf: 1.00e-06
GDM subspace size: 20
Beginning the Orthogonal Decomposition of the Initial Supersystem Wavefunction
    1    -474.7634950640      3.50e-02     ortho_decomp Preconditoned Steepest Descent
    2    -474.7654069429      6.54e-04     ortho_decomp BFGS Step
    3    -474.7654109811      4.66e-05     ortho_decomp BFGS Step
    4    -474.7654109871      1.51e-06     ortho_decomp BFGS Step
    5    -474.7654109872      4.49e-08     ortho_decomp 00000 Convergence criterion met
 Hartree-Fock
 Hartree-Fock
 Hartree-Fock
Doing General SCFMI
 Exchange:     0.1670 Hartree-Fock + 1.0000 wB97X-V + LR-HF
 Correlation:  1.0000 wB97X-V
 Using Euler-Maclaurin-Lebedev (99,590) quadrature formula
 Nonlocal Correlation:  VV10 with C = 0.0100 and b = 6.00 and scale = 1.00000
 Grid used for NLC:  SG-1 standard quadrature
performing fock build at end of subrot_r(subrot) constructor so that all methods have access
<S^2> of initial wavefunction before polarization iterations 0.0000000000
Beginning iterations for the determination of the polarized wavefunction
Energy prior to optimization (guess energy) = -474.830049910006
Begin Timing: Total SCF Calculation
begin iterations for algorithm: DIIS         
the SCF tolerance is set to 1.00e-08
    1    -474.8300499100      3.89e-05     00000 
    2    -474.8301131507      2.95e-05     00000 
    3    -474.8301323366      8.65e-06     00000 
    4    -474.8301355137      3.88e-06     00000 
    5    -474.8301360594      1.18e-06     00000 
    6    -474.8301361442      5.73e-07     00000 
    7    -474.8301361573      1.95e-07     00000 
    8    -474.8301361589      7.52e-08     00000 
    9    -474.8301361591      3.50e-08     00000 
   10    -474.8301361591      8.54e-09     00000 Convergence criterion met
write pseudocanon occs and virts to disk
write pseudocanon orbital energies to disk
Timing for Total SCF: 2806.00s (wall), 5578.98s (cpu)
<S^2> of polarized wavefunction after polarization iterations 0.0000000000
relaxing scfmi constraint to allow all rotations in the entire AO span
Doing General SCFMI
 Exchange:     0.1670 Hartree-Fock + 1.0000 wB97X-V + LR-HF
 Correlation:  1.0000 wB97X-V
 Using Euler-Maclaurin-Lebedev (99,590) quadrature formula
 Nonlocal Correlation:  VV10 with C = 0.0100 and b = 6.00 and scale = 1.00000
 Grid used for NLC:  SG-1 standard quadrature
performing fock build at end of subrot_r(subrot) constructor so that all methods have access
<S^2> of polarized wavefunction before ct-allowed iterations 0.0000000000
Beginning iterations for the determination of the CT-Allowed wavefunction
Energy prior to optimization (guess energy) = -474.830136159116
Begin Timing: Total SCF Calculation
begin iterations for algorithm: DIIS         
the SCF tolerance is set to 1.00e-08
    1    -474.8301361591      6.27e-05     00000 
    2    -474.8305497300      6.18e-06     00000 
    3    -474.8305645354      1.27e-06     00000 
    4    -474.8305652004      8.96e-07     00000 
    5    -474.8305652692      1.55e-07     00000 
    6    -474.8305652745      8.73e-08     00000 
    7    -474.8305652752      1.37e-08     00000 
    8    -474.8305652753      6.18e-09     00000 Convergence criterion met
write pseudocanon occs and virts to disk
write pseudocanon orbital energies to disk
Timing for Total SCF: 2238.00s (wall), 4392.26s (cpu)
<S^2> of ct_allowed wavefunction after ct-allowed iterations 0.0000000000

================================
        Results of EDA2         
================================
Basic EDA Quantities
--------------------
Fragment Energies (Ha):
1 -209.2505221143
2 -265.5698157795
--------------------
  E_prp (kJ/mol) = -0.0000
  E_sol (kJ/mol) = -26.3582
  E_frz (kJ/mol) = 22.9476
  E_pol (kJ/mol) = -0.2264
  E_vct (kJ/mol) = -1.1267
  E_int (kJ/mol) = -4.7636
--------------------


Initial Wavefunction Decomposition
--------------------
  --------------------
  Orthogonal Fragment Subspace Decomposition:
  --------------------
     E_elec   (ELEC)   (kJ/mol) = 8.6923
     E_pauli  (PAULI)  (kJ/mol) = 26.5736
     E_disp   (DISP)   (kJ/mol) = -12.3183
     --------------------
     Terms summing to E_pauli:
     --------------------
        E_kep_pauli       (kJ/mol) = 33.9184
        E_disp_free_pauli (kJ/mol) = -7.3448
  --------------------
  Classical Frozen Decomposition:
  --------------------
     E_cls_elec  (CLS ELEC)  (kJ/mol) = 24.2798
     E_cls_pauli (CLS PAULI) (kJ/mol) = -1.3322
    [E_mod_pauli (MOD PAULI) (kJ/mol) = 10.9861 (CLS PAULI - DISP from orthogonal decomposition) ]
  --------------------
--------------------

Simplified EDA Summary (kJ/mol)
--------------------
 PREPARATION     -0.0000
 SOLVATION       -26.3582
 FROZEN          35.2659      (does not include dispersion)
[PAULI           26.5736]     (if this is negligible, then frozen describes electrostatics)
 DISPERSION      -12.3183
 POLARIZATION    -0.2264
 CHARGE TRANSFER -1.1267
 TOTAL           -4.7636     (PRP + SOL + FRZ + DISP + POL + CT)
--------------------
 
 --------------------------------------------------------------
 
                    Orbital Energies (a.u.)
 --------------------------------------------------------------
 
 Alpha MOs
 -- Occupied --
-19.1843 -14.4582 -14.4234 -14.3835 -10.3763 -10.3153 -10.2823 -10.2813
-10.2601 -10.2564  -1.1783  -1.1513  -1.0413  -0.9925  -0.8947  -0.8630
 -0.8217  -0.7215  -0.7071  -0.6814  -0.6621  -0.6509  -0.5904  -0.5680
 -0.5605  -0.5517  -0.5359  -0.5191  -0.5086  -0.4949  -0.4944  -0.4799
 -0.4747  -0.3879  -0.3789  -0.3735  -0.3689  -0.3202
 -- Virtual --
  0.0625   0.0799   0.0833   0.0898   0.1014   0.1037   0.1091   0.1144
  0.1198   0.1255   0.1281   0.1372   0.1442   0.1491   0.1563   0.1712
  0.1722   0.1766   0.1915   0.1928   0.1959   0.1998   0.2036   0.2183
  0.2236   0.2326   0.2363   0.2448   0.2464   0.2496   0.2586   0.2631
  0.2713   0.2790   0.2816   0.2875   0.2971   0.3003   0.3023   0.3129
  0.3162   0.3201   0.3248   0.3269   0.3293   0.3372   0.3421   0.3466
  0.3514   0.3524   0.3589   0.3612   0.3637   0.3664   0.3676   0.3756
  0.3813   0.3865   0.3893   0.3917   0.3961   0.3980   0.4052   0.4095
  0.4136   0.4175   0.4252   0.4267   0.4306   0.4360   0.4425   0.4518
  0.4540   0.4602   0.4675   0.4691   0.4776   0.4816   0.4823   0.4869
  0.4910   0.4948   0.5011   0.5061   0.5078   0.5100   0.5236   0.5268
  0.5326   0.5395   0.5420   0.5449   0.5548   0.5663   0.5679   0.5723
  0.5808   0.5879   0.5928   0.5980   0.6077   0.6087   0.6188   0.6258
  0.6260   0.6397   0.6409   0.6469   0.6535   0.6615   0.6707   0.6782
  0.6819   0.6876   0.6983   0.7000   0.7100   0.7155   0.7272   0.7341
  0.7405   0.7428   0.7544   0.7560   0.7632   0.7663   0.7773   0.7882
  0.7926   0.8032   0.8051   0.8093   0.8106   0.8140   0.8178   0.8245
  0.8296   0.8356   0.8411   0.8566   0.8699   0.8724   0.8751   0.8816
  0.8885   0.8945   0.8970   0.9092   0.9265   0.9374   0.9429   0.9495
  0.9692   0.9748   0.9840   0.9927   0.9977   1.0121   1.0201   1.0274
  1.0479   1.0630   1.0688   1.0773   1.0971   1.1062   1.1083   1.1121
  1.1270   1.1371   1.1602   1.1646   1.1785   1.1977   1.2135   1.2191
  1.2379   1.2498   1.2636   1.2669   1.2883   1.2966   1.3126   1.3384
  1.3405   1.3552   1.3693   1.3820   1.4006   1.4190   1.4319   1.4598
  1.4691   1.5022   1.5327   1.5429   1.5551   1.5611   1.5939   1.6352
  1.6662   1.6709   1.6908   1.7154   1.7172   1.7503   1.7561   1.7597
  1.7783   1.8284   1.8397   1.8695   1.8775   1.8926   1.8958   1.9061
  1.9153   1.9227   1.9355   1.9526   1.9565   1.9567   1.9674   1.9721
  1.9808   2.0018   2.0083   2.0192   2.0288   2.0393   2.0492   2.0726
  2.0853   2.0918   2.1115   2.1366   2.1568   2.1758   2.1977   2.2153
  2.2337   2.2587   2.2664   2.2735   2.2826   2.3125   2.3290   2.3369
  2.3488   2.3583   2.3914   2.4232   2.4273   2.4560   2.4634   2.4778
  2.4950   2.4959   2.5249   2.5418   2.5625   2.5817   2.5920   2.5971
  2.6164   2.6442   2.6528   2.6569   2.6858   2.7018   2.7102   2.7256
  2.7366   2.7657   2.7840   2.7887   2.8130   2.8353   2.8510   2.8681
  2.8766   2.9025   2.9131   2.9400   2.9651   2.9836   3.0107   3.0200
  3.0354   3.0408   3.0645   3.0886   3.1056   3.1105   3.1365   3.1510
  3.1557   3.1761   3.1903   3.1956   3.2134   3.2362   3.2419   3.2564
  3.2627   3.2802   3.2972   3.3032   3.3135   3.3214   3.3268   3.3516
  3.3558   3.3632   3.3744   3.3847   3.3963   3.4134   3.4273   3.4316
  3.4390   3.4646   3.4830   3.4980   3.5123   3.5296   3.5524   3.5714
  3.5748   3.5825   3.6167   3.6256   3.6407   3.6577   3.6770   3.6831
  3.7029   3.7188   3.7342   3.7578   3.7883   3.8111   3.8428   3.8818
  3.8858   3.9163   3.9215   3.9596   3.9820   3.9857   4.0414   4.0605
  4.1005   4.1184   4.1250   4.1424   4.1907   4.2518   4.2811   4.3168
  4.3786   4.4424   4.4695   4.4878   4.5234   4.5754   4.5875   4.6086
  4.6107   4.6476   4.6845   4.7642   4.7847   4.8276   4.8384   4.8465
  4.8938   4.9371   4.9429   4.9510   4.9713   4.9813   5.0375   5.0699
  5.0866   5.0989   5.1676   5.1735   5.2018   5.2235   5.2642   5.2856
  5.3401   5.3499   5.3795   5.3932   5.3969   5.4634   5.4701   5.5087
  5.5156   5.5468   5.5552   5.5969   5.6288   5.6939   5.7254   5.7786
  5.7869   5.8203   5.9030   5.9283   6.0514   6.1451   6.2416   6.2862
  6.3095   6.5378   6.6854   6.7577   6.8307   7.0163   7.2462   7.3350
 22.6294  22.6365  22.9021  23.1684  23.4135  23.6071  32.4843  32.6830
 32.8199  44.3682
 --------------------------------------------------------------
 
          Ground-State Mulliken Net Atomic Charges

     Atom                 Charge (a.u.)
  ----------------------------------------
      1 C                    -0.787571
      2 C                     0.491983
      3 O                    -0.676920
      4 N                    -0.292541
      5 H                     0.252227
      6 H                     0.225816
      7 H                     0.266218
      8 H                     0.252447
      9 H                     0.266829
     10 C                    -0.900607
     11 C                    -0.298323
     12 C                     0.544237
     13 C                    -0.596787
     14 N                    -0.453220
     15 N                     0.078342
     16 H                     0.337554
     17 H                     0.208305
     18 H                     0.336062
     19 H                     0.258917
     20 H                     0.262232
     21 H                     0.224798
  ----------------------------------------
  Sum of atomic charges =     0.000000

 -----------------------------------------------------------------
                    Cartesian Multipole Moments
 -----------------------------------------------------------------
    Charge (ESU x 10^10)
                 0.0000
    Dipole Moment (Debye)
         X       5.2342      Y      -4.6857      Z       5.2760
       Tot       8.7858
    Quadrupole Moments (Debye-Ang)
        XX     -41.9751     XY       9.0575     YY     -52.0152
        XZ       6.8293     YZ      -6.9077     ZZ     -58.7287
    Octopole Moments (Debye-Ang^2)
       XXX      29.9258    XXY       6.0280    XYY      18.8421
       YYY     -24.9162    XXZ      11.6536    XYZ       2.6257
       YYZ      21.8456    XZZ       7.1295    YZZ      -3.7331
       ZZZ      23.9669
    Hexadecapole Moments (Debye-Ang^3)
      XXXX    -886.6472   XXXY    -310.8371   XXYY    -335.5880
      XYYY    -311.3220   YYYY   -1256.9738   XXXZ    -164.8551
      XXYZ     -31.7405   XYYZ     -64.3806   YYYZ    -185.9311
      XXZZ    -222.7012   XYZZ    -124.6769   YYZZ    -292.1086
      XZZZ    -192.9841   YZZZ    -144.6365   ZZZZ    -434.4231
 -----------------------------------------------------------------
Archival summary:
1\1\nid00531\SP\ProcedureUnspecified\BasisUnspecified\13611\meili\SunSep2621:56:312021SunSep2621:56:312021\0\\#,ProcedureUnspecified,BasisUnspecified,\\0,1\N\C,1,1.32519\H,2,1.08336,1,125.844\N,2,1.32777,1,108.676,3,-179.93,0\H,4,1.01473,2,124.938,1,179.785,0\C,1,1.37729,2,108.897,3,179.146,0\C,6,1.35824,1,106.853,2,1.34273,0\H,7,1.0802,6,126.126,1,178.454,0\C,6,1.49981,1,122.955,2,177.589,0\H,9,1.08821,6,109.528,1,33.3047,0\H,9,1.09,6,108.351,1,150.364,0\H,9,1.1,6,112.377,1,-88.5686,0\H,3,3.00183,2,91.0724,1,93.754,0\N,13,1.01278,3,87.5203,2,-134.885,0\H,14,1.00249,13,119.319,3,-71.7831,0\C,14,1.32319,13,114.736,3,86.8301,0\O,16,1.2275,14,121.717,13,-0.580355,0\C,16,1.51557,14,117.221,13,179.174,0\H,18,1.07743,16,108.24,14,-74.617,0\H,18,1.08943,16,107.792,14,171.106,0\H,18,1.1,16,113.692,14,50.1327,0\\\@

 Total job time:  31422.80s(wall), 19362.31s(cpu) 
 Sun Sep 26 21:56:34 2021

        *************************************************************
        *                                                           *
        *  Thank you very much for using Q-Chem.  Have a nice day.  *
        *                                                           *
        *************************************************************


