
Running Job 1 of 1 SSI-057GLU-061ARG-1_PCM_TZVPD.in
qchem SSI-057GLU-061ARG-1_PCM_TZVPD.in_17842.0 /tmp/qchem17842/ 0
/global/common/cori/software/qchem/5.2/exe/qcprog.exe_s SSI-057GLU-061ARG-1_PCM_TZVPD.in_17842.0 /tmp/qchem17842/
                  Welcome to Q-Chem
     A Quantum Leap Into The Future Of Chemistry


 Q-Chem 5.2, Q-Chem, Inc., Pleasanton, CA (2019)

 License issued to: National Energy Research Scientific Computing Center

 Yihan Shao,  Zhengting Gan,  E. Epifanovsky,  A. T. B. Gilbert,  M. Wormit,  
 J. Kussmann,  A. W. Lange,  A. Behn,  Jia Deng,  Xintian Feng,  D. Ghosh,  
 M. Goldey,  P. R. Horn,  L. D. Jacobson,  I. Kaliman,  T. Kus,  A. Landau,  
 Jie Liu,  E. I. Proynov,  R. M. Richard,  R. P. Steele,  E. J. Sundstrom,  
 H. L. Woodcock III,  P. M. Zimmerman,  D. Zuev,  B. Albrecht,  E. Alguire,  
 S. A. Baeppler,  D. Barton,  Z. Benda,  Y. A. Bernard,  E. J. Berquist,  
 K. B. Bravaya,  H. Burton,  D. Casanova,  Chun-Min Chang,  Yunqing Chen,  
 A. Chien,  K. D. Closser,  M. P. Coons,  S. Coriani,  S. Dasgupta,  
 A. L. Dempwolff,  M. Diedenhofen,  Hainam Do,  R. G. Edgar,  Po-Tung Fang,  
 S. Faraji,  S. Fatehi,  Qingguo Feng,  K. D. Fenk,  J. Fosso-Tande,  
 J. Gayvert,  Qinghui Ge,  A. Ghysels,  G. Gidofalvi,  J. Gomes,  
 J. Gonthier,  A. Gunina,  D. Hait,  M. W. D. Hanson-Heine,  
 P. H. P. Harbach,  A. W. Hauser,  M. F. Herbst,  J. E. Herr,  
 E. G. Hohenstein,  Z. C. Holden,  Kerwin Hui,  B. C. Huynh,  T.-C. Jagau,  
 Hyunjun Ji,  B. Kaduk,  K. Khistyaev,  Jaehoon Kim,  P. Klunzinger,  K. Koh,  
 D. Kosenkov,  L. Koulias,  T. Kowalczyk,  C. M. Krauter,  A. Kunitsa,  
 Ka Un Lao,  A. Laurent,  K. V. Lawler,  Joonho Lee,  D. Lefrancois,  
 S. Lehtola,  D. S. Levine,  Yi-Pei Li,  You-Sheng Lin,  Fenglai Liu,  
 E. Livshits,  A. Luenser,  P. Manohar,  E. Mansoor,  S. F. Manzer,  
 Shan-Ping Mao,  Yuezhi Mao,  N. Mardirossian,  A. V. Marenich,  
 T. Markovich,  L. A. Martinez-Martinez,  S. A. Maurer,  N. J. Mayhall,  
 S. C. McKenzie,  J.-M. Mewes,  P. Morgante,  A. F. Morrison,  
 J. W. Mullinax,  K. Nanda,  T. S. Nguyen-Beck,  R. Olivares-Amaya,  
 J. A. Parkhill,  Zheng Pei,  T. M. Perrine,  F. Plasser,  P. Pokhilko,  
 S. Prager,  A. Prociuk,  E. Ramos,  D. R. Rehn,  F. Rob,  M. Scheurer,  
 M. Schneider,  N. Sergueev,  S. M. Sharada,  S. Sharma,  D. W. Small,  
 T. Stauch,  T. Stein,  Yu-Chuan Su,  A. J. W. Thom,  A. Tkatchenko,  
 T. Tsuchimochi,  N. M. Tubman,  L. Vogt,  M. L. Vidal,  O. Vydrov,  
 M. A. Watson,  J. Wenzel,  M. de Wergifosse,  T. A. Wesolowski,  A. White,  
 J. Witte,  A. Yamada,  Jun Yang,  K. Yao,  S. Yeganeh,  S. R. Yost,  
 Zhi-Qiang You,  A. Zech,  Igor Ying Zhang,  Xing Zhang,  Yan Zhao,  
 Ying Zhu,  B. R. Brooks,  G. K. L. Chan,  C. J. Cramer,  M. S. Gordon,  
 W. J. Hehre,  A. Klamt,  M. W. Schmidt,  C. D. Sherrill,  D. G. Truhlar,  
 A. Aspuru-Guzik,  R. Baer,  A. T. Bell,  N. A. Besley,  Jeng-Da Chai,  
 A. E. DePrince, III,  R. A. DiStasio Jr.,  A. Dreuw,  B. D. Dunietz,  
 T. R. Furlani,  Chao-Ping Hsu,  Yousung Jung,  Jing Kong,  D. S. Lambrecht,  
 WanZhen Liang,  C. Ochsenfeld,  V. A. Rassolov,  L. V. Slipchenko,  
 J. E. Subotnik,  T. Van Voorhis,  J. M. Herbert,  A. I. Krylov,  
 P. M. W. Gill,  M. Head-Gordon

 Contributors to earlier versions of Q-Chem not listed above: 
 R. D. Adamson,  B. Austin,  J. Baker,  G. J. O. Beran,  K. Brandhorst,  
 S. T. Brown,  E. F. C. Byrd,  A. K. Chakraborty,  C.-L. Cheng,  
 Siu Hung Chien,  D. M. Chipman,  D. L. Crittenden,  H. Dachsel,  
 R. J. Doerksen,  A. D. Dutoi,  L. Fusti-Molnar,  W. A. Goddard III,  
 A. Golubeva-Zadorozhnaya,  S. R. Gwaltney,  G. Hawkins,  A. Heyden,  
 S. Hirata,  G. Kedziora,  F. J. Keil,  C. Kelley,  Jihan Kim,  R. A. King,  
 R. Z. Khaliullin,  P. P. Korambath,  W. Kurlancheek,  A. M. Lee,  M. S. Lee,  
 S. V. Levchenko,  Ching Yeh Lin,  D. Liotard,  R. C. Lochan,  I. Lotan,  
 P. E. Maslen,  N. Nair,  D. P. O'Neill,  D. Neuhauser,  E. Neuscamman,  
 C. M. Oana,  R. Olson,  B. Peters,  R. Peverati,  P. A. Pieniazek,  
 Y. M. Rhee,  J. Ritchie,  M. A. Rohrdanz,  E. Rosta,  N. J. Russ,  
 H. F. Schaefer III,  N. E. Schultz,  N. Shenvi,  A. C. Simmonett,  A. Sodt,  
 D. Stuck,  K. S. Thanthiriwatte,  V. Vanovschi,  Tao Wang,  A. Warshel,  
 C. F. Williams,  Q. Wu,  X. Xu,  W. Zhang

 Please cite Q-Chem as follows:
 Y. Shao et al., Mol. Phys. 113, 184-215 (2015)
 DOI: 10.1080/00268976.2014.952696

 Q-Chem 5.2.0 for Intel X86 EM64T Linux

 Parts of Q-Chem use Armadillo 8.300.2 (Tropical Shenanigans).
 http://arma.sourceforge.net/

 Q-Chem begins on Sun Sep 26 09:01:48 2021  

Host: cori01
0

     Scratch files written to /tmp/qchem17842//
 May1019 |scratch|qcdevops|jenkins|workspace|build_RNUM -1
Processing $rem in /global/common/cori/software/qchem/5.2/config/preferences:
	 MEM_TOTAL  96000 
NAlpha2: 72
NElect   72
Mult     1
Symmetry turned off for PCM/SM12/SMD calculation

 Q-Chem warning in module libgen/rem_setup.C, line 2803:

 Neither GIA nor STOLL is specified by user. Use STOLL as the default


Checking the input file for inconsistencies... 	...done.

--------------------------------------------------------------
User input:
--------------------------------------------------------------
$comment
SSI-057GLU-061ARG-1.pdb
$end

$molecule
0 1
--
-1 1
C    2.073030356807    0.442436270781   -2.700133585993
C    2.041030356807    1.437436270781   -1.548133585993
O    1.078030356807    1.388436270781   -0.750133585993
O    2.975030356807    2.264436270781   -1.446133585993
H    3.020030356807    0.520436270781   -3.231133585993
H    1.278030356807    0.688436270781   -3.408133585993
H    1.926320356807   -0.590337729219   -2.351053585993
--
1 1
C   -1.678969643193   -2.984563729219    1.928866414007
C   -1.627969643193   -0.644563729219    1.121866414007
N   -0.399969643193   -0.788563729219    0.659866414007
N   -2.251969643193   -1.650563729219    1.718866414007
N   -2.225969643193    0.520436270781    0.994866414007
H    0.106030356807   -1.654563729219    0.768866414007
H    0.072030356807    0.009436270781    0.228866414007
H   -3.071969643193   -1.419563729219    2.283866414007
H   -3.128969643193    0.669436270781    1.417866414007
H   -1.725969643193    1.292436270781    0.580866414007
H   -1.314969643193   -3.395563729219    0.983866414007
H   -2.456969643193   -3.652563729219    2.300866414007
H   -0.863489643193   -2.954280729219    2.666476414007
$end

$rem
JOBTYPE			EDA
EDA2			1
method			wB97X-V
BASIS			def2-TZVPD
XC_GRID			000099000590
NL_GRID			1
UNRESTRICTED		FALSE
MAX_SCF_CYCLES		200
SYMMETRY		FALSE
SYM_IGNORE		TRUE
MEM_STATIC		2000
BASIS_LIN_DEP_THRESH 	6
THRESH 			14
SCF_CONVERGENCE 	8
SCF_PRINT_FRGM 		TRUE
SOLVENT_METHOD          PCM
$end

$PCM
THEORY                  CPCM
METHOD                  SWIG
SOLVER                  INVERSION
RADII                   UFF
HPOINTS                 302
HEAVYPOINTS             302
PRINTLEVEL              0
$END

$SOLVENT
DIELECTRIC              78.390000 ! water
$END
--------------------------------------------------------------
 ----------------------------------------------------------------
             Standard Nuclear Orientation (Angstroms)
    I     Atom           X                Y                Z
 ----------------------------------------------------------------
    1      C       2.0730303568     0.4424362708    -2.7001335860
    2      C       2.0410303568     1.4374362708    -1.5481335860
    3      O       1.0780303568     1.3884362708    -0.7501335860
    4      O       2.9750303568     2.2644362708    -1.4461335860
    5      H       3.0200303568     0.5204362708    -3.2311335860
    6      H       1.2780303568     0.6884362708    -3.4081335860
    7      H       1.9263203568    -0.5903377292    -2.3510535860
    8      C      -1.6789696432    -2.9845637292     1.9288664140
    9      C      -1.6279696432    -0.6445637292     1.1218664140
   10      N      -0.3999696432    -0.7885637292     0.6598664140
   11      N      -2.2519696432    -1.6505637292     1.7188664140
   12      N      -2.2259696432     0.5204362708     0.9948664140
   13      H       0.1060303568    -1.6545637292     0.7688664140
   14      H       0.0720303568     0.0094362708     0.2288664140
   15      H      -3.0719696432    -1.4195637292     2.2838664140
   16      H      -3.1289696432     0.6694362708     1.4178664140
   17      H      -1.7259696432     1.2924362708     0.5808664140
   18      H      -1.3149696432    -3.3955637292     0.9838664140
   19      H      -2.4569696432    -3.6525637292     2.3008664140
   20      H      -0.8634896432    -2.9542807292     2.6664764140
 ----------------------------------------------------------------
 Nuclear Repulsion Energy =         436.84642638 hartrees
 There are       36 alpha and       36 beta electrons
 Requested basis set is def2-TZVPD
 There are 174 shells and 438 basis functions

 Total QAlloc Memory Limit  96000 MB
 Mega-Array Size      1956 MB
 MEM_STATIC part      2000 MB
 Discretize the solute cavity surface with Lebedev spheres
	Using 302 Lebedev grid points for each H atom
	Using 302 Lebedev grid points for other atoms
	Atomic van der Waals radii will be scaled by 1.20
 Remove points where switching function is < 1.0e-08
 Keep 2431 surface tesserae and discard 3609 interior tesserae
 Molecular Surface Area = 247.592 Angst**2
 A cutoff of  1.0D-14 yielded  13056 shell pairs
 There are     82460 function pairs (    103184 Cartesian)
 Smallest overlap matrix eigenvalue = 1.27E-05

 Scale SEOQF with 1.000000e-01/1.000000e-01/1.000000e-01

 Standard Electronic Orientation quadrupole field applied
 Nucleus-field energy     =     0.0000000035 hartrees

 -----------------------------------------------------------------------
  General SCF calculation program by
  Eric Jon Sundstrom, Paul Horn, Yuezhi Mao, Dmitri Zuev, Alec White,
  David Stuck, Shaama M.S., Shane Yost, Joonho Lee, David Small,
  Daniel Levine, Susi Lehtola, Hugh Burton, Evgeny Epifanovsky
 -----------------------------------------------------------------------
================================================================
                 ALMO-EDA with the EDA2 driver                  
================================================================
 The second-generation ALMO-EDA (for DFT):                      
 P. R. Horn, Y. Mao and M. Head-Gordon, PCCP, 18, 23067 (2016)  
 Decomposition of the frozen energy:                            
 P. R. Horn, Y. Mao and M. Head-Gordon, JCP, 144, 114107 (2016) 
 FERF model for polarization:                                   
 P. R. Horn and M. Head-Gordon, JCP, 143, 114111 (2015)         
Using eda2 option set 1
Option set summary: Frozen orbital wavefunction, initial wavefunction decomposition, and nDQ polarization.
--------------------------------
Printing EDA Options
--------------------------------
eda_child_super_basis      0
fragmo_guess_mode          0
child_mp                   1
child_mp_orders            232
cls_elec                   1
cls_disp                   0
scfmi_mode                 1
scfmi_occs                 0
scfmi_virts                0
frz_relax                  0
frz_relax_method           0
dc_pen_start               0
dc_pen_conv                0
dc_pen_increment           0
dc_pen_steps               0
dc_pen_thresh_factor       0
dc_pen_pre_newton_thresh   0
frz_ortho_decomp           1
frz_ortho_decomp_conv      6
frgm_method                2
scfmi_freeze_ss            0
separate_rehyb             0
plot_diff_den              0
eda_nocv                   0
eda_vct_relax              1
disp_free_x                0
disp_free_c                0
eda_bsse                   0
eda_pct_a                  0
eda_covp                   0
--------------------------------
Attempting to make child job directory: /tmp/qchem17842//Frg1/
Attempting to make child job directory: /tmp/qchem17842//Frg2/
Creating input file /tmp/qchem17842/Frg1.input
using default PutDataFrgm: nothing
calling putenv with: QCSCRATCH=/tmp/qchem17842/ 
calling putenv with: QCLOCALSCR=/tmp/qchem17842/ 
Spawning Job For Fragment 0
                  Welcome to Q-Chem
     A Quantum Leap Into The Future Of Chemistry


 Q-Chem 5.2, Q-Chem, Inc., Pleasanton, CA (2019)

 License issued to: National Energy Research Scientific Computing Center

 Yihan Shao,  Zhengting Gan,  E. Epifanovsky,  A. T. B. Gilbert,  M. Wormit,  
 J. Kussmann,  A. W. Lange,  A. Behn,  Jia Deng,  Xintian Feng,  D. Ghosh,  
 M. Goldey,  P. R. Horn,  L. D. Jacobson,  I. Kaliman,  T. Kus,  A. Landau,  
 Jie Liu,  E. I. Proynov,  R. M. Richard,  R. P. Steele,  E. J. Sundstrom,  
 H. L. Woodcock III,  P. M. Zimmerman,  D. Zuev,  B. Albrecht,  E. Alguire,  
 S. A. Baeppler,  D. Barton,  Z. Benda,  Y. A. Bernard,  E. J. Berquist,  
 K. B. Bravaya,  H. Burton,  D. Casanova,  Chun-Min Chang,  Yunqing Chen,  
 A. Chien,  K. D. Closser,  M. P. Coons,  S. Coriani,  S. Dasgupta,  
 A. L. Dempwolff,  M. Diedenhofen,  Hainam Do,  R. G. Edgar,  Po-Tung Fang,  
 S. Faraji,  S. Fatehi,  Qingguo Feng,  K. D. Fenk,  J. Fosso-Tande,  
 J. Gayvert,  Qinghui Ge,  A. Ghysels,  G. Gidofalvi,  J. Gomes,  
 J. Gonthier,  A. Gunina,  D. Hait,  M. W. D. Hanson-Heine,  
 P. H. P. Harbach,  A. W. Hauser,  M. F. Herbst,  J. E. Herr,  
 E. G. Hohenstein,  Z. C. Holden,  Kerwin Hui,  B. C. Huynh,  T.-C. Jagau,  
 Hyunjun Ji,  B. Kaduk,  K. Khistyaev,  Jaehoon Kim,  P. Klunzinger,  K. Koh,  
 D. Kosenkov,  L. Koulias,  T. Kowalczyk,  C. M. Krauter,  A. Kunitsa,  
 Ka Un Lao,  A. Laurent,  K. V. Lawler,  Joonho Lee,  D. Lefrancois,  
 S. Lehtola,  D. S. Levine,  Yi-Pei Li,  You-Sheng Lin,  Fenglai Liu,  
 E. Livshits,  A. Luenser,  P. Manohar,  E. Mansoor,  S. F. Manzer,  
 Shan-Ping Mao,  Yuezhi Mao,  N. Mardirossian,  A. V. Marenich,  
 T. Markovich,  L. A. Martinez-Martinez,  S. A. Maurer,  N. J. Mayhall,  
 S. C. McKenzie,  J.-M. Mewes,  P. Morgante,  A. F. Morrison,  
 J. W. Mullinax,  K. Nanda,  T. S. Nguyen-Beck,  R. Olivares-Amaya,  
 J. A. Parkhill,  Zheng Pei,  T. M. Perrine,  F. Plasser,  P. Pokhilko,  
 S. Prager,  A. Prociuk,  E. Ramos,  D. R. Rehn,  F. Rob,  M. Scheurer,  
 M. Schneider,  N. Sergueev,  S. M. Sharada,  S. Sharma,  D. W. Small,  
 T. Stauch,  T. Stein,  Yu-Chuan Su,  A. J. W. Thom,  A. Tkatchenko,  
 T. Tsuchimochi,  N. M. Tubman,  L. Vogt,  M. L. Vidal,  O. Vydrov,  
 M. A. Watson,  J. Wenzel,  M. de Wergifosse,  T. A. Wesolowski,  A. White,  
 J. Witte,  A. Yamada,  Jun Yang,  K. Yao,  S. Yeganeh,  S. R. Yost,  
 Zhi-Qiang You,  A. Zech,  Igor Ying Zhang,  Xing Zhang,  Yan Zhao,  
 Ying Zhu,  B. R. Brooks,  G. K. L. Chan,  C. J. Cramer,  M. S. Gordon,  
 W. J. Hehre,  A. Klamt,  M. W. Schmidt,  C. D. Sherrill,  D. G. Truhlar,  
 A. Aspuru-Guzik,  R. Baer,  A. T. Bell,  N. A. Besley,  Jeng-Da Chai,  
 A. E. DePrince, III,  R. A. DiStasio Jr.,  A. Dreuw,  B. D. Dunietz,  
 T. R. Furlani,  Chao-Ping Hsu,  Yousung Jung,  Jing Kong,  D. S. Lambrecht,  
 WanZhen Liang,  C. Ochsenfeld,  V. A. Rassolov,  L. V. Slipchenko,  
 J. E. Subotnik,  T. Van Voorhis,  J. M. Herbert,  A. I. Krylov,  
 P. M. W. Gill,  M. Head-Gordon

 Contributors to earlier versions of Q-Chem not listed above: 
 R. D. Adamson,  B. Austin,  J. Baker,  G. J. O. Beran,  K. Brandhorst,  
 S. T. Brown,  E. F. C. Byrd,  A. K. Chakraborty,  C.-L. Cheng,  
 Siu Hung Chien,  D. M. Chipman,  D. L. Crittenden,  H. Dachsel,  
 R. J. Doerksen,  A. D. Dutoi,  L. Fusti-Molnar,  W. A. Goddard III,  
 A. Golubeva-Zadorozhnaya,  S. R. Gwaltney,  G. Hawkins,  A. Heyden,  
 S. Hirata,  G. Kedziora,  F. J. Keil,  C. Kelley,  Jihan Kim,  R. A. King,  
 R. Z. Khaliullin,  P. P. Korambath,  W. Kurlancheek,  A. M. Lee,  M. S. Lee,  
 S. V. Levchenko,  Ching Yeh Lin,  D. Liotard,  R. C. Lochan,  I. Lotan,  
 P. E. Maslen,  N. Nair,  D. P. O'Neill,  D. Neuhauser,  E. Neuscamman,  
 C. M. Oana,  R. Olson,  B. Peters,  R. Peverati,  P. A. Pieniazek,  
 Y. M. Rhee,  J. Ritchie,  M. A. Rohrdanz,  E. Rosta,  N. J. Russ,  
 H. F. Schaefer III,  N. E. Schultz,  N. Shenvi,  A. C. Simmonett,  A. Sodt,  
 D. Stuck,  K. S. Thanthiriwatte,  V. Vanovschi,  Tao Wang,  A. Warshel,  
 C. F. Williams,  Q. Wu,  X. Xu,  W. Zhang

 Please cite Q-Chem as follows:
 Y. Shao et al., Mol. Phys. 113, 184-215 (2015)
 DOI: 10.1080/00268976.2014.952696

 Q-Chem 5.2.0 for Intel X86 EM64T Linux

 Parts of Q-Chem use Armadillo 8.300.2 (Tropical Shenanigans).
 http://arma.sourceforge.net/

 Q-Chem begins on Sun Sep 26 09:01:51 2021  

Host: cori01
0

     Scratch files written to /tmp/qchem17842//Frg1//
 May1019 |scratch|qcdevops|jenkins|workspace|build_RNUM -1
Processing $rem in /global/common/cori/software/qchem/5.2/config/preferences:
	 MEM_TOTAL  96000 
NAlpha2: 32
NElect   32
Mult     1
Symmetry turned off for PCM/SM12/SMD calculation

Checking the input file for inconsistencies... 	...done.

--------------------------------------------------------------
User input:
--------------------------------------------------------------
$molecule
-1 1
 6	2.0730303568	0.4424362708	-2.7001335860
 6	2.0410303568	1.4374362708	-1.5481335860
 8	1.0780303568	1.3884362708	-0.7501335860
 8	2.9750303568	2.2644362708	-1.4461335860
 1	3.0200303568	0.5204362708	-3.2311335860
 1	1.2780303568	0.6884362708	-3.4081335860
 1	1.9263203568	-0.5903377292	-2.3510535860
$end
$rem
EDA2		1
METHOD		WB97X-V
BASIS		DEF2-TZVPD
XC_GRID		000099000590
NL_GRID		1
UNRESTRICTED		FALSE
MAX_SCF_CYCLES		200
SYMMETRY		FALSE
SYM_IGNORE		TRUE
BASIS_LIN_DEP_THRESH		6
THRESH		14
SCF_CONVERGENCE		8
SCF_PRINT_FRGM		TRUE
SOLVENT_METHOD		PCM
!required keywords
JOBTYPE		SP
SYM_IGNORE		TRUE
SUBSYSTEM		TRUE
GEN_SCFMAN		TRUE
CHILD_INSTRUCTION		2
SYM_IGNORE		TRUE
SCFMI		0
RI_K 0		
PARI_K 0		
MIN_PARI_K 0		
IARI_K 0		
OCC_RI_K 0		
PURECART		1111
MEM_STATIC		2000
MEM_TOTAL		96000
GUI		0
CHILD_MP		1
CHILD_MP_ORDERS		232
FRZ_RELAX		0
FRZ_RELAX_METHOD		0
EDA_CLS_ELEC		1
EDA_CLS_DISP		0
FRZ_ORTHO_DECOMP		1
EDA2		FALSE
FRGM_METHOD		FALSE
CIS_N_ROOTS  0
LOCAL_CIS    0
CIS_RLX_DNS  1
$end
$pcm
THEORY                  CPCM
METHOD                  SWIG
SOLVER                  INVERSION
RADII                   UFF
HPOINTS                 302
HEAVYPOINTS             302
PRINTLEVEL              0
$end
$solvent
DIELECTRIC              78.390000 ! water
$end
--------------------------------------------------------------
 ----------------------------------------------------------------
             Standard Nuclear Orientation (Angstroms)
    I     Atom           X                Y                Z
 ----------------------------------------------------------------
    1      C       2.0730303568     0.4424362708    -2.7001335860
    2      C       2.0410303568     1.4374362708    -1.5481335860
    3      O       1.0780303568     1.3884362708    -0.7501335860
    4      O       2.9750303568     2.2644362708    -1.4461335860
    5      H       3.0200303568     0.5204362708    -3.2311335860
    6      H       1.2780303568     0.6884362708    -3.4081335860
    7      H       1.9263203568    -0.5903377292    -2.3510535860
 ----------------------------------------------------------------
 Nuclear Repulsion Energy =         112.60785741 hartrees
 There are       16 alpha and       16 beta electrons
 Requested basis set is def2-TZVPD
 There are 69 shells and 181 basis functions

 Total QAlloc Memory Limit  96000 MB
 Mega-Array Size      1956 MB
 MEM_STATIC part      2000 MB
 Discretize the solute cavity surface with Lebedev spheres
	Using 302 Lebedev grid points for each H atom
	Using 302 Lebedev grid points for other atoms
	Atomic van der Waals radii will be scaled by 1.20
 Remove points where switching function is < 1.0e-08
 Keep 1008 surface tesserae and discard 1106 interior tesserae
 Molecular Surface Area = 119.944 Angst**2

                       Distance Matrix (Angstroms)
             C (  1)   C (  2)   O (  3)   O (  4)   H (  5)   H (  6)
   C (  2)  1.522548
   O (  3)  2.384836  1.251629
   O (  4)  2.388682  1.251674  2.202363
   H (  5)  1.088510  2.152166  3.268050  2.495954
   H (  6)  1.092614  2.145407  2.755896  3.035297  1.759010
   H (  7)  1.100001  2.183966  2.682925  3.173075  1.790129  1.781281

 
 A cutoff of  1.0D-14 yielded   2391 shell pairs
 There are     16695 function pairs (     21491 Cartesian)
 Smallest overlap matrix eigenvalue = 1.65E-05

 Scale SEOQF with 1.000000e-01/1.000000e-01/1.000000e-01

 Standard Electronic Orientation quadrupole field applied
 Nucleus-field energy     =    -0.0000000012 hartrees
 Guess from superposition of atomic densities
 Warning:  Energy on first SCF cycle will be non-variational
 SAD guess density has 30.625312 electrons

 -----------------------------------------------------------------------
  General SCF calculation program by
  Eric Jon Sundstrom, Paul Horn, Yuezhi Mao, Dmitri Zuev, Alec White,
  David Stuck, Shaama M.S., Shane Yost, Joonho Lee, David Small,
  Daniel Levine, Susi Lehtola, Hugh Burton, Evgeny Epifanovsky
 -----------------------------------------------------------------------
 Exchange:     0.1670 Hartree-Fock + 1.0000 wB97X-V + LR-HF
 Correlation:  1.0000 wB97X-V
 Using Euler-Maclaurin-Lebedev (99,590) quadrature formula
 Nonlocal Correlation:  VV10 with C = 0.0100 and b = 6.00 and scale = 1.00000
 Grid used for NLC:  SG-1 standard quadrature
Energy prior to optimization (guess energy) = -227.764175807383
Begin Timing: Total SCF Calculation
begin iterations for algorithm: DIIS         
the SCF tolerance is set to 1.00e-08
    1    -227.7641758074      1.66e-02     00000 
    2    -225.6008596808      2.54e-02     00000 
    3    -228.5774120125      4.14e-03     00000 
    4    -228.6363442467      1.40e-03     00000 
    5    -228.6425247772      2.89e-04     00000 
    6    -228.6427629870      2.29e-04     00000 
    7    -228.6429078794      4.74e-05     00000 
    8    -228.6429182748      1.38e-05     00000 
    9    -228.6429195601      2.84e-06     00000 
   10    -228.6429196618      4.05e-07     00000 
   11    -228.6429196646      1.61e-07     00000 
   12    -228.6429196648      5.52e-08     00000 
   13    -228.6429196649      1.89e-08     00000 
   14    -228.6429196649      2.72e-09     00000 Convergence criterion met
Timing for Total SCF: 298.00s (wall), 584.93s (cpu)

************** Final PCM Free Energy Summary **************
 G_electrostatic  =      -0.10171607 hartree =     -63.82779960 kcal/mol
 G_cavitation     =       0.00000000 hartree =       0.00000000 kcal/mol
 G_dispersion     =       0.00000000 hartree =       0.00000000 kcal/mol
 G_repulsion      =       0.00000000 hartree =       0.00000000 kcal/mol
 --------------------------------------------------
 Non-electrostatic Free Energy =       0.00000000 hartree =       0.00000000 kcal/mol
 Total                         =      -0.10171607 hartree =     -63.82779960 kcal/mol
 --------------------------------------------------
 SCF Energy (H0 + V/2)                       =    -228.64291966 
 Solute Internal Energy (H0)                 =    -228.54120359 
 Total Free Energy (H0 + V/2 + non-elec)     =    -228.64291966 hartree
                                             = -143475.59756680 kcal/mol
***********************************************************

E_pcm = -0.1017160737
Multipole orders to be included
        2
        3
computing dipole RHS
computing quadrupole RHS
total number of RHS in solve_reponses: 8
RHS batch sizes
        8
Beginning Block Conjugate Gradient Iterations. Batch Number: 0
computing hessian-vector products by finite difference
              1      6.85e-01     00000 Conjugate Gradient Iteration
computing hessian-vector products by finite difference
              2      2.37e-01     00000 Conjugate Gradient Iteration
computing hessian-vector products by finite difference
              3      6.29e-02     00000 Conjugate Gradient Iteration
computing hessian-vector products by finite difference
              4      1.69e-02     00000 Conjugate Gradient Iteration
computing hessian-vector products by finite difference
              5      2.99e-03     00000 Conjugate Gradient Iteration
computing hessian-vector products by finite difference
              6      7.25e-04     00000 Conjugate Gradient Iteration
computing hessian-vector products by finite difference
              7      1.19e-04     00000 Conjugate Gradient Iteration
computing hessian-vector products by finite difference
              8      1.45e-05     00000 Conjugate Gradient Iteration
computing hessian-vector products by finite difference
              9      2.27e-06     00000 Conjugate Gradient Iteration
computing hessian-vector products by finite difference
             10      2.55e-07     00000 Conjugate Gradient Iteration
computing hessian-vector products by finite difference
             11      4.20e-08     00000 Conjugate Gradient Iteration
computing hessian-vector products by finite difference
             12      1.26e-08     00000 Conjugate Gradient Iteration
computing hessian-vector products by finite difference
             13      1.46e-09     00000 CG Converged
batch 0 complete
Done Calculating Responses
TESTING ORTHOGONALIZATION OF MULTIPOLE BASIS
Multipole virts passed orthogonality test
Virts Per Order
        48
        80
 
 --------------------------------------------------------------
 
                    Orbital Energies (a.u.)
 --------------------------------------------------------------
 
 Alpha MOs
 -- Occupied --
-19.1225 -19.1212 -10.3249 -10.2392  -1.1318  -1.0316  -0.8284  -0.5922
 -0.5285  -0.5179  -0.5155  -0.4630  -0.4431  -0.3292  -0.3256  -0.3090
 -- Virtual --
  0.0633   0.0954   0.0959   0.1053   0.1304   0.1408   0.1431   0.1451
  0.1684   0.1905   0.1988   0.2230   0.2312   0.2364   0.2642   0.2687
  0.2983   0.3133   0.3343   0.3472   0.3545   0.3610   0.3742   0.3844
  0.3923   0.4043   0.4252   0.4275   0.4321   0.4610   0.4737   0.4771
  0.4933   0.4987   0.5059   0.5203   0.5612   0.5792   0.5978   0.6136
  0.6197   0.6400   0.6459   0.6620   0.6741   0.6803   0.6964   0.7133
  0.7242   0.7366   0.7754   0.8011   0.8091   0.8189   0.8490   0.8601
  0.8667   0.9779   0.9902   0.9934   1.0048   1.0522   1.0607   1.1301
  1.1757   1.2138   1.2622   1.2845   1.2946   1.3158   1.3500   1.3556
  1.4532   1.5796   1.6076   1.7397   1.8253   1.8656   1.8710   1.9206
  1.9329   1.9549   1.9643   1.9758   2.0167   2.1184   2.1364   2.1783
  2.2140   2.2197   2.3242   2.3514   2.4146   2.4472   2.4914   2.5038
  2.5799   2.5855   2.6293   2.6595   2.8018   2.8094   2.8923   2.9229
  2.9519   3.0043   3.0410   3.1877   3.2086   3.2541   3.2870   3.3220
  3.3449   3.3511   3.4053   3.4137   3.4299   3.5472   3.5751   3.5885
  3.6191   3.6594   3.7043   3.7362   3.7811   3.8901   3.9487   4.0595
  4.0892   4.1956   4.3538   4.5327   4.6481   4.6624   4.8141   4.8468
  4.9939   5.3331   5.3602   5.3700   5.3762   5.5049   5.7175   5.7687
  5.8205   6.0241   6.2443   6.3429   6.3525   6.6267   6.6312   6.7191
  6.7461   6.7605   6.9586   6.9791   7.0445   7.2492   7.3618   7.3882
  7.4177  22.5934  23.7370  44.2216  44.3490
 --------------------------------------------------------------
 
          Ground-State Mulliken Net Atomic Charges

     Atom                 Charge (a.u.)
  ----------------------------------------
      1 C                    -0.403058
      2 C                     0.293461
      3 O                    -0.678794
      4 O                    -0.673627
      5 H                     0.159167
      6 H                     0.139555
      7 H                     0.163295
  ----------------------------------------
  Sum of atomic charges =    -1.000000

 -----------------------------------------------------------------
                    Cartesian Multipole Moments
 -----------------------------------------------------------------
    Charge (ESU x 10^10)
                -4.8032
    Dipole Moment (Debye)
         X      -9.6840      Y      -9.8237      Z       4.0112
       Tot      14.3658
    Quadrupole Moments (Debye-Ang)
        XX     -53.0084     XY     -23.4294     YY     -47.2864
        XZ      11.0505     YZ       9.5167     ZZ     -29.8773
    Octopole Moments (Debye-Ang^2)
       XXX    -243.8262    XXY    -102.2152    XYY    -108.9063
       YYY    -151.8321    XXZ      79.9198    XYZ      28.6850
       YYZ      67.3474    XZZ     -68.2386    YZZ     -44.4226
       ZZZ     135.5484
    Hexadecapole Moments (Debye-Ang^3)
      XXXX   -1031.8578   XXXY    -436.0442   XXYY    -356.3079
      XYYY    -360.2692   YYYY    -499.5645   XXXZ     402.0759
      XXYZ     140.4700   XYYZ     167.2215   YYYZ     201.6719
      XXZZ    -274.8156   XYZZ    -114.5436   YYZZ    -190.8683
      XZZZ     307.3668   YZZZ     152.1642   ZZZZ    -578.6249
 -----------------------------------------------------------------
Archival summary:
1\1\nid00511\SP\ProcedureUnspecified\BasisUnspecified\223(1-,1)\meili\SunSep2610:26:192021SunSep2610:26:192021\0\\#,ProcedureUnspecified,BasisUnspecified,\\-1,1\C\O,1,1.25163\O,1,1.25167,2,123.232\C,1,1.52255,2,118.228,3,-179.866,0\H,4,1.08851,1,109.911,2,-172.94,0\H,4,1.09261,1,109.139,2,69.394,0\H,4,1.1,1,111.756,2,-50.8161,0\\\@

 Total job time:  5068.20s(wall), 9946.64s(cpu) 
 Sun Sep 26 10:26:19 2021

        *************************************************************
        *                                                           *
        *  Thank you very much for using Q-Chem.  Have a nice day.  *
        *                                                           *
        *************************************************************


Done Job For Fragment 0
calling putenv with: QCSCRATCH=/global/cscratch1/sd/meili 
calling putenv with: QCLOCALSCR=/tmp 
calling putenv with: QCTHREADS=32 
Creating input file /tmp/qchem17842/Frg2.input
using default PutDataFrgm: nothing
calling putenv with: QCSCRATCH=/tmp/qchem17842/ 
calling putenv with: QCLOCALSCR=/tmp/qchem17842/ 
Spawning Job For Fragment 1
                  Welcome to Q-Chem
     A Quantum Leap Into The Future Of Chemistry


 Q-Chem 5.2, Q-Chem, Inc., Pleasanton, CA (2019)

 License issued to: National Energy Research Scientific Computing Center

 Yihan Shao,  Zhengting Gan,  E. Epifanovsky,  A. T. B. Gilbert,  M. Wormit,  
 J. Kussmann,  A. W. Lange,  A. Behn,  Jia Deng,  Xintian Feng,  D. Ghosh,  
 M. Goldey,  P. R. Horn,  L. D. Jacobson,  I. Kaliman,  T. Kus,  A. Landau,  
 Jie Liu,  E. I. Proynov,  R. M. Richard,  R. P. Steele,  E. J. Sundstrom,  
 H. L. Woodcock III,  P. M. Zimmerman,  D. Zuev,  B. Albrecht,  E. Alguire,  
 S. A. Baeppler,  D. Barton,  Z. Benda,  Y. A. Bernard,  E. J. Berquist,  
 K. B. Bravaya,  H. Burton,  D. Casanova,  Chun-Min Chang,  Yunqing Chen,  
 A. Chien,  K. D. Closser,  M. P. Coons,  S. Coriani,  S. Dasgupta,  
 A. L. Dempwolff,  M. Diedenhofen,  Hainam Do,  R. G. Edgar,  Po-Tung Fang,  
 S. Faraji,  S. Fatehi,  Qingguo Feng,  K. D. Fenk,  J. Fosso-Tande,  
 J. Gayvert,  Qinghui Ge,  A. Ghysels,  G. Gidofalvi,  J. Gomes,  
 J. Gonthier,  A. Gunina,  D. Hait,  M. W. D. Hanson-Heine,  
 P. H. P. Harbach,  A. W. Hauser,  M. F. Herbst,  J. E. Herr,  
 E. G. Hohenstein,  Z. C. Holden,  Kerwin Hui,  B. C. Huynh,  T.-C. Jagau,  
 Hyunjun Ji,  B. Kaduk,  K. Khistyaev,  Jaehoon Kim,  P. Klunzinger,  K. Koh,  
 D. Kosenkov,  L. Koulias,  T. Kowalczyk,  C. M. Krauter,  A. Kunitsa,  
 Ka Un Lao,  A. Laurent,  K. V. Lawler,  Joonho Lee,  D. Lefrancois,  
 S. Lehtola,  D. S. Levine,  Yi-Pei Li,  You-Sheng Lin,  Fenglai Liu,  
 E. Livshits,  A. Luenser,  P. Manohar,  E. Mansoor,  S. F. Manzer,  
 Shan-Ping Mao,  Yuezhi Mao,  N. Mardirossian,  A. V. Marenich,  
 T. Markovich,  L. A. Martinez-Martinez,  S. A. Maurer,  N. J. Mayhall,  
 S. C. McKenzie,  J.-M. Mewes,  P. Morgante,  A. F. Morrison,  
 J. W. Mullinax,  K. Nanda,  T. S. Nguyen-Beck,  R. Olivares-Amaya,  
 J. A. Parkhill,  Zheng Pei,  T. M. Perrine,  F. Plasser,  P. Pokhilko,  
 S. Prager,  A. Prociuk,  E. Ramos,  D. R. Rehn,  F. Rob,  M. Scheurer,  
 M. Schneider,  N. Sergueev,  S. M. Sharada,  S. Sharma,  D. W. Small,  
 T. Stauch,  T. Stein,  Yu-Chuan Su,  A. J. W. Thom,  A. Tkatchenko,  
 T. Tsuchimochi,  N. M. Tubman,  L. Vogt,  M. L. Vidal,  O. Vydrov,  
 M. A. Watson,  J. Wenzel,  M. de Wergifosse,  T. A. Wesolowski,  A. White,  
 J. Witte,  A. Yamada,  Jun Yang,  K. Yao,  S. Yeganeh,  S. R. Yost,  
 Zhi-Qiang You,  A. Zech,  Igor Ying Zhang,  Xing Zhang,  Yan Zhao,  
 Ying Zhu,  B. R. Brooks,  G. K. L. Chan,  C. J. Cramer,  M. S. Gordon,  
 W. J. Hehre,  A. Klamt,  M. W. Schmidt,  C. D. Sherrill,  D. G. Truhlar,  
 A. Aspuru-Guzik,  R. Baer,  A. T. Bell,  N. A. Besley,  Jeng-Da Chai,  
 A. E. DePrince, III,  R. A. DiStasio Jr.,  A. Dreuw,  B. D. Dunietz,  
 T. R. Furlani,  Chao-Ping Hsu,  Yousung Jung,  Jing Kong,  D. S. Lambrecht,  
 WanZhen Liang,  C. Ochsenfeld,  V. A. Rassolov,  L. V. Slipchenko,  
 J. E. Subotnik,  T. Van Voorhis,  J. M. Herbert,  A. I. Krylov,  
 P. M. W. Gill,  M. Head-Gordon

 Contributors to earlier versions of Q-Chem not listed above: 
 R. D. Adamson,  B. Austin,  J. Baker,  G. J. O. Beran,  K. Brandhorst,  
 S. T. Brown,  E. F. C. Byrd,  A. K. Chakraborty,  C.-L. Cheng,  
 Siu Hung Chien,  D. M. Chipman,  D. L. Crittenden,  H. Dachsel,  
 R. J. Doerksen,  A. D. Dutoi,  L. Fusti-Molnar,  W. A. Goddard III,  
 A. Golubeva-Zadorozhnaya,  S. R. Gwaltney,  G. Hawkins,  A. Heyden,  
 S. Hirata,  G. Kedziora,  F. J. Keil,  C. Kelley,  Jihan Kim,  R. A. King,  
 R. Z. Khaliullin,  P. P. Korambath,  W. Kurlancheek,  A. M. Lee,  M. S. Lee,  
 S. V. Levchenko,  Ching Yeh Lin,  D. Liotard,  R. C. Lochan,  I. Lotan,  
 P. E. Maslen,  N. Nair,  D. P. O'Neill,  D. Neuhauser,  E. Neuscamman,  
 C. M. Oana,  R. Olson,  B. Peters,  R. Peverati,  P. A. Pieniazek,  
 Y. M. Rhee,  J. Ritchie,  M. A. Rohrdanz,  E. Rosta,  N. J. Russ,  
 H. F. Schaefer III,  N. E. Schultz,  N. Shenvi,  A. C. Simmonett,  A. Sodt,  
 D. Stuck,  K. S. Thanthiriwatte,  V. Vanovschi,  Tao Wang,  A. Warshel,  
 C. F. Williams,  Q. Wu,  X. Xu,  W. Zhang

 Please cite Q-Chem as follows:
 Y. Shao et al., Mol. Phys. 113, 184-215 (2015)
 DOI: 10.1080/00268976.2014.952696

 Q-Chem 5.2.0 for Intel X86 EM64T Linux

 Parts of Q-Chem use Armadillo 8.300.2 (Tropical Shenanigans).
 http://arma.sourceforge.net/

 Q-Chem begins on Sun Sep 26 10:26:20 2021  

Host: cori01
0

     Scratch files written to /tmp/qchem17842//Frg2//
 May1019 |scratch|qcdevops|jenkins|workspace|build_RNUM -1
Processing $rem in /global/common/cori/software/qchem/5.2/config/preferences:
	 MEM_TOTAL  96000 
NAlpha2: 40
NElect   40
Mult     1
Symmetry turned off for PCM/SM12/SMD calculation

Checking the input file for inconsistencies... 	...done.

--------------------------------------------------------------
User input:
--------------------------------------------------------------
$molecule
1 1
 6	-1.6789696432	-2.9845637292	1.9288664140
 6	-1.6279696432	-0.6445637292	1.1218664140
 7	-0.3999696432	-0.7885637292	0.6598664140
 7	-2.2519696432	-1.6505637292	1.7188664140
 7	-2.2259696432	0.5204362708	0.9948664140
 1	0.1060303568	-1.6545637292	0.7688664140
 1	0.0720303568	0.0094362708	0.2288664140
 1	-3.0719696432	-1.4195637292	2.2838664140
 1	-3.1289696432	0.6694362708	1.4178664140
 1	-1.7259696432	1.2924362708	0.5808664140
 1	-1.3149696432	-3.3955637292	0.9838664140
 1	-2.4569696432	-3.6525637292	2.3008664140
 1	-0.8634896432	-2.9542807292	2.6664764140
$end
$rem
EDA2		1
METHOD		WB97X-V
BASIS		DEF2-TZVPD
XC_GRID		000099000590
NL_GRID		1
UNRESTRICTED		FALSE
MAX_SCF_CYCLES		200
SYMMETRY		FALSE
SYM_IGNORE		TRUE
BASIS_LIN_DEP_THRESH		6
THRESH		14
SCF_CONVERGENCE		8
SCF_PRINT_FRGM		TRUE
SOLVENT_METHOD		PCM
!required keywords
JOBTYPE		SP
SYM_IGNORE		TRUE
SUBSYSTEM		TRUE
GEN_SCFMAN		TRUE
CHILD_INSTRUCTION		2
SYM_IGNORE		TRUE
SCFMI		0
RI_K 0		
PARI_K 0		
MIN_PARI_K 0		
IARI_K 0		
OCC_RI_K 0		
PURECART		1111
MEM_STATIC		2000
MEM_TOTAL		96000
GUI		0
CHILD_MP		1
CHILD_MP_ORDERS		232
FRZ_RELAX		0
FRZ_RELAX_METHOD		0
EDA_CLS_ELEC		1
EDA_CLS_DISP		0
FRZ_ORTHO_DECOMP		1
EDA2		FALSE
FRGM_METHOD		FALSE
CIS_N_ROOTS  0
LOCAL_CIS    0
CIS_RLX_DNS  1
$end
$pcm
THEORY                  CPCM
METHOD                  SWIG
SOLVER                  INVERSION
RADII                   UFF
HPOINTS                 302
HEAVYPOINTS             302
PRINTLEVEL              0
$end
$solvent
DIELECTRIC              78.390000 ! water
$end
--------------------------------------------------------------
 ----------------------------------------------------------------
             Standard Nuclear Orientation (Angstroms)
    I     Atom           X                Y                Z
 ----------------------------------------------------------------
    1      C      -1.6789696432    -2.9845637292     1.9288664140
    2      C      -1.6279696432    -0.6445637292     1.1218664140
    3      N      -0.3999696432    -0.7885637292     0.6598664140
    4      N      -2.2519696432    -1.6505637292     1.7188664140
    5      N      -2.2259696432     0.5204362708     0.9948664140
    6      H       0.1060303568    -1.6545637292     0.7688664140
    7      H       0.0720303568     0.0094362708     0.2288664140
    8      H      -3.0719696432    -1.4195637292     2.2838664140
    9      H      -3.1289696432     0.6694362708     1.4178664140
   10      H      -1.7259696432     1.2924362708     0.5808664140
   11      H      -1.3149696432    -3.3955637292     0.9838664140
   12      H      -2.4569696432    -3.6525637292     2.3008664140
   13      H      -0.8634896432    -2.9542807292     2.6664764140
 ----------------------------------------------------------------
 Nuclear Repulsion Energy =         194.12419388 hartrees
 There are       20 alpha and       20 beta electrons
 Requested basis set is def2-TZVPD
 There are 105 shells and 257 basis functions

 Total QAlloc Memory Limit  96000 MB
 Mega-Array Size      1956 MB
 MEM_STATIC part      2000 MB
 Discretize the solute cavity surface with Lebedev spheres
	Using 302 Lebedev grid points for each H atom
	Using 302 Lebedev grid points for other atoms
	Atomic van der Waals radii will be scaled by 1.20
 Remove points where switching function is < 1.0e-08
 Keep 1563 surface tesserae and discard 2363 interior tesserae
 Molecular Surface Area = 153.091 Angst**2

                       Distance Matrix (Angstroms)
             C (  1)   C (  2)   N (  3)   N (  4)   N (  5)   H (  6)
   C (  2)  2.475773
   N (  3)  2.840531  1.319911
   N (  4)  1.466965  1.325828  2.300963
   N (  5)  3.668323  1.315659  2.271559  2.288688
   H (  6)  2.510124  2.037514  1.008897  2.542180  3.196862
   H (  7)  3.862646  2.028587  1.022423  3.221285  2.475617  1.749758
   H (  8)  2.125017  2.008981  3.189847  1.022246  2.478071  3.528475
   H (  9)  3.964257  2.016733  3.185556  2.498426  1.008236  4.035765
   H ( 10)  4.484645  2.013518  2.468821  3.198901  1.008653  3.475108
   H ( 11)  1.092905  2.772186  2.781843  2.112633  4.020584  2.257553
   H ( 12)  1.090822  3.335468  3.889296  2.094935  4.378690  3.592770
   H ( 13)  1.099997  2.881847  2.988589  2.127327  4.089534  2.496028
             H (  7)   H (  8)   H (  9)   H ( 10)   H ( 11)   H ( 12)
   H (  8)  4.018682
   H (  9)  3.477890  2.262107
   H ( 10)  2.236693  3.473740  1.748458
   H ( 11)  3.753374  2.946460  4.472491  4.723206
   H ( 12)  4.909101  2.316204  4.462170  5.286377  1.762016
   H ( 13)  3.949780  2.716456  4.452275  4.809184  1.797148  1.777765

 
 A cutoff of  1.0D-14 yielded   5440 shell pairs
 There are     33162 function pairs (     41495 Cartesian)
 Smallest overlap matrix eigenvalue = 1.70E-05

 Scale SEOQF with 1.000000e-01/1.000000e-01/1.000000e-01

 Standard Electronic Orientation quadrupole field applied
 Nucleus-field energy     =     0.0000000047 hartrees
 Guess from superposition of atomic densities
 Warning:  Energy on first SCF cycle will be non-variational
 SAD guess density has 40.388232 electrons

 -----------------------------------------------------------------------
  General SCF calculation program by
  Eric Jon Sundstrom, Paul Horn, Yuezhi Mao, Dmitri Zuev, Alec White,
  David Stuck, Shaama M.S., Shane Yost, Joonho Lee, David Small,
  Daniel Levine, Susi Lehtola, Hugh Burton, Evgeny Epifanovsky
 -----------------------------------------------------------------------
 Exchange:     0.1670 Hartree-Fock + 1.0000 wB97X-V + LR-HF
 Correlation:  1.0000 wB97X-V
 Using Euler-Maclaurin-Lebedev (99,590) quadrature formula
 Nonlocal Correlation:  VV10 with C = 0.0100 and b = 6.00 and scale = 1.00000
 Grid used for NLC:  SG-1 standard quadrature
Energy prior to optimization (guess energy) = -244.725804926004
Begin Timing: Total SCF Calculation
begin iterations for algorithm: DIIS         
the SCF tolerance is set to 1.00e-08
    1    -244.7258049260      7.93e-03     00000 
    2    -244.9397839214      6.24e-03     00000 
    3    -245.1801655213      3.08e-04     00000 
    4    -245.1807800039      1.79e-04     00000 
    5    -245.1809966521      3.56e-05     00000 
    6    -245.1810062915      1.37e-05     00000 
    7    -245.1810079057      2.41e-06     00000 
    8    -245.1810079972      8.22e-07     00000 
    9    -245.1810080098      3.47e-07     00000 
   10    -245.1810080118      1.08e-07     00000 
   11    -245.1810080120      4.43e-08     00000 
   12    -245.1810080120      1.18e-08     00000 
   13    -245.1810080120      1.62e-09     00000 Convergence criterion met
Timing for Total SCF: 808.00s (wall), 1601.87s (cpu)

************** Final PCM Free Energy Summary **************
 G_electrostatic  =      -0.08163877 hartree =     -51.22909905 kcal/mol
 G_cavitation     =       0.00000000 hartree =       0.00000000 kcal/mol
 G_dispersion     =       0.00000000 hartree =       0.00000000 kcal/mol
 G_repulsion      =       0.00000000 hartree =       0.00000000 kcal/mol
 --------------------------------------------------
 Non-electrostatic Free Energy =       0.00000000 hartree =       0.00000000 kcal/mol
 Total                         =      -0.08163877 hartree =     -51.22909905 kcal/mol
 --------------------------------------------------
 SCF Energy (H0 + V/2)                       =    -245.18100801 
 Solute Internal Energy (H0)                 =    -245.09936925 
 Total Free Energy (H0 + V/2 + non-elec)     =    -245.18100801 hartree
                                             = -153853.40463688 kcal/mol
***********************************************************

E_pcm = -0.0816387663
Multipole orders to be included
        2
        3
computing dipole RHS
computing quadrupole RHS
total number of RHS in solve_reponses: 8
RHS batch sizes
        8
Beginning Block Conjugate Gradient Iterations. Batch Number: 0
computing hessian-vector products by finite difference
              1      4.54e-01     00000 Conjugate Gradient Iteration
computing hessian-vector products by finite difference
              2      1.76e-01     00000 Conjugate Gradient Iteration
computing hessian-vector products by finite difference
              3      4.68e-02     00000 Conjugate Gradient Iteration
computing hessian-vector products by finite difference
              4      1.26e-02     00000 Conjugate Gradient Iteration
computing hessian-vector products by finite difference
              5      1.72e-03     00000 Conjugate Gradient Iteration
computing hessian-vector products by finite difference
              6      2.64e-04     00000 Conjugate Gradient Iteration
computing hessian-vector products by finite difference
              7      3.68e-05     00000 Conjugate Gradient Iteration
computing hessian-vector products by finite difference
              8      4.62e-06     00000 Conjugate Gradient Iteration
computing hessian-vector products by finite difference
              9      6.98e-07     00000 Conjugate Gradient Iteration
computing hessian-vector products by finite difference
             10      1.07e-07     00000 Conjugate Gradient Iteration
computing hessian-vector products by finite difference
             11      3.67e-08     00000 Conjugate Gradient Iteration
computing hessian-vector products by finite difference
             12      3.63e-09     00000 CG Converged
batch 0 complete
Done Calculating Responses
TESTING ORTHOGONALIZATION OF MULTIPOLE BASIS
Multipole virts passed orthogonality test
Virts Per Order
           60
          100
 
 --------------------------------------------------------------
 
                    Orbital Energies (a.u.)
 --------------------------------------------------------------
 
 Alpha MOs
 -- Occupied --
-14.4820 -14.4788 -14.4748 -10.4493 -10.3300  -1.2013  -1.0827  -1.0705
 -0.8784  -0.7931  -0.7504  -0.7168  -0.6472  -0.6411  -0.6210  -0.5938
 -0.5516  -0.5314  -0.4261  -0.4032
 -- Virtual --
  0.0479   0.0745   0.0778   0.0865   0.1134   0.1148   0.1219   0.1395
  0.1599   0.1671   0.1778   0.1847   0.1905   0.1980   0.2082   0.2228
  0.2304   0.2341   0.2405   0.2564   0.2667   0.2725   0.2836   0.2884
  0.2997   0.3034   0.3094   0.3152   0.3233   0.3260   0.3376   0.3455
  0.3513   0.3629   0.3661   0.3849   0.3935   0.3962   0.4019   0.4202
  0.4283   0.4369   0.4420   0.4442   0.4600   0.4620   0.4733   0.4827
  0.4895   0.4952   0.5047   0.5112   0.5176   0.5204   0.5338   0.5393
  0.5460   0.5532   0.5630   0.5802   0.5892   0.6039   0.6209   0.6403
  0.6480   0.6591   0.6686   0.6865   0.6992   0.7148   0.7332   0.7408
  0.7684   0.7832   0.7937   0.8151   0.8191   0.8283   0.8370   0.8516
  0.8637   0.8744   0.8857   0.9008   0.9162   0.9557   0.9690   0.9847
  1.0101   1.0450   1.0555   1.0580   1.0844   1.0946   1.1026   1.1192
  1.1479   1.1650   1.2152   1.2204   1.2491   1.2968   1.3462   1.3946
  1.3995   1.4218   1.4495   1.4772   1.5299   1.5429   1.5874   1.6481
  1.6571   1.7144   1.7287   1.7758   1.8168   1.8349   1.8414   1.8637
  1.8866   1.8982   1.9082   1.9486   1.9836   1.9859   1.9999   2.0338
  2.0571   2.1095   2.1141   2.1724   2.2006   2.2117   2.2466   2.2800
  2.3168   2.3340   2.3577   2.3891   2.4133   2.4416   2.4924   2.4979
  2.5365   2.5647   2.6057   2.6140   2.6204   2.6377   2.6912   2.7060
  2.7738   2.7937   2.8181   2.8588   2.8640   2.8803   2.9117   2.9302
  3.0079   3.0809   3.0910   3.1291   3.1550   3.1598   3.1951   3.2180
  3.2541   3.2629   3.2883   3.3255   3.3489   3.3781   3.3869   3.4195
  3.4521   3.4870   3.5299   3.5378   3.5877   3.6100   3.6379   3.7368
  3.7922   3.8489   3.9070   3.9403   3.9971   4.1105   4.1304   4.1714
  4.2382   4.2881   4.2990   4.3480   4.4141   4.4826   4.5705   4.5993
  4.6438   4.8138   4.8336   4.8430   4.9122   4.9730   4.9921   5.0312
  5.0858   5.1006   5.1280   5.1385   5.1639   5.1899   5.2547   5.3246
  5.3347   5.3695   5.3966   5.4349   5.4799   5.5015   5.5617   5.6210
  5.6740   5.7492   5.7819   5.8725   6.1168   6.1531   6.3458   6.4437
 22.6527  23.6413  32.3071  32.4240  32.7934
 --------------------------------------------------------------
 
          Ground-State Mulliken Net Atomic Charges

     Atom                 Charge (a.u.)
  ----------------------------------------
      1 C                    -0.820917
      2 C                     0.534757
      3 N                    -0.255824
      4 N                    -0.114726
      5 N                    -0.269754
      6 H                     0.194439
      7 H                     0.202965
      8 H                     0.268298
      9 H                     0.202829
     10 H                     0.198672
     11 H                     0.309908
     12 H                     0.244509
     13 H                     0.304844
  ----------------------------------------
  Sum of atomic charges =     1.000000

 -----------------------------------------------------------------
                    Cartesian Multipole Moments
 -----------------------------------------------------------------
    Charge (ESU x 10^10)
                 4.8032
    Dipole Moment (Debye)
         X      -7.4964      Y      -3.5052      Z       6.2672
       Tot      10.3807
    Quadrupole Moments (Debye-Ang)
        XX      -7.7761     XY       4.1479     YY     -12.9392
        XZ     -15.7090     YZ      -9.2927     ZZ     -19.5420
    Octopole Moments (Debye-Ang^2)
       XXX      78.3317    XXY      24.3175    XYY      22.0910
       YYY      67.0819    XXZ       8.7735    XYZ      17.0534
       YYZ     -10.6864    XZZ      17.7358    YZZ      14.5526
       ZZZ     -96.2575
    Hexadecapole Moments (Debye-Ang^3)
      XXXX    -390.2198   XXXY    -138.6541   XXYY    -134.9661
      XYYY    -102.9691   YYYY    -439.9597   XXXZ      57.4087
      XXYZ      17.2257   XYYZ      13.7574   YYYZ     106.2267
      XXZZ     -67.8714   XYZZ     -10.4334   YYZZ    -103.5350
      XZZZ     146.6327   YZZZ     137.1444   ZZZZ    -345.1360
 -----------------------------------------------------------------
Archival summary:
1\1\nid00511\SP\ProcedureUnspecified\BasisUnspecified\328(1+,1)\meili\SunSep2614:23:042021SunSep2614:23:042021\0\\#,ProcedureUnspecified,BasisUnspecified,\\1,1\C\N,1,1.31566\H,2,1.00824,1,119.831\H,2,1.00865,1,119.475,3,171.977,0\N,1,1.31991,2,119.058,3,-174.355,0\H,5,1.0089,1,121.496,2,177.637,0\H,5,1.02242,1,119.466,2,1.1922,0\N,1,1.32583,2,120.094,3,4.96773,0\H,8,1.02225,1,117.061,2,-16.3111,0\C,8,1.46696,1,124.793,2,-179.296,0\H,10,1.09082,8,109.093,1,-171.365,0\H,10,1.09291,8,110.383,1,-53.3514,0\H,10,1.1,8,111.133,1,69.0735,0\\\@

 Total job time:  14206.96s(wall), 28072.91s(cpu) 
 Sun Sep 26 14:23:07 2021

        *************************************************************
        *                                                           *
        *  Thank you very much for using Q-Chem.  Have a nice day.  *
        *                                                           *
        *************************************************************


Done Job For Fragment 1
calling putenv with: QCSCRATCH=/global/cscratch1/sd/meili 
calling putenv with: QCLOCALSCR=/tmp 
calling putenv with: QCTHREADS=32 
Doing General SCFMI
 Exchange:     0.1670 Hartree-Fock + 1.0000 wB97X-V + LR-HF
 Correlation:  1.0000 wB97X-V
 Using Euler-Maclaurin-Lebedev (99,590) quadrature formula
 Nonlocal Correlation:  VV10 with C = 0.0100 and b = 6.00 and scale = 1.00000
 Grid used for NLC:  SG-1 standard quadrature
performing fock build before subrot guess so that all methods have access
Printing subrot_rss_gen Method Specification:
Occupied Subspace Method is 0
Virtual Subspace Method is 0
Energy of the unrelaxed supersystem initial determinant -473.765844283356
performing fock build before subrot guess so that all methods have access
Printing subrot_rss_gen Method Specification:
Occupied Subspace Method is 0
Virtual Subspace Method is 0
Energy of the unrelaxed supersystem initial determinant w/ solvent -473.835509572975
write pseudocanon occs and virts to disk
write pseudocanon orbital energies to disk
Tolerance of ortho_decomp_scf: 1.00e-06
GDM subspace size: 20
Beginning the Orthogonal Decomposition of the Initial Supersystem Wavefunction
    1    -473.6038487204      6.89e-02     ortho_decomp Preconditoned Steepest Descent
    2    -473.6107888925      1.68e-03     ortho_decomp BFGS Step
    3    -473.6108124268      1.45e-04     ortho_decomp BFGS Step
    4    -473.6108124820      6.20e-06     ortho_decomp BFGS Step
    5    -473.6108124822      1.90e-07     ortho_decomp 00000 Convergence criterion met
 Hartree-Fock
 Hartree-Fock
 Hartree-Fock
Doing General SCFMI
 Exchange:     0.1670 Hartree-Fock + 1.0000 wB97X-V + LR-HF
 Correlation:  1.0000 wB97X-V
 Using Euler-Maclaurin-Lebedev (99,590) quadrature formula
 Nonlocal Correlation:  VV10 with C = 0.0100 and b = 6.00 and scale = 1.00000
 Grid used for NLC:  SG-1 standard quadrature
performing fock build at end of subrot_r(subrot) constructor so that all methods have access
<S^2> of initial wavefunction before polarization iterations 0.0000000000
Beginning iterations for the determination of the polarized wavefunction
Energy prior to optimization (guess energy) = -473.835509572975
Begin Timing: Total SCF Calculation
begin iterations for algorithm: DIIS         
the SCF tolerance is set to 1.00e-08
    1    -473.8355095730      2.04e-04     00000 
    2    -473.8379422381      7.38e-05     00000 
    3    -473.8381762254      4.96e-05     00000 
    4    -473.8382454050      1.88e-05     00000 
    5    -473.8382566467      7.85e-06     00000 
    6    -473.8382590203      3.19e-06     00000 
    7    -473.8382594756      1.09e-06     00000 
    8    -473.8382595318      3.43e-07     00000 
    9    -473.8382595386      9.00e-08     00000 
   10    -473.8382595390      4.53e-08     00000 
   11    -473.8382595391      1.23e-08     00000 
   12    -473.8382595391      5.93e-09     00000 Convergence criterion met
write pseudocanon occs and virts to disk
write pseudocanon orbital energies to disk
Timing for Total SCF: 2603.00s (wall), 5170.79s (cpu)
<S^2> of polarized wavefunction after polarization iterations 0.0000000000
relaxing scfmi constraint to allow all rotations in the entire AO span
Doing General SCFMI
 Exchange:     0.1670 Hartree-Fock + 1.0000 wB97X-V + LR-HF
 Correlation:  1.0000 wB97X-V
 Using Euler-Maclaurin-Lebedev (99,590) quadrature formula
 Nonlocal Correlation:  VV10 with C = 0.0100 and b = 6.00 and scale = 1.00000
 Grid used for NLC:  SG-1 standard quadrature
performing fock build at end of subrot_r(subrot) constructor so that all methods have access
<S^2> of polarized wavefunction before ct-allowed iterations 0.0000000000
Beginning iterations for the determination of the CT-Allowed wavefunction
Energy prior to optimization (guess energy) = -473.838259539064
Begin Timing: Total SCF Calculation
begin iterations for algorithm: DIIS         
the SCF tolerance is set to 1.00e-08
    1    -473.8382595391      1.67e-04     00000 
    2    -473.8416476049      2.80e-05     00000 
    3    -473.8417998111      1.45e-05     00000 
    4    -473.8418138847      6.77e-06     00000 
    5    -473.8418180829      1.86e-06     00000 
    6    -473.8418183959      6.05e-07     00000 
    7    -473.8418184573      2.59e-07     00000 
    8    -473.8418184663      6.04e-08     00000 
    9    -473.8418184673      2.82e-08     00000 
   10    -473.8418184675      9.82e-09     00000 Convergence criterion met
write pseudocanon occs and virts to disk
write pseudocanon orbital energies to disk
Timing for Total SCF: 2167.00s (wall), 4302.39s (cpu)
<S^2> of ct_allowed wavefunction after ct-allowed iterations 0.0000000000

================================
        Results of EDA2         
================================
Basic EDA Quantities
--------------------
Fragment Energies (Ha):
1 -228.6429196649
2 -245.1810080120
--------------------
  E_prp (kJ/mol) = -0.0000
  E_sol (kJ/mol) = 298.4955
  E_frz (kJ/mol) = -328.9041
  E_pol (kJ/mol) = -7.2201
  E_vct (kJ/mol) = -9.3441
  E_int (kJ/mol) = -46.9728
--------------------


Initial Wavefunction Decomposition
--------------------
  --------------------
  Orthogonal Fragment Subspace Decomposition:
  --------------------
     E_elec   (ELEC)   (kJ/mol) = -381.4414
     E_pauli  (PAULI)  (kJ/mol) = 63.7490
     E_disp   (DISP)   (kJ/mol) = -11.2117
     --------------------
     Terms summing to E_pauli:
     --------------------
        E_kep_pauli       (kJ/mol) = 78.1367
        E_disp_free_pauli (kJ/mol) = -14.3877
  --------------------
  Classical Frozen Decomposition:
  --------------------
     E_cls_elec  (CLS ELEC)  (kJ/mol) = -355.0878
     E_cls_pauli (CLS PAULI) (kJ/mol) = 26.1837
    [E_mod_pauli (MOD PAULI) (kJ/mol) = 37.3954 (CLS PAULI - DISP from orthogonal decomposition) ]
  --------------------
--------------------

Simplified EDA Summary (kJ/mol)
--------------------
 PREPARATION     -0.0000
 SOLVATION       298.4955
 FROZEN          -317.6923      (does not include dispersion)
[PAULI           63.7490]     (if this is negligible, then frozen describes electrostatics)
 DISPERSION      -11.2117
 POLARIZATION    -7.2201
 CHARGE TRANSFER -9.3441
 TOTAL           -46.9728     (PRP + SOL + FRZ + DISP + POL + CT)
--------------------
 
 --------------------------------------------------------------
 
                    Orbital Energies (a.u.)
 --------------------------------------------------------------
 
 Alpha MOs
 -- Occupied --
-19.1369 -19.1313 -14.4744 -14.4666 -14.4574 -10.4382 -10.3368 -10.3260
-10.2444  -1.1906  -1.1439  -1.0744  -1.0569  -1.0440  -0.8723  -0.8345
 -0.7815  -0.7396  -0.7077  -0.6379  -0.6295  -0.6136  -0.5983  -0.5876
 -0.5452  -0.5358  -0.5293  -0.5268  -0.5236  -0.4720  -0.4517  -0.4130
 -0.3964  -0.3421  -0.3371  -0.3212
 -- Virtual --
  0.0497   0.0672   0.0754   0.0823   0.0932   0.0956   0.1004   0.1161
  0.1210   0.1235   0.1308   0.1354   0.1433   0.1514   0.1580   0.1629
  0.1726   0.1734   0.1879   0.1909   0.1957   0.2018   0.2048   0.2117
  0.2239   0.2272   0.2320   0.2358   0.2463   0.2534   0.2546   0.2596
  0.2668   0.2726   0.2747   0.2854   0.2905   0.2931   0.3017   0.3034
  0.3113   0.3156   0.3165   0.3212   0.3287   0.3373   0.3428   0.3482
  0.3500   0.3549   0.3608   0.3621   0.3715   0.3787   0.3833   0.3944
  0.3973   0.4008   0.4044   0.4053   0.4093   0.4151   0.4186   0.4238
  0.4315   0.4367   0.4418   0.4515   0.4610   0.4631   0.4667   0.4679
  0.4703   0.4831   0.4858   0.4929   0.4947   0.4992   0.5044   0.5068
  0.5160   0.5202   0.5256   0.5325   0.5396   0.5427   0.5544   0.5585
  0.5662   0.5706   0.5761   0.5826   0.5908   0.5933   0.6018   0.6096
  0.6147   0.6214   0.6287   0.6307   0.6350   0.6567   0.6585   0.6645
  0.6707   0.6807   0.6889   0.6962   0.7003   0.7062   0.7158   0.7202
  0.7240   0.7307   0.7403   0.7432   0.7584   0.7697   0.7795   0.7837
  0.7888   0.7968   0.8025   0.8080   0.8195   0.8244   0.8326   0.8422
  0.8439   0.8496   0.8590   0.8640   0.8784   0.8839   0.8922   0.9050
  0.9111   0.9235   0.9404   0.9531   0.9653   0.9773   0.9843   1.0092
  1.0216   1.0314   1.0471   1.0571   1.0637   1.0727   1.0770   1.0916
  1.1090   1.1153   1.1237   1.1403   1.1470   1.1650   1.1805   1.1831
  1.2010   1.2129   1.2296   1.2362   1.2467   1.2704   1.2872   1.2923
  1.3194   1.3359   1.3381   1.3621   1.3689   1.3958   1.4090   1.4413
  1.4472   1.4591   1.4739   1.4812   1.5078   1.5753   1.5906   1.6252
  1.6296   1.6621   1.6771   1.7027   1.7342   1.7592   1.7678   1.8197
  1.8463   1.8510   1.8585   1.8720   1.8829   1.8915   1.8976   1.9142
  1.9229   1.9461   1.9518   1.9703   1.9756   1.9820   2.0031   2.0094
  2.0178   2.0259   2.0312   2.0562   2.0642   2.0703   2.1272   2.1316
  2.1537   2.1649   2.1961   2.2241   2.2250   2.2369   2.2577   2.2617
  2.2929   2.3054   2.3448   2.3530   2.3618   2.3734   2.4158   2.4306
  2.4425   2.4538   2.4725   2.5012   2.5154   2.5296   2.5513   2.5633
  2.5713   2.5875   2.5971   2.6139   2.6290   2.6326   2.6375   2.6619
  2.6769   2.6849   2.7179   2.7385   2.8011   2.8147   2.8254   2.8309
  2.8451   2.8828   2.8877   2.9080   2.9131   2.9259   2.9391   2.9596
  2.9750   3.0213   3.0527   3.1046   3.1162   3.1282   3.1573   3.1884
  3.2128   3.2139   3.2194   3.2307   3.2453   3.2618   3.2699   3.2795
  3.3061   3.3126   3.3367   3.3470   3.3548   3.3708   3.3778   3.3999
  3.4008   3.4263   3.4361   3.4545   3.4576   3.4698   3.5107   3.5457
  3.5706   3.5959   3.6107   3.6180   3.6257   3.6431   3.6521   3.6592
  3.6687   3.7390   3.7405   3.7537   3.7901   3.8073   3.8708   3.9082
  3.9261   3.9484   3.9700   4.0141   4.0716   4.0919   4.1421   4.1501
  4.1918   4.2069   4.2569   4.3036   4.3276   4.3608   4.3646   4.4328
  4.5013   4.5309   4.5819   4.6137   4.6573   4.6641   4.6739   4.8403
  4.8428   4.8530   4.8841   4.8936   4.9297   5.0003   5.0063   5.0312
  5.0494   5.1152   5.1287   5.1462   5.1711   5.1913   5.2049   5.2700
  5.3228   5.3447   5.3528   5.3565   5.3652   5.3735   5.4053   5.4246
  5.4525   5.4952   5.5049   5.5250   5.5946   5.6578   5.6976   5.7081
  5.7702   5.7747   5.8087   5.8159   5.8963   6.0311   6.1318   6.1698
  6.2588   6.3501   6.3711   6.3870   6.4628   6.6418   6.6564   6.7440
  6.7582   6.7656   6.9556   7.0209   7.0507   7.2608   7.3692   7.3913
  7.4570  22.6020  22.6641  23.6748  23.7562  32.3767  32.5048  32.8557
 44.3333  44.3940
 --------------------------------------------------------------
 
          Ground-State Mulliken Net Atomic Charges

     Atom                 Charge (a.u.)
  ----------------------------------------
      1 C                    -0.433349
      2 C                     0.265859
      3 O                    -0.713039
      4 O                    -0.664822
      5 H                     0.169752
      6 H                     0.148838
      7 H                     0.164023
      8 C                    -0.791170
      9 C                     0.523022
     10 N                    -0.072988
     11 N                    -0.110773
     12 N                    -0.228817
     13 H                     0.197189
     14 H                     0.075988
     15 H                     0.264964
     16 H                     0.199772
     17 H                     0.168722
     18 H                     0.301708
     19 H                     0.245394
     20 H                     0.289728
  ----------------------------------------
  Sum of atomic charges =     0.000000

 -----------------------------------------------------------------
                    Cartesian Multipole Moments
 -----------------------------------------------------------------
    Charge (ESU x 10^10)
                 0.0000
    Dipole Moment (Debye)
         X     -16.3247      Y     -12.7154      Z       9.6076
       Tot      22.8141
    Quadrupole Moments (Debye-Ang)
        XX     -60.2877     XY     -18.7444     YY     -60.1548
        XZ      -4.9709     YZ       0.2075     ZZ     -49.0335
    Octopole Moments (Debye-Ang^2)
       XXX    -156.5781    XXY     -73.9227    XYY     -82.7222
       YYY     -79.2939    XXZ      84.0900    XYZ      43.6293
       YYZ      53.6649    XZZ     -46.6494    YZZ     -27.5755
       ZZZ      34.2643
    Hexadecapole Moments (Debye-Ang^3)
      XXXX   -1412.4041   XXXY    -566.8003   XXYY    -486.8753
      XYYY    -459.7316   YYYY    -939.5302   XXXZ     454.8611
      XXYZ     155.2707   XYYZ     179.7910   YYYZ     308.5668
      XXZZ    -338.8059   XYZZ    -123.8448   YYZZ    -294.6582
      XZZZ     449.4803   YZZZ     289.3289   ZZZZ    -916.4199
 -----------------------------------------------------------------
Archival summary:
1\1\nid00511\SP\ProcedureUnspecified\BasisUnspecified\23411\meili\SunSep2616:37:512021SunSep2616:37:512021\0\\#,ProcedureUnspecified,BasisUnspecified,\\0,1\O\C,1,1.25163\O,2,1.25167,1,123.232\C,2,1.52255,1,118.228,3,-179.866,0\H,4,1.08851,2,109.911,1,-172.94,0\H,4,1.09261,2,109.139,1,69.394,0\H,4,1.1,2,111.756,1,-50.8161,0\H,1,1.96777,2,137.56,3,-135.057,0\N,8,1.02242,1,173.077,2,-16.2634,0\H,9,1.0089,8,118.944,1,39.3666,0\C,9,1.31991,8,119.466,1,-144.097,0\N,11,1.31566,9,119.058,8,1.1922,0\H,12,1.00824,11,119.831,9,-174.355,0\H,12,1.00865,11,119.475,9,-2.37841,0\N,11,1.32583,9,120.844,8,-178.125,0\H,15,1.02225,11,117.061,9,162.999,0\C,15,1.46696,11,124.793,9,0.0148939,0\H,17,1.09082,15,109.093,11,-171.365,0\H,17,1.09291,15,110.383,11,-53.3514,0\H,17,1.1,15,111.133,11,69.0735,0\\\@

 Total job time:  27366.53s(wall), 16076.88s(cpu) 
 Sun Sep 26 16:37:54 2021

        *************************************************************
        *                                                           *
        *  Thank you very much for using Q-Chem.  Have a nice day.  *
        *                                                           *
        *************************************************************


