                  Welcome to Q-Chem
     A Quantum Leap Into The Future Of Chemistry


 Q-Chem 5.2 (devel), Q-Chem, Inc., Pleasanton, CA (2019)

 Yihan Shao,  Zhengting Gan,  E. Epifanovsky,  A. T. B. Gilbert,  M. Wormit,  
 J. Kussmann,  A. W. Lange,  A. Behn,  Jia Deng,  Xintian Feng,  D. Ghosh,  
 M. Goldey,  P. R. Horn,  L. D. Jacobson,  I. Kaliman,  T. Kus,  A. Landau,  
 Jie Liu,  E. I. Proynov,  R. M. Richard,  R. P. Steele,  E. J. Sundstrom,  
 H. L. Woodcock III,  P. M. Zimmerman,  D. Zuev,  B. Albrecht,  E. Alguire,  
 S. A. Baeppler,  D. Barton,  Z. Benda,  Y. A. Bernard,  E. J. Berquist,  
 K. B. Bravaya,  H. Burton,  D. Casanova,  Chun-Min Chang,  Yunqing Chen,  
 A. Chien,  K. D. Closser,  M. P. Coons,  S. Coriani,  S. Dasgupta,  
 A. L. Dempwolff,  M. Diedenhofen,  Hainam Do,  R. G. Edgar,  Po-Tung Fang,  
 S. Faraji,  S. Fatehi,  Qingguo Feng,  K. D. Fenk,  J. Fosso-Tande,  
 J. Gayvert,  Qinghui Ge,  A. Ghysels,  G. Gidofalvi,  J. Gomes,  
 J. Gonthier,  A. Gunina,  D. Hait,  M. W. D. Hanson-Heine,  
 P. H. P. Harbach,  A. W. Hauser,  M. F. Herbst,  J. E. Herr,  
 E. G. Hohenstein,  Z. C. Holden,  Kerwin Hui,  B. C. Huynh,  T.-C. Jagau,  
 Hyunjun Ji,  B. Kaduk,  K. Khistyaev,  Jaehoon Kim,  P. Klunzinger,  K. Koh,  
 D. Kosenkov,  L. Koulias,  T. Kowalczyk,  C. M. Krauter,  A. Kunitsa,  
 Ka Un Lao,  A. Laurent,  K. V. Lawler,  Joonho Lee,  D. Lefrancois,  
 S. Lehtola,  D. S. Levine,  Yi-Pei Li,  You-Sheng Lin,  Fenglai Liu,  
 E. Livshits,  A. Luenser,  P. Manohar,  E. Mansoor,  S. F. Manzer,  
 Shan-Ping Mao,  Yuezhi Mao,  N. Mardirossian,  A. V. Marenich,  
 T. Markovich,  L. A. Martinez-Martinez,  S. A. Maurer,  N. J. Mayhall,  
 S. C. McKenzie,  J.-M. Mewes,  P. Morgante,  A. F. Morrison,  
 J. W. Mullinax,  K. Nanda,  T. S. Nguyen-Beck,  R. Olivares-Amaya,  
 J. A. Parkhill,  Zheng Pei,  T. M. Perrine,  F. Plasser,  P. Pokhilko,  
 S. Prager,  A. Prociuk,  E. Ramos,  D. R. Rehn,  F. Rob,  M. Scheurer,  
 M. Schneider,  N. Sergueev,  S. M. Sharada,  S. Sharma,  D. W. Small,  
 T. Stauch,  T. Stein,  Yu-Chuan Su,  A. J. W. Thom,  A. Tkatchenko,  
 T. Tsuchimochi,  N. M. Tubman,  L. Vogt,  M. L. Vidal,  O. Vydrov,  
 M. A. Watson,  J. Wenzel,  M. de Wergifosse,  T. A. Wesolowski,  A. White,  
 J. Witte,  A. Yamada,  Jun Yang,  K. Yao,  S. Yeganeh,  S. R. Yost,  
 Zhi-Qiang You,  A. Zech,  Igor Ying Zhang,  Xing Zhang,  Yan Zhao,  
 Ying Zhu,  B. R. Brooks,  G. K. L. Chan,  C. J. Cramer,  M. S. Gordon,  
 W. J. Hehre,  A. Klamt,  M. W. Schmidt,  C. D. Sherrill,  D. G. Truhlar,  
 A. Aspuru-Guzik,  R. Baer,  A. T. Bell,  N. A. Besley,  Jeng-Da Chai,  
 A. E. DePrince, III,  R. A. DiStasio Jr.,  A. Dreuw,  B. D. Dunietz,  
 T. R. Furlani,  Chao-Ping Hsu,  Yousung Jung,  Jing Kong,  D. S. Lambrecht,  
 WanZhen Liang,  C. Ochsenfeld,  V. A. Rassolov,  L. V. Slipchenko,  
 J. E. Subotnik,  T. Van Voorhis,  J. M. Herbert,  A. I. Krylov,  
 P. M. W. Gill,  M. Head-Gordon

 Contributors to earlier versions of Q-Chem not listed above: 
 R. D. Adamson,  B. Austin,  J. Baker,  G. J. O. Beran,  K. Brandhorst,  
 S. T. Brown,  E. F. C. Byrd,  A. K. Chakraborty,  C.-L. Cheng,  
 Siu Hung Chien,  D. M. Chipman,  D. L. Crittenden,  H. Dachsel,  
 R. J. Doerksen,  A. D. Dutoi,  L. Fusti-Molnar,  W. A. Goddard III,  
 A. Golubeva-Zadorozhnaya,  S. R. Gwaltney,  G. Hawkins,  A. Heyden,  
 S. Hirata,  G. Kedziora,  F. J. Keil,  C. Kelley,  Jihan Kim,  R. A. King,  
 R. Z. Khaliullin,  P. P. Korambath,  W. Kurlancheek,  A. M. Lee,  M. S. Lee,  
 S. V. Levchenko,  Ching Yeh Lin,  D. Liotard,  R. C. Lochan,  I. Lotan,  
 P. E. Maslen,  N. Nair,  D. P. O'Neill,  D. Neuhauser,  E. Neuscamman,  
 C. M. Oana,  R. Olson,  B. Peters,  R. Peverati,  P. A. Pieniazek,  
 Y. M. Rhee,  J. Ritchie,  M. A. Rohrdanz,  E. Rosta,  N. J. Russ,  
 H. F. Schaefer III,  N. E. Schultz,  N. Shenvi,  A. C. Simmonett,  A. Sodt,  
 D. Stuck,  K. S. Thanthiriwatte,  V. Vanovschi,  Tao Wang,  A. Warshel,  
 C. F. Williams,  Q. Wu,  X. Xu,  W. Zhang

 Please cite Q-Chem as follows:
 Y. Shao et al., Mol. Phys. 113, 184-215 (2015)
 DOI: 10.1080/00268976.2014.952696

 Q-Chem 5.2.1 for Intel X86 EM64T Linux

 Parts of Q-Chem use Armadillo 8.300.2 (Tropical Shenanigans).
 http://arma.sourceforge.net/

 Q-Chem begins on Wed Sep 29 23:21:45 2021  

compute-0-10.local
Host: 0

     Scratch files written to /home/meili/scratch/qchem41340//
NAlpha2: 128
NElect   128
Mult     1
Symmetry turned off for PCM/SM12/SMD calculation

 Q-Chem warning in module libgen/rem_setup.C, line 2813:

 Neither GIA nor STOLL is specified by user. Use STOLL as the default


Checking the input file for inconsistencies... 	...done.

--------------------------------------------------------------
User input:
--------------------------------------------------------------
$comment
SSI-097TRP-173TYR-1.pdb
$end

$molecule
0 1
--
0 1
C   -2.303929701257   -2.955279342536    1.902170135362
C   -1.046929701257    0.554720657464    1.678170135362
C   -0.838929701257   -0.798279342536    2.014170135362
C   -2.067929701257   -1.499279342536    1.733170135362
C   -2.945929701257   -0.576279342536    1.285170135362
C   -0.059929701257    1.516720657464    1.837170135362
C    1.162070298743    1.101720657464    2.306170135362
C    0.420070298743   -1.196279342536    2.471170135362
C    1.407070298743   -0.237279342536    2.625170135362
N   -2.341929701257    0.654720657464    1.257170135362
H   -2.811929701257    1.520720657464    0.976170135362
H   -0.247929701257    2.549720657464    1.584170135362
H   -3.967929701257   -0.760279342536    0.980170135362
H    1.958070298743    1.824720657464    2.422170135362
H    0.609070298743   -2.232279342536    2.711170135362
H   -2.167929701257   -3.197279342536    2.956170135362
H   -1.533929701257   -3.482279342536    1.338170135362
H    2.388070298743   -0.531279342536    2.975170135362
H   -3.288799701257   -3.314789342536    1.569320135362
--
0 1
C    2.307070298743   -2.049279342536   -3.222829864638
C   -0.283929701257    0.458720657464   -2.041829864638
C    0.499070298743    1.605720657464   -1.899829864638
C    0.303070298743   -0.731279342536   -2.476829864638
C    1.665070298743   -0.787279342536   -2.737829864638
C    1.848070298743    1.548720657464   -2.130829864638
C    2.431070298743    0.362720657464   -2.565829864638
O   -0.030929701257    2.797720657464   -1.492829864638
H   -1.339929701257    0.505720657464   -1.822829864638
H   -0.307929701257   -1.614279342536   -2.603829864638
H    2.460070298743    2.428720657464   -1.995829864638
H    0.639070298743    3.485720657464   -1.426829864638
H    1.722070298743   -2.898279342536   -2.868829864638
H    3.293070298743   -2.127279342536   -2.759829864638
H    3.492070298743    0.307720657464   -2.744829864638
H    2.426190298743   -2.129169342536   -4.313438864638
$end

$rem
JOBTYPE			EDA
EDA2			1
method			wB97X-V
BASIS			def2-TZVPD
XC_GRID			000099000590
NL_GRID			1
UNRESTRICTED		FALSE
MAX_SCF_CYCLES		200
SYMMETRY		FALSE
SYM_IGNORE		TRUE
MEM_STATIC		2000
BASIS_LIN_DEP_THRESH 	6
THRESH 			14
SCF_CONVERGENCE 	8
SCF_PRINT_FRGM 		TRUE
SOLVENT_METHOD          SMD
$end

$SMX
SOLVENT			WATER
$END
--------------------------------------------------------------
 ----------------------------------------------------------------
             Standard Nuclear Orientation (Angstroms)
    I     Atom           X                Y                Z
 ----------------------------------------------------------------
    1      C      -2.3039297013    -2.9552793425     1.9021701354
    2      C      -1.0469297013     0.5547206575     1.6781701354
    3      C      -0.8389297013    -0.7982793425     2.0141701354
    4      C      -2.0679297013    -1.4992793425     1.7331701354
    5      C      -2.9459297013    -0.5762793425     1.2851701354
    6      C      -0.0599297013     1.5167206575     1.8371701354
    7      C       1.1620702987     1.1017206575     2.3061701354
    8      C       0.4200702987    -1.1962793425     2.4711701354
    9      C       1.4070702987    -0.2372793425     2.6251701354
   10      N      -2.3419297013     0.6547206575     1.2571701354
   11      H      -2.8119297013     1.5207206575     0.9761701354
   12      H      -0.2479297013     2.5497206575     1.5841701354
   13      H      -3.9679297013    -0.7602793425     0.9801701354
   14      H       1.9580702987     1.8247206575     2.4221701354
   15      H       0.6090702987    -2.2322793425     2.7111701354
   16      H      -2.1679297013    -3.1972793425     2.9561701354
   17      H      -1.5339297013    -3.4822793425     1.3381701354
   18      H       2.3880702987    -0.5312793425     2.9751701354
   19      H      -3.2887997013    -3.3147893425     1.5693201354
   20      C       2.3070702987    -2.0492793425    -3.2228298646
   21      C      -0.2839297013     0.4587206575    -2.0418298646
   22      C       0.4990702987     1.6057206575    -1.8998298646
   23      C       0.3030702987    -0.7312793425    -2.4768298646
   24      C       1.6650702987    -0.7872793425    -2.7378298646
   25      C       1.8480702987     1.5487206575    -2.1308298646
   26      C       2.4310702987     0.3627206575    -2.5658298646
   27      O      -0.0309297013     2.7977206575    -1.4928298646
   28      H      -1.3399297013     0.5057206575    -1.8228298646
   29      H      -0.3079297013    -1.6142793425    -2.6038298646
   30      H       2.4600702987     2.4287206575    -1.9958298646
   31      H       0.6390702987     3.4857206575    -1.4268298646
   32      H       1.7220702987    -2.8982793425    -2.8688298646
   33      H       3.2930702987    -2.1272793425    -2.7598298646
   34      H       3.4920702987     0.3077206575    -2.7448298646
   35      H       2.4261902987    -2.1291693425    -4.3134388646
 ----------------------------------------------------------------
 Nuclear Repulsion Energy =        1232.63981884 hartrees
 There are       64 alpha and       64 beta electrons
 Requested basis set is def2-TZVPD
 There are 320 shells and 822 basis functions

 Total QAlloc Memory Limit   2000 MB
 Mega-Array Size      1956 MB
 MEM_STATIC part      2000 MB

 Citation of the SMD model:
 Marenich, A.V.; Cramer, C.J.; Truhlar, D.G.
 J. Phys. Chem. B 2009, 113, 6378-6396.
 iSolventCode=           1
 Solvent: water                                                           

 vradii
            1           2           3           4           5           6
    1   1.8500000   1.8500000   1.8500000   1.8500000   1.8500000   1.8500000
            7           8           9          10          11          12
    1   1.8500000   1.8500000   1.8500000   1.8900000   1.2000000   1.2000000
           13          14          15          16          17          18
    1   1.2000000   1.2000000   1.2000000   1.2000000   1.2000000   1.2000000
           19          20          21          22          23          24
    1   1.2000000   1.8500000   1.8500000   1.8500000   1.8500000   1.8500000
           25          26          27          28          29          30
    1   1.8500000   1.8500000   1.5200000   1.2000000   1.2000000   1.2000000
           31          32          33          34          35
    1   1.2000000   1.2000000   1.2000000   1.2000000   1.2000000
 Changing PCM_VDW_RADII to SMD_RADIUS
 Discretize the solute cavity surface with Lebedev spheres
	Using 110 Lebedev grid points for each H atom
	Using 194 Lebedev grid points for other atoms
	Atomic van der Waals radii will be scaled by 1.20
 Remove points where switching function is < 1.0e-08
 Keep 2522 surface tesserae and discard 2840 interior tesserae
 Molecular Surface Area = 305.277 Angst**2
 A cutoff of  1.0D-14 yielded  43508 shell pairs
 There are    288306 function pairs (    366027 Cartesian)
 Smallest overlap matrix eigenvalue = 3.41E-07
 Linear dependence detected in AO basis
 Tighter screening thresholds may be required for diffuse basis sets
 Use S2THRESH > 14 and THRESH = 14 in case of SCF convergence issues
 Number of orthogonalized atomic orbitals = 816
 Maximum deviation from orthogonality = 2.214E-10

 Scale SEOQF with 1.000000e-01/1.000000e-01/1.000000e-01

 Standard Electronic Orientation quadrupole field applied
 Nucleus-field energy     =    -0.0000000282 hartrees

 -----------------------------------------------------------------------
  General SCF calculation program by
  Eric Jon Sundstrom, Paul Horn, Yuezhi Mao, Dmitri Zuev, Alec White,
  David Stuck, Shaama M.S., Shane Yost, Joonho Lee, David Small,
  Daniel Levine, Susi Lehtola, Hugh Burton, Evgeny Epifanovsky,
  Bang C. Huynh
 -----------------------------------------------------------------------
================================================================
                 ALMO-EDA with the EDA2 driver                  
================================================================
 The second-generation ALMO-EDA (for DFT):                      
 P. R. Horn, Y. Mao and M. Head-Gordon, PCCP, 18, 23067 (2016)  
 Decomposition of the frozen energy:                            
 P. R. Horn, Y. Mao and M. Head-Gordon, JCP, 144, 114107 (2016) 
 FERF model for polarization:                                   
 P. R. Horn and M. Head-Gordon, JCP, 143, 114111 (2015)         
Using eda2 option set 1
Option set summary: Frozen orbital wavefunction, initial wavefunction decomposition, and nDQ polarization.
--------------------------------
Printing EDA Options
--------------------------------
eda_child_super_basis      0
fragmo_guess_mode          0
child_mp                   1
child_mp_orders            232
cls_elec                   1
cls_disp                   0
scfmi_mode                 1
scfmi_occs                 0
scfmi_virts                0
frz_relax                  0
frz_relax_method           0
dc_pen_start               0
dc_pen_conv                0
dc_pen_increment           0
dc_pen_steps               0
dc_pen_thresh_factor       0
dc_pen_pre_newton_thresh   0
frz_ortho_decomp           1
frz_ortho_decomp_conv      6
frgm_method                2
scfmi_freeze_ss            0
separate_rehyb             0
plot_diff_den              0
eda_nocv                   0
eda_vct_relax              1
disp_free_x                0
disp_free_c                0
eda_bsse                   0
eda_pct_a                  0
eda_covp                   0
--------------------------------
Attempting to make child job directory: /home/meili/scratch/qchem41340//Frg1/
Attempting to make child job directory: /home/meili/scratch/qchem41340//Frg2/
Creating input file /home/meili/scratch/qchem41340/Frg1.input
using default PutDataFrgm: nothing
calling putenv with: QCSCRATCH=/home/meili/scratch/qchem41340/ 
Spawning Job For Fragment 0
                  Welcome to Q-Chem
     A Quantum Leap Into The Future Of Chemistry


 Q-Chem 5.2 (devel), Q-Chem, Inc., Pleasanton, CA (2019)

 Yihan Shao,  Zhengting Gan,  E. Epifanovsky,  A. T. B. Gilbert,  M. Wormit,  
 J. Kussmann,  A. W. Lange,  A. Behn,  Jia Deng,  Xintian Feng,  D. Ghosh,  
 M. Goldey,  P. R. Horn,  L. D. Jacobson,  I. Kaliman,  T. Kus,  A. Landau,  
 Jie Liu,  E. I. Proynov,  R. M. Richard,  R. P. Steele,  E. J. Sundstrom,  
 H. L. Woodcock III,  P. M. Zimmerman,  D. Zuev,  B. Albrecht,  E. Alguire,  
 S. A. Baeppler,  D. Barton,  Z. Benda,  Y. A. Bernard,  E. J. Berquist,  
 K. B. Bravaya,  H. Burton,  D. Casanova,  Chun-Min Chang,  Yunqing Chen,  
 A. Chien,  K. D. Closser,  M. P. Coons,  S. Coriani,  S. Dasgupta,  
 A. L. Dempwolff,  M. Diedenhofen,  Hainam Do,  R. G. Edgar,  Po-Tung Fang,  
 S. Faraji,  S. Fatehi,  Qingguo Feng,  K. D. Fenk,  J. Fosso-Tande,  
 J. Gayvert,  Qinghui Ge,  A. Ghysels,  G. Gidofalvi,  J. Gomes,  
 J. Gonthier,  A. Gunina,  D. Hait,  M. W. D. Hanson-Heine,  
 P. H. P. Harbach,  A. W. Hauser,  M. F. Herbst,  J. E. Herr,  
 E. G. Hohenstein,  Z. C. Holden,  Kerwin Hui,  B. C. Huynh,  T.-C. Jagau,  
 Hyunjun Ji,  B. Kaduk,  K. Khistyaev,  Jaehoon Kim,  P. Klunzinger,  K. Koh,  
 D. Kosenkov,  L. Koulias,  T. Kowalczyk,  C. M. Krauter,  A. Kunitsa,  
 Ka Un Lao,  A. Laurent,  K. V. Lawler,  Joonho Lee,  D. Lefrancois,  
 S. Lehtola,  D. S. Levine,  Yi-Pei Li,  You-Sheng Lin,  Fenglai Liu,  
 E. Livshits,  A. Luenser,  P. Manohar,  E. Mansoor,  S. F. Manzer,  
 Shan-Ping Mao,  Yuezhi Mao,  N. Mardirossian,  A. V. Marenich,  
 T. Markovich,  L. A. Martinez-Martinez,  S. A. Maurer,  N. J. Mayhall,  
 S. C. McKenzie,  J.-M. Mewes,  P. Morgante,  A. F. Morrison,  
 J. W. Mullinax,  K. Nanda,  T. S. Nguyen-Beck,  R. Olivares-Amaya,  
 J. A. Parkhill,  Zheng Pei,  T. M. Perrine,  F. Plasser,  P. Pokhilko,  
 S. Prager,  A. Prociuk,  E. Ramos,  D. R. Rehn,  F. Rob,  M. Scheurer,  
 M. Schneider,  N. Sergueev,  S. M. Sharada,  S. Sharma,  D. W. Small,  
 T. Stauch,  T. Stein,  Yu-Chuan Su,  A. J. W. Thom,  A. Tkatchenko,  
 T. Tsuchimochi,  N. M. Tubman,  L. Vogt,  M. L. Vidal,  O. Vydrov,  
 M. A. Watson,  J. Wenzel,  M. de Wergifosse,  T. A. Wesolowski,  A. White,  
 J. Witte,  A. Yamada,  Jun Yang,  K. Yao,  S. Yeganeh,  S. R. Yost,  
 Zhi-Qiang You,  A. Zech,  Igor Ying Zhang,  Xing Zhang,  Yan Zhao,  
 Ying Zhu,  B. R. Brooks,  G. K. L. Chan,  C. J. Cramer,  M. S. Gordon,  
 W. J. Hehre,  A. Klamt,  M. W. Schmidt,  C. D. Sherrill,  D. G. Truhlar,  
 A. Aspuru-Guzik,  R. Baer,  A. T. Bell,  N. A. Besley,  Jeng-Da Chai,  
 A. E. DePrince, III,  R. A. DiStasio Jr.,  A. Dreuw,  B. D. Dunietz,  
 T. R. Furlani,  Chao-Ping Hsu,  Yousung Jung,  Jing Kong,  D. S. Lambrecht,  
 WanZhen Liang,  C. Ochsenfeld,  V. A. Rassolov,  L. V. Slipchenko,  
 J. E. Subotnik,  T. Van Voorhis,  J. M. Herbert,  A. I. Krylov,  
 P. M. W. Gill,  M. Head-Gordon

 Contributors to earlier versions of Q-Chem not listed above: 
 R. D. Adamson,  B. Austin,  J. Baker,  G. J. O. Beran,  K. Brandhorst,  
 S. T. Brown,  E. F. C. Byrd,  A. K. Chakraborty,  C.-L. Cheng,  
 Siu Hung Chien,  D. M. Chipman,  D. L. Crittenden,  H. Dachsel,  
 R. J. Doerksen,  A. D. Dutoi,  L. Fusti-Molnar,  W. A. Goddard III,  
 A. Golubeva-Zadorozhnaya,  S. R. Gwaltney,  G. Hawkins,  A. Heyden,  
 S. Hirata,  G. Kedziora,  F. J. Keil,  C. Kelley,  Jihan Kim,  R. A. King,  
 R. Z. Khaliullin,  P. P. Korambath,  W. Kurlancheek,  A. M. Lee,  M. S. Lee,  
 S. V. Levchenko,  Ching Yeh Lin,  D. Liotard,  R. C. Lochan,  I. Lotan,  
 P. E. Maslen,  N. Nair,  D. P. O'Neill,  D. Neuhauser,  E. Neuscamman,  
 C. M. Oana,  R. Olson,  B. Peters,  R. Peverati,  P. A. Pieniazek,  
 Y. M. Rhee,  J. Ritchie,  M. A. Rohrdanz,  E. Rosta,  N. J. Russ,  
 H. F. Schaefer III,  N. E. Schultz,  N. Shenvi,  A. C. Simmonett,  A. Sodt,  
 D. Stuck,  K. S. Thanthiriwatte,  V. Vanovschi,  Tao Wang,  A. Warshel,  
 C. F. Williams,  Q. Wu,  X. Xu,  W. Zhang

 Please cite Q-Chem as follows:
 Y. Shao et al., Mol. Phys. 113, 184-215 (2015)
 DOI: 10.1080/00268976.2014.952696

 Q-Chem 5.2.1 for Intel X86 EM64T Linux

 Parts of Q-Chem use Armadillo 8.300.2 (Tropical Shenanigans).
 http://arma.sourceforge.net/

 Q-Chem begins on Wed Sep 29 23:21:55 2021  

compute-0-10.local
Host: 0

     Scratch files written to /home/meili/scratch/qchem41340//Frg1//
NAlpha2: 70
NElect   70
Mult     1
Symmetry turned off for PCM/SM12/SMD calculation

Checking the input file for inconsistencies... 	...done.

--------------------------------------------------------------
User input:
--------------------------------------------------------------
$molecule
0 1
 6	-2.3039297013	-2.9552793425	1.9021701354
 6	-1.0469297013	0.5547206575	1.6781701354
 6	-0.8389297013	-0.7982793425	2.0141701354
 6	-2.0679297013	-1.4992793425	1.7331701354
 6	-2.9459297013	-0.5762793425	1.2851701354
 6	-0.0599297013	1.5167206575	1.8371701354
 6	1.1620702987	1.1017206575	2.3061701354
 6	0.4200702987	-1.1962793425	2.4711701354
 6	1.4070702987	-0.2372793425	2.6251701354
 7	-2.3419297013	0.6547206575	1.2571701354
 1	-2.8119297013	1.5207206575	0.9761701354
 1	-0.2479297013	2.5497206575	1.5841701354
 1	-3.9679297013	-0.7602793425	0.9801701354
 1	1.9580702987	1.8247206575	2.4221701354
 1	0.6090702987	-2.2322793425	2.7111701354
 1	-2.1679297013	-3.1972793425	2.9561701354
 1	-1.5339297013	-3.4822793425	1.3381701354
 1	2.3880702987	-0.5312793425	2.9751701354
 1	-3.2887997013	-3.3147893425	1.5693201354
$end
$rem
EDA2		1
METHOD		WB97X-V
BASIS		DEF2-TZVPD
XC_GRID		000099000590
NL_GRID		1
UNRESTRICTED		FALSE
MAX_SCF_CYCLES		200
SYMMETRY		FALSE
SYM_IGNORE		TRUE
BASIS_LIN_DEP_THRESH		6
THRESH		14
SCF_CONVERGENCE		8
SCF_PRINT_FRGM		TRUE
SOLVENT_METHOD		SMD
!required keywords
JOBTYPE		SP
SYM_IGNORE		TRUE
SUBSYSTEM		TRUE
GEN_SCFMAN		TRUE
CHILD_INSTRUCTION		2
SYM_IGNORE		TRUE
SCFMI		0
RI_K 0		
PARI_K 0		
MIN_PARI_K 0		
IARI_K 0		
OCC_RI_K 0		
PURECART		1111
MEM_STATIC		2000
MEM_TOTAL		2000
GUI		0
CHILD_MP		1
CHILD_MP_ORDERS		232
FRZ_RELAX		0
FRZ_RELAX_METHOD		0
EDA_CLS_ELEC		1
EDA_CLS_DISP		0
FRZ_ORTHO_DECOMP		1
EDA2		FALSE
FRGM_METHOD		FALSE
CIS_N_ROOTS  0
LOCAL_CIS    0
CIS_RLX_DNS  1
$end
$smx
SOLVENT			WATER
$end
--------------------------------------------------------------
 ----------------------------------------------------------------
             Standard Nuclear Orientation (Angstroms)
    I     Atom           X                Y                Z
 ----------------------------------------------------------------
    1      C      -2.3039297013    -2.9552793425     1.9021701354
    2      C      -1.0469297013     0.5547206575     1.6781701354
    3      C      -0.8389297013    -0.7982793425     2.0141701354
    4      C      -2.0679297013    -1.4992793425     1.7331701354
    5      C      -2.9459297013    -0.5762793425     1.2851701354
    6      C      -0.0599297013     1.5167206575     1.8371701354
    7      C       1.1620702987     1.1017206575     2.3061701354
    8      C       0.4200702987    -1.1962793425     2.4711701354
    9      C       1.4070702987    -0.2372793425     2.6251701354
   10      N      -2.3419297013     0.6547206575     1.2571701354
   11      H      -2.8119297013     1.5207206575     0.9761701354
   12      H      -0.2479297013     2.5497206575     1.5841701354
   13      H      -3.9679297013    -0.7602793425     0.9801701354
   14      H       1.9580702987     1.8247206575     2.4221701354
   15      H       0.6090702987    -2.2322793425     2.7111701354
   16      H      -2.1679297013    -3.1972793425     2.9561701354
   17      H      -1.5339297013    -3.4822793425     1.3381701354
   18      H       2.3880702987    -0.5312793425     2.9751701354
   19      H      -3.2887997013    -3.3147893425     1.5693201354
 ----------------------------------------------------------------
 Nuclear Repulsion Energy =         486.73038975 hartrees
 There are       35 alpha and       35 beta electrons
 Requested basis set is def2-TZVPD
 There are 175 shells and 451 basis functions

 Total QAlloc Memory Limit   2000 MB
 Mega-Array Size      1956 MB
 MEM_STATIC part      2000 MB

 Citation of the SMD model:
 Marenich, A.V.; Cramer, C.J.; Truhlar, D.G.
 J. Phys. Chem. B 2009, 113, 6378-6396.
 iSolventCode=           1
 Solvent: water                                                           

 vradii
            1           2           3           4           5           6
    1   1.8500000   1.8500000   1.8500000   1.8500000   1.8500000   1.8500000
            7           8           9          10          11          12
    1   1.8500000   1.8500000   1.8500000   1.8900000   1.2000000   1.2000000
           13          14          15          16          17          18
    1   1.2000000   1.2000000   1.2000000   1.2000000   1.2000000   1.2000000
           19
    1   1.2000000
 Changing PCM_VDW_RADII to SMD_RADIUS
 Discretize the solute cavity surface with Lebedev spheres
	Using 110 Lebedev grid points for each H atom
	Using 194 Lebedev grid points for other atoms
	Atomic van der Waals radii will be scaled by 1.20
 Remove points where switching function is < 1.0e-08
 Keep 1350 surface tesserae and discard 1580 interior tesserae
 Molecular Surface Area = 164.457 Angst**2
 A cutoff of  1.0D-14 yielded  14478 shell pairs
 There are     98268 function pairs (    126443 Cartesian)
 Smallest overlap matrix eigenvalue = 5.02E-07
 Linear dependence detected in AO basis
 Tighter screening thresholds may be required for diffuse basis sets
 Use S2THRESH > 14 and THRESH = 14 in case of SCF convergence issues
 Number of orthogonalized atomic orbitals = 448
 Maximum deviation from orthogonality = 3.060E-10

 Scale SEOQF with 1.000000e-01/1.000000e-01/1.000000e-01

 Standard Electronic Orientation quadrupole field applied
 Nucleus-field energy     =    -0.0000000096 hartrees
 Guess from superposition of atomic densities
 Warning:  Energy on first SCF cycle will be non-variational
 SAD guess density has 70.000000 electrons

 -----------------------------------------------------------------------
  General SCF calculation program by
  Eric Jon Sundstrom, Paul Horn, Yuezhi Mao, Dmitri Zuev, Alec White,
  David Stuck, Shaama M.S., Shane Yost, Joonho Lee, David Small,
  Daniel Levine, Susi Lehtola, Hugh Burton, Evgeny Epifanovsky,
  Bang C. Huynh
 -----------------------------------------------------------------------
 Exchange:     0.1670 Hartree-Fock + 1.0000 wB97X-V + LR-HF
 Correlation:  1.0000 wB97X-V
 Using Euler-Maclaurin-Lebedev (99,590) quadrature formula
 Nonlocal Correlation:  VV10 with C = 0.0100 and b = 6.00 and scale = 1.00000
 Grid used for NLC:  SG-1 standard quadrature
Energy prior to optimization (guess energy) = -403.079743485192
Begin Timing: Total SCF Calculation
begin iterations for algorithm: DIIS         
the SCF tolerance is set to 1.00e-08
    1    -403.0797434852      1.69e-03     00000 
    2    -403.1337070177      1.22e-03     00000 
    3    -403.1743968642      2.44e-04     00000 
    4    -403.1762070305      1.18e-04     00000 
    5    -403.1766475311      3.87e-05     00000 
    6    -403.1766945170      1.20e-05     00000 
    7    -403.1766988151      4.24e-06     00000 
    8    -403.1766996916      9.18e-07     00000 
    9    -403.1766997783      4.20e-07     00000 
   10    -403.1766997965      2.11e-07     00000 
   11    -403.1766998021      6.81e-08     00000 
   12    -403.1766998029      2.94e-08     00000 
   13    -403.1766998030      1.02e-08     00000 
   14    -403.1766998030      3.34e-09     00000 Convergence criterion met
Timing for Total SCF: 1506.00s (wall), 10942.95s (cpu)
(3)  G-ENP(liq) elect-nuc-pol free energy of system     -403.176699803 a.u.
(4)  G-CDS(liq) cavity-dispersion-solvent structure 
     free energy                                                3.7738 kcal/mol
(6)  G-S(liq) free energy of system                     -403.170685874 a.u.
E_pcm = -0.0157921103
E_cds = 0.0060139291
Multipole orders to be included
        2
        3
computing dipole RHS
computing quadrupole RHS
total number of RHS in solve_reponses: 8
RHS batch sizes
        8
Beginning Block Conjugate Gradient Iterations. Batch Number: 0
computing hessian-vector products by finite difference
              1      6.53e-01     00000 Conjugate Gradient Iteration
computing hessian-vector products by finite difference
              2      2.11e-01     00000 Conjugate Gradient Iteration
computing hessian-vector products by finite difference
              3      6.62e-02     00000 Conjugate Gradient Iteration
computing hessian-vector products by finite difference
              4      2.69e-02     00000 Conjugate Gradient Iteration
computing hessian-vector products by finite difference
              5      9.95e-03     00000 Conjugate Gradient Iteration
computing hessian-vector products by finite difference
              6      2.85e-03     00000 Conjugate Gradient Iteration
computing hessian-vector products by finite difference
              7      8.42e-04     00000 Conjugate Gradient Iteration
computing hessian-vector products by finite difference
              8      1.69e-04     00000 Conjugate Gradient Iteration
computing hessian-vector products by finite difference
              9      3.09e-05     00000 Conjugate Gradient Iteration
computing hessian-vector products by finite difference
             10      6.04e-06     00000 Conjugate Gradient Iteration
computing hessian-vector products by finite difference
             11      1.17e-06     00000 Conjugate Gradient Iteration
computing hessian-vector products by finite difference
             12      1.82e-07     00000 Conjugate Gradient Iteration
computing hessian-vector products by finite difference
             13      4.85e-08     00000 Conjugate Gradient Iteration
computing hessian-vector products by finite difference
             14      1.00e-08     00000 Conjugate Gradient Iteration
computing hessian-vector products by finite difference
             15      1.76e-09     00000 CG Converged
batch 0 complete
Done Calculating Responses
TESTING ORTHOGONALIZATION OF MULTIPOLE BASIS
Multipole virts passed orthogonality test
Virts Per Order
          105
          175

 --------------------------------------------------------------

                    Orbital Energies (a.u.)
 --------------------------------------------------------------

 Alpha MOs
 -- Occupied --
-14.4407 -10.2963 -10.2867 -10.2662 -10.2658 -10.2628 -10.2614 -10.2591
-10.2551 -10.2529  -1.1120  -0.9789  -0.9280  -0.8667  -0.8589  -0.8120
 -0.7428  -0.7091  -0.6728  -0.6435  -0.5941  -0.5799  -0.5532  -0.5455
 -0.5346  -0.5143  -0.5067  -0.4871  -0.4753  -0.4523  -0.4479  -0.4289
 -0.3749  -0.3142  -0.2895
 -- Virtual --
  0.0583   0.0642   0.0796   0.0823   0.0947   0.1018   0.1039   0.1107
  0.1325   0.1389   0.1440   0.1509   0.1567   0.1674   0.1765   0.1832
  0.1937   0.1959   0.2056   0.2134   0.2163   0.2224   0.2278   0.2499
  0.2537   0.2582   0.2637   0.2670   0.2695   0.2794   0.2801   0.2812
  0.2848   0.2915   0.2920   0.2944   0.3041   0.3150   0.3186   0.3233
  0.3325   0.3366   0.3403   0.3440   0.3465   0.3496   0.3535   0.3544
  0.3616   0.3641   0.3766   0.3816   0.3837   0.3858   0.3916   0.3973
  0.4091   0.4121   0.4152   0.4183   0.4247   0.4272   0.4306   0.4379
  0.4435   0.4525   0.4563   0.4609   0.4643   0.4703   0.4708   0.4771
  0.4937   0.4953   0.5018   0.5030   0.5078   0.5092   0.5235   0.5255
  0.5344   0.5456   0.5485   0.5534   0.5565   0.5579   0.5636   0.5659
  0.5786   0.5822   0.5870   0.5918   0.6023   0.6156   0.6198   0.6283
  0.6391   0.6444   0.6458   0.6520   0.6591   0.6676   0.6814   0.6871
  0.6924   0.6966   0.7014   0.7062   0.7128   0.7185   0.7286   0.7312
  0.7422   0.7459   0.7508   0.7654   0.7676   0.7721   0.7758   0.7786
  0.7841   0.7852   0.7894   0.7946   0.8039   0.8111   0.8146   0.8206
  0.8240   0.8248   0.8354   0.8387   0.8438   0.8501   0.8519   0.8608
  0.8666   0.8714   0.8836   0.9010   0.9091   0.9177   0.9218   0.9417
  0.9523   0.9545   0.9886   0.9958   1.0051   1.0146   1.0201   1.0332
  1.0464   1.0532   1.0642   1.0746   1.0773   1.0827   1.0964   1.1138
  1.1226   1.1283   1.1441   1.1578   1.1697   1.1907   1.2181   1.2209
  1.2429   1.2561   1.2655   1.2888   1.2955   1.3257   1.3423   1.3484
  1.3849   1.3935   1.4018   1.4176   1.4366   1.4443   1.4594   1.5127
  1.5184   1.5310   1.5659   1.5761   1.5886   1.6161   1.6226   1.6279
  1.6526   1.6654   1.7006   1.7165   1.7254   1.7352   1.7447   1.7607
  1.7974   1.8143   1.8431   1.8549   1.8620   1.8729   1.8870   1.8929
  1.9028   1.9236   1.9321   1.9530   1.9622   1.9777   1.9788   1.9992
  2.0028   2.0069   2.0081   2.0305   2.0346   2.0693   2.0715   2.0833
  2.1141   2.1267   2.1326   2.1763   2.1904   2.2018   2.2137   2.2384
  2.2621   2.2905   2.2964   2.3288   2.3422   2.3453   2.3626   2.4073
  2.4168   2.4383   2.4466   2.4855   2.5016   2.5120   2.5205   2.5333
  2.5905   2.5949   2.5986   2.6117   2.6165   2.6502   2.6856   2.7017
  2.7081   2.7193   2.7680   2.7763   2.7828   2.7945   2.8062   2.8143
  2.8306   2.8416   2.8498   2.8690   2.8847   2.9058   2.9099   2.9278
  2.9314   2.9536   2.9632   2.9759   2.9892   3.0165   3.0369   3.0436
  3.0482   3.0727   3.0921   3.1100   3.1340   3.1359   3.1397   3.1614
  3.1774   3.2062   3.2213   3.2312   3.2412   3.2502   3.2738   3.2793
  3.2991   3.3047   3.3149   3.3342   3.3520   3.3673   3.3747   3.3945
  3.4043   3.4282   3.4360   3.4392   3.4467   3.4697   3.4767   3.4816
  3.4864   3.5014   3.5165   3.5191   3.5370   3.5457   3.5629   3.5839
  3.5982   3.6076   3.6163   3.6351   3.6457   3.6709   3.6768   3.6878
  3.7174   3.7238   3.7266   3.7366   3.7488   3.7741   3.7883   3.7952
  3.8162   3.8840   3.9116   3.9277   3.9445   3.9539   3.9779   4.0521
  4.0657   4.0736   4.1294   4.1567   4.1718   4.1935   4.2285   4.2332
  4.2516   4.2870   4.2920   4.3038   4.3314   4.3725   4.3846   4.3876
  4.4247   4.4396   4.4717   4.5090   4.5157   4.5316   4.5642   4.6247
  4.6527   4.6663   4.6892   4.7433   4.7742   4.8505   4.8549   4.9367
  4.9489   4.9761   4.9919   5.0064   5.0251   5.0716   5.0825   5.1286
  5.1348   5.1615   5.2169   5.2374   5.2783   5.4012   5.4232   5.4683
  5.5119   5.5794   5.6150   5.6625   5.7133   5.8220   5.8399   5.9617
  5.9884   6.2815   6.3670  22.6877  22.7548  22.9503  22.9741  23.0072
 23.2291  23.2822  23.4965  23.8237  32.8562
 --------------------------------------------------------------

          Ground-State Mulliken Net Atomic Charges

     Atom                 Charge (a.u.)
  ----------------------------------------
      1 C                    -1.034232
      2 C                    -0.016117
      3 C                     0.482540
      4 C                     0.637255
      5 C                    -0.735315
      6 C                    -0.794606
      7 C                    -0.470491
      8 C                    -0.503452
      9 C                    -0.704585
     10 N                     0.126015
     11 H                     0.228042
     12 H                     0.412141
     13 H                     0.315713
     14 H                     0.404395
     15 H                     0.441436
     16 H                     0.254745
     17 H                     0.260424
     18 H                     0.405857
     19 H                     0.290235
  ----------------------------------------
  Sum of atomic charges =     0.000000

 -----------------------------------------------------------------
                    Cartesian Multipole Moments
 -----------------------------------------------------------------
    Charge (ESU x 10^10)
                -0.0000
    Dipole Moment (Debye)
         X      -2.4344      Y       1.2817      Z      -1.0411
       Tot       2.9416
    Quadrupole Moments (Debye-Ang)
        XX     -46.5425     XY      -2.7219     YY     -50.9121
        XZ       1.0876     YZ      -0.4981     ZZ     -66.7272
    Octopole Moments (Debye-Ang^2)
       XXX     112.5744    XXY      30.8195    XYY      40.1003
       YYY      76.7128    XXZ    -103.2624    XYZ      -1.3530
       YYZ    -100.9069    XZZ      63.2881    YZZ      17.7242
       ZZZ    -374.1350
    Hexadecapole Moments (Debye-Ang^3)
      XXXX    -993.6399   XXXY    -217.6557   XXYY    -292.1015
      XYYY    -222.2144   YYYY    -798.8413   XXXZ     184.3673
      XXYZ      56.3264   XYYZ      55.6472   YYYZ     148.5209
      XXZZ    -444.4565   XYZZ     -75.1713   YYZZ    -366.4072
      XZZZ     218.7050   YZZZ     125.8410   ZZZZ   -1591.6153
 -----------------------------------------------------------------
Archival summary:
1\1\compute-0-10.local\SP\ProcedureUnspecified\BasisUnspecified\199\meili\ThuSep3007:39:112021ThuSep3007:39:112021\0\\#,ProcedureUnspecified,BasisUnspecified,\\0,1\C\C,1,1.39726\H,2,1.0801,1,120.236\C,2,1.38476,1,118.773,3,-179.16,0\H,4,1.08226,2,119.597,1,-179.799,0\C,4,1.39811,2,120.863,1,-1.2308,0\H,6,1.08157,4,119.129,2,-179.024,0\C,6,1.37312,4,121.556,2,0.318346,0\H,8,1.08002,6,121.601,4,-179.578,0\C,8,1.38741,6,117.561,4,-0.549643,0\N,10,1.36538,8,131.245,6,179.034,0\H,11,1.02461,10,125.558,8,-0.0750386,0\C,11,1.37148,10,110.222,8,-178.943,0\H,13,1.0823,11,124.243,10,-178.859,0\C,13,1.35038,11,109.508,10,0.525107,0\C,15,1.48465,13,127.21,11,-179.199,0\H,16,1.08994,15,107.938,13,-119.01,0\H,16,1.09029,15,107.631,13,124.948,0\H,16,1.1,15,115.366,13,3.63328,0\\\@

 Total job time:  29836.17s(wall), 218054.68s(cpu) 
 Thu Sep 30 07:39:11 2021

        *************************************************************
        *                                                           *
        *  Thank you very much for using Q-Chem.  Have a nice day.  *
        *                                                           *
        *************************************************************


Done Job For Fragment 0
calling putenv with: QCSCRATCH=/home/meili/scratch 
calling putenv with: QCTHREADS=8 
Creating input file /home/meili/scratch/qchem41340/Frg2.input
using default PutDataFrgm: nothing
calling putenv with: QCSCRATCH=/home/meili/scratch/qchem41340/ 
Spawning Job For Fragment 1
                  Welcome to Q-Chem
     A Quantum Leap Into The Future Of Chemistry


 Q-Chem 5.2 (devel), Q-Chem, Inc., Pleasanton, CA (2019)

 Yihan Shao,  Zhengting Gan,  E. Epifanovsky,  A. T. B. Gilbert,  M. Wormit,  
 J. Kussmann,  A. W. Lange,  A. Behn,  Jia Deng,  Xintian Feng,  D. Ghosh,  
 M. Goldey,  P. R. Horn,  L. D. Jacobson,  I. Kaliman,  T. Kus,  A. Landau,  
 Jie Liu,  E. I. Proynov,  R. M. Richard,  R. P. Steele,  E. J. Sundstrom,  
 H. L. Woodcock III,  P. M. Zimmerman,  D. Zuev,  B. Albrecht,  E. Alguire,  
 S. A. Baeppler,  D. Barton,  Z. Benda,  Y. A. Bernard,  E. J. Berquist,  
 K. B. Bravaya,  H. Burton,  D. Casanova,  Chun-Min Chang,  Yunqing Chen,  
 A. Chien,  K. D. Closser,  M. P. Coons,  S. Coriani,  S. Dasgupta,  
 A. L. Dempwolff,  M. Diedenhofen,  Hainam Do,  R. G. Edgar,  Po-Tung Fang,  
 S. Faraji,  S. Fatehi,  Qingguo Feng,  K. D. Fenk,  J. Fosso-Tande,  
 J. Gayvert,  Qinghui Ge,  A. Ghysels,  G. Gidofalvi,  J. Gomes,  
 J. Gonthier,  A. Gunina,  D. Hait,  M. W. D. Hanson-Heine,  
 P. H. P. Harbach,  A. W. Hauser,  M. F. Herbst,  J. E. Herr,  
 E. G. Hohenstein,  Z. C. Holden,  Kerwin Hui,  B. C. Huynh,  T.-C. Jagau,  
 Hyunjun Ji,  B. Kaduk,  K. Khistyaev,  Jaehoon Kim,  P. Klunzinger,  K. Koh,  
 D. Kosenkov,  L. Koulias,  T. Kowalczyk,  C. M. Krauter,  A. Kunitsa,  
 Ka Un Lao,  A. Laurent,  K. V. Lawler,  Joonho Lee,  D. Lefrancois,  
 S. Lehtola,  D. S. Levine,  Yi-Pei Li,  You-Sheng Lin,  Fenglai Liu,  
 E. Livshits,  A. Luenser,  P. Manohar,  E. Mansoor,  S. F. Manzer,  
 Shan-Ping Mao,  Yuezhi Mao,  N. Mardirossian,  A. V. Marenich,  
 T. Markovich,  L. A. Martinez-Martinez,  S. A. Maurer,  N. J. Mayhall,  
 S. C. McKenzie,  J.-M. Mewes,  P. Morgante,  A. F. Morrison,  
 J. W. Mullinax,  K. Nanda,  T. S. Nguyen-Beck,  R. Olivares-Amaya,  
 J. A. Parkhill,  Zheng Pei,  T. M. Perrine,  F. Plasser,  P. Pokhilko,  
 S. Prager,  A. Prociuk,  E. Ramos,  D. R. Rehn,  F. Rob,  M. Scheurer,  
 M. Schneider,  N. Sergueev,  S. M. Sharada,  S. Sharma,  D. W. Small,  
 T. Stauch,  T. Stein,  Yu-Chuan Su,  A. J. W. Thom,  A. Tkatchenko,  
 T. Tsuchimochi,  N. M. Tubman,  L. Vogt,  M. L. Vidal,  O. Vydrov,  
 M. A. Watson,  J. Wenzel,  M. de Wergifosse,  T. A. Wesolowski,  A. White,  
 J. Witte,  A. Yamada,  Jun Yang,  K. Yao,  S. Yeganeh,  S. R. Yost,  
 Zhi-Qiang You,  A. Zech,  Igor Ying Zhang,  Xing Zhang,  Yan Zhao,  
 Ying Zhu,  B. R. Brooks,  G. K. L. Chan,  C. J. Cramer,  M. S. Gordon,  
 W. J. Hehre,  A. Klamt,  M. W. Schmidt,  C. D. Sherrill,  D. G. Truhlar,  
 A. Aspuru-Guzik,  R. Baer,  A. T. Bell,  N. A. Besley,  Jeng-Da Chai,  
 A. E. DePrince, III,  R. A. DiStasio Jr.,  A. Dreuw,  B. D. Dunietz,  
 T. R. Furlani,  Chao-Ping Hsu,  Yousung Jung,  Jing Kong,  D. S. Lambrecht,  
 WanZhen Liang,  C. Ochsenfeld,  V. A. Rassolov,  L. V. Slipchenko,  
 J. E. Subotnik,  T. Van Voorhis,  J. M. Herbert,  A. I. Krylov,  
 P. M. W. Gill,  M. Head-Gordon

 Contributors to earlier versions of Q-Chem not listed above: 
 R. D. Adamson,  B. Austin,  J. Baker,  G. J. O. Beran,  K. Brandhorst,  
 S. T. Brown,  E. F. C. Byrd,  A. K. Chakraborty,  C.-L. Cheng,  
 Siu Hung Chien,  D. M. Chipman,  D. L. Crittenden,  H. Dachsel,  
 R. J. Doerksen,  A. D. Dutoi,  L. Fusti-Molnar,  W. A. Goddard III,  
 A. Golubeva-Zadorozhnaya,  S. R. Gwaltney,  G. Hawkins,  A. Heyden,  
 S. Hirata,  G. Kedziora,  F. J. Keil,  C. Kelley,  Jihan Kim,  R. A. King,  
 R. Z. Khaliullin,  P. P. Korambath,  W. Kurlancheek,  A. M. Lee,  M. S. Lee,  
 S. V. Levchenko,  Ching Yeh Lin,  D. Liotard,  R. C. Lochan,  I. Lotan,  
 P. E. Maslen,  N. Nair,  D. P. O'Neill,  D. Neuhauser,  E. Neuscamman,  
 C. M. Oana,  R. Olson,  B. Peters,  R. Peverati,  P. A. Pieniazek,  
 Y. M. Rhee,  J. Ritchie,  M. A. Rohrdanz,  E. Rosta,  N. J. Russ,  
 H. F. Schaefer III,  N. E. Schultz,  N. Shenvi,  A. C. Simmonett,  A. Sodt,  
 D. Stuck,  K. S. Thanthiriwatte,  V. Vanovschi,  Tao Wang,  A. Warshel,  
 C. F. Williams,  Q. Wu,  X. Xu,  W. Zhang

 Please cite Q-Chem as follows:
 Y. Shao et al., Mol. Phys. 113, 184-215 (2015)
 DOI: 10.1080/00268976.2014.952696

 Q-Chem 5.2.1 for Intel X86 EM64T Linux

 Parts of Q-Chem use Armadillo 8.300.2 (Tropical Shenanigans).
 http://arma.sourceforge.net/

 Q-Chem begins on Thu Sep 30 07:39:11 2021  

compute-0-10.local
Host: 0

     Scratch files written to /home/meili/scratch/qchem41340//Frg2//
NAlpha2: 58
NElect   58
Mult     1
Symmetry turned off for PCM/SM12/SMD calculation

Checking the input file for inconsistencies... 	...done.

--------------------------------------------------------------
User input:
--------------------------------------------------------------
$molecule
0 1
 6	2.3070702987	-2.0492793425	-3.2228298646
 6	-0.2839297013	0.4587206575	-2.0418298646
 6	0.4990702987	1.6057206575	-1.8998298646
 6	0.3030702987	-0.7312793425	-2.4768298646
 6	1.6650702987	-0.7872793425	-2.7378298646
 6	1.8480702987	1.5487206575	-2.1308298646
 6	2.4310702987	0.3627206575	-2.5658298646
 8	-0.0309297013	2.7977206575	-1.4928298646
 1	-1.3399297013	0.5057206575	-1.8228298646
 1	-0.3079297013	-1.6142793425	-2.6038298646
 1	2.4600702987	2.4287206575	-1.9958298646
 1	0.6390702987	3.4857206575	-1.4268298646
 1	1.7220702987	-2.8982793425	-2.8688298646
 1	3.2930702987	-2.1272793425	-2.7598298646
 1	3.4920702987	0.3077206575	-2.7448298646
 1	2.4261902987	-2.1291693425	-4.3134388646
$end
$rem
EDA2		1
METHOD		WB97X-V
BASIS		DEF2-TZVPD
XC_GRID		000099000590
NL_GRID		1
UNRESTRICTED		FALSE
MAX_SCF_CYCLES		200
SYMMETRY		FALSE
SYM_IGNORE		TRUE
BASIS_LIN_DEP_THRESH		6
THRESH		14
SCF_CONVERGENCE		8
SCF_PRINT_FRGM		TRUE
SOLVENT_METHOD		SMD
!required keywords
JOBTYPE		SP
SYM_IGNORE		TRUE
SUBSYSTEM		TRUE
GEN_SCFMAN		TRUE
CHILD_INSTRUCTION		2
SYM_IGNORE		TRUE
SCFMI		0
RI_K 0		
PARI_K 0		
MIN_PARI_K 0		
IARI_K 0		
OCC_RI_K 0		
PURECART		1111
MEM_STATIC		2000
MEM_TOTAL		2000
GUI		0
CHILD_MP		1
CHILD_MP_ORDERS		232
FRZ_RELAX		0
FRZ_RELAX_METHOD		0
EDA_CLS_ELEC		1
EDA_CLS_DISP		0
FRZ_ORTHO_DECOMP		1
EDA2		FALSE
FRGM_METHOD		FALSE
CIS_N_ROOTS  0
LOCAL_CIS    0
CIS_RLX_DNS  1
$end
$smx
SOLVENT			WATER
$end
--------------------------------------------------------------
 ----------------------------------------------------------------
             Standard Nuclear Orientation (Angstroms)
    I     Atom           X                Y                Z
 ----------------------------------------------------------------
    1      C       2.3070702987    -2.0492793425    -3.2228298646
    2      C      -0.2839297013     0.4587206575    -2.0418298646
    3      C       0.4990702987     1.6057206575    -1.8998298646
    4      C       0.3030702987    -0.7312793425    -2.4768298646
    5      C       1.6650702987    -0.7872793425    -2.7378298646
    6      C       1.8480702987     1.5487206575    -2.1308298646
    7      C       2.4310702987     0.3627206575    -2.5658298646
    8      O      -0.0309297013     2.7977206575    -1.4928298646
    9      H      -1.3399297013     0.5057206575    -1.8228298646
   10      H      -0.3079297013    -1.6142793425    -2.6038298646
   11      H       2.4600702987     2.4287206575    -1.9958298646
   12      H       0.6390702987     3.4857206575    -1.4268298646
   13      H       1.7220702987    -2.8982793425    -2.8688298646
   14      H       3.2930702987    -2.1272793425    -2.7598298646
   15      H       3.4920702987     0.3077206575    -2.7448298646
   16      H       2.4261902987    -2.1291693425    -4.3134388646
 ----------------------------------------------------------------
 Nuclear Repulsion Energy =         344.01374694 hartrees
 There are       29 alpha and       29 beta electrons
 Requested basis set is def2-TZVPD
 There are 145 shells and 371 basis functions

 Total QAlloc Memory Limit   2000 MB
 Mega-Array Size      1956 MB
 MEM_STATIC part      2000 MB

 Citation of the SMD model:
 Marenich, A.V.; Cramer, C.J.; Truhlar, D.G.
 J. Phys. Chem. B 2009, 113, 6378-6396.
 iSolventCode=           1
 Solvent: water                                                           

 vradii
            1           2           3           4           5           6
    1   1.8500000   1.8500000   1.8500000   1.8500000   1.8500000   1.8500000
            7           8           9          10          11          12
    1   1.8500000   1.5200000   1.2000000   1.2000000   1.2000000   1.2000000
           13          14          15          16
    1   1.2000000   1.2000000   1.2000000   1.2000000
 Changing PCM_VDW_RADII to SMD_RADIUS
 Discretize the solute cavity surface with Lebedev spheres
	Using 110 Lebedev grid points for each H atom
	Using 194 Lebedev grid points for other atoms
	Atomic van der Waals radii will be scaled by 1.20
 Remove points where switching function is < 1.0e-08
 Keep 1172 surface tesserae and discard 1260 interior tesserae
 Molecular Surface Area = 141.053 Angst**2
 A cutoff of  1.0D-14 yielded  10048 shell pairs
 There are     67108 function pairs (     85811 Cartesian)
 Smallest overlap matrix eigenvalue = 5.51E-07
 Linear dependence detected in AO basis
 Tighter screening thresholds may be required for diffuse basis sets
 Use S2THRESH > 14 and THRESH = 14 in case of SCF convergence issues
 Number of orthogonalized atomic orbitals = 370
 Maximum deviation from orthogonality = 1.250E-10

 Scale SEOQF with 1.000000e-01/1.000000e-01/1.000000e-01

 Standard Electronic Orientation quadrupole field applied
 Nucleus-field energy     =    -0.0000000187 hartrees
 Guess from superposition of atomic densities
 Warning:  Energy on first SCF cycle will be non-variational
 SAD guess density has 58.000000 electrons

 -----------------------------------------------------------------------
  General SCF calculation program by
  Eric Jon Sundstrom, Paul Horn, Yuezhi Mao, Dmitri Zuev, Alec White,
  David Stuck, Shaama M.S., Shane Yost, Joonho Lee, David Small,
  Daniel Levine, Susi Lehtola, Hugh Burton, Evgeny Epifanovsky,
  Bang C. Huynh
 -----------------------------------------------------------------------
 Exchange:     0.1670 Hartree-Fock + 1.0000 wB97X-V + LR-HF
 Correlation:  1.0000 wB97X-V
 Using Euler-Maclaurin-Lebedev (99,590) quadrature formula
 Nonlocal Correlation:  VV10 with C = 0.0100 and b = 6.00 and scale = 1.00000
 Grid used for NLC:  SG-1 standard quadrature
Energy prior to optimization (guess energy) = -346.729974948739
Begin Timing: Total SCF Calculation
begin iterations for algorithm: DIIS         
the SCF tolerance is set to 1.00e-08
    1    -346.7299749487      2.20e-03     00000 
    2    -346.7820794868      1.74e-03     00000 
    3    -346.8220321930      3.11e-04     00000 
    4    -346.8238614321      1.34e-04     00000 
    5    -346.8242774001      3.82e-05     00000 
    6    -346.8243108528      1.19e-05     00000 
    7    -346.8243142935      5.59e-06     00000 
    8    -346.8243150435      1.23e-06     00000 
    9    -346.8243151239      5.26e-07     00000 
   10    -346.8243151381      2.62e-07     00000 
   11    -346.8243151417      6.79e-08     00000 
   12    -346.8243151422      2.63e-08     00000 
   13    -346.8243151422      1.00e-08     00000 
   14    -346.8243151422      2.84e-09     00000 Convergence criterion met
Timing for Total SCF: 835.00s (wall), 5992.76s (cpu)
(3)  G-ENP(liq) elect-nuc-pol free energy of system     -346.824315142 a.u.
(4)  G-CDS(liq) cavity-dispersion-solvent structure 
     free energy                                                3.7251 kcal/mol
(6)  G-S(liq) free energy of system                     -346.818378872 a.u.
E_pcm = -0.0174088753
E_cds = 0.0059362698
Multipole orders to be included
        2
        3
computing dipole RHS
computing quadrupole RHS
total number of RHS in solve_reponses: 8
RHS batch sizes
        8
Beginning Block Conjugate Gradient Iterations. Batch Number: 0
computing hessian-vector products by finite difference
              1      6.42e-01     00000 Conjugate Gradient Iteration
computing hessian-vector products by finite difference
              2      2.01e-01     00000 Conjugate Gradient Iteration
computing hessian-vector products by finite difference
              3      5.19e-02     00000 Conjugate Gradient Iteration
computing hessian-vector products by finite difference
              4      1.57e-02     00000 Conjugate Gradient Iteration
computing hessian-vector products by finite difference
              5      4.14e-03     00000 Conjugate Gradient Iteration
computing hessian-vector products by finite difference
              6      1.51e-03     00000 Conjugate Gradient Iteration
computing hessian-vector products by finite difference
              7      3.09e-04     00000 Conjugate Gradient Iteration
computing hessian-vector products by finite difference
              8      5.09e-05     00000 Conjugate Gradient Iteration
computing hessian-vector products by finite difference
              9      9.99e-06     00000 Conjugate Gradient Iteration
computing hessian-vector products by finite difference
             10      1.89e-06     00000 Conjugate Gradient Iteration
computing hessian-vector products by finite difference
             11      2.86e-07     00000 Conjugate Gradient Iteration
computing hessian-vector products by finite difference
             12      3.41e-08     00000 Conjugate Gradient Iteration
computing hessian-vector products by finite difference
             13      1.30e-08     00000 Conjugate Gradient Iteration
computing hessian-vector products by finite difference
             14      4.09e-09     00000 CG Converged
batch 0 complete
Done Calculating Responses
TESTING ORTHOGONALIZATION OF MULTIPOLE BASIS
Multipole virts passed orthogonality test
Virts Per Order
           87
          145

 --------------------------------------------------------------

                    Orbital Energies (a.u.)
 --------------------------------------------------------------

 Alpha MOs
 -- Occupied --
-19.2385 -10.3288 -10.2692 -10.2686 -10.2678 -10.2664 -10.2625 -10.2516
 -1.1887  -0.9931  -0.8985  -0.8791  -0.8045  -0.7436  -0.7089  -0.6599
 -0.5998  -0.5750  -0.5446  -0.5374  -0.5269  -0.5155  -0.5048  -0.4704
 -0.4494  -0.4393  -0.4349  -0.3490  -0.3110
 -- Virtual --
  0.0633   0.0636   0.0746   0.0828   0.0889   0.0999   0.1142   0.1160
  0.1183   0.1367   0.1512   0.1559   0.1604   0.1779   0.1795   0.1983
  0.2085   0.2116   0.2214   0.2284   0.2418   0.2457   0.2570   0.2595
  0.2678   0.2737   0.2763   0.2803   0.2901   0.3014   0.3017   0.3045
  0.3086   0.3161   0.3182   0.3275   0.3384   0.3477   0.3510   0.3546
  0.3597   0.3626   0.3660   0.3788   0.3831   0.3843   0.3856   0.3975
  0.3999   0.4036   0.4048   0.4102   0.4204   0.4277   0.4310   0.4371
  0.4427   0.4546   0.4633   0.4643   0.4759   0.4797   0.4823   0.4878
  0.4952   0.4983   0.5047   0.5110   0.5191   0.5237   0.5301   0.5452
  0.5475   0.5515   0.5538   0.5619   0.5683   0.5731   0.5898   0.6005
  0.6070   0.6123   0.6271   0.6327   0.6482   0.6615   0.6644   0.6752
  0.6802   0.6865   0.6894   0.6946   0.7050   0.7073   0.7215   0.7325
  0.7373   0.7481   0.7487   0.7571   0.7628   0.7808   0.7864   0.7869
  0.7944   0.7959   0.8013   0.8050   0.8141   0.8200   0.8350   0.8413
  0.8450   0.8492   0.8594   0.8623   0.8682   0.8820   0.8875   0.8991
  0.9087   0.9150   0.9291   0.9560   0.9677   0.9802   0.9942   1.0145
  1.0283   1.0402   1.0472   1.0522   1.0568   1.0773   1.0792   1.0960
  1.1080   1.1247   1.1422   1.1813   1.1998   1.2342   1.2675   1.2955
  1.3153   1.3283   1.3382   1.3630   1.3751   1.3896   1.3937   1.4376
  1.4637   1.4699   1.4847   1.4926   1.5418   1.5730   1.6117   1.6255
  1.6342   1.6467   1.6914   1.7046   1.7149   1.7379   1.7910   1.8102
  1.8223   1.8326   1.8435   1.8599   1.8760   1.8890   1.9260   1.9360
  1.9464   1.9589   1.9787   1.9929   2.0045   2.0366   2.0399   2.0603
  2.0629   2.0834   2.1005   2.1146   2.1216   2.1595   2.2019   2.2109
  2.2273   2.2486   2.2827   2.2877   2.3061   2.3253   2.3538   2.3770
  2.4077   2.4162   2.4314   2.4734   2.4903   2.4993   2.5324   2.5693
  2.5893   2.6008   2.6344   2.6488   2.6562   2.6807   2.6888   2.7510
  2.7553   2.7739   2.7873   2.8079   2.8268   2.8428   2.8783   2.8843
  2.9173   2.9346   2.9458   2.9598   2.9724   2.9778   2.9832   3.0159
  3.0240   3.0563   3.0818   3.0908   3.1123   3.1305   3.1475   3.1724
  3.1926   3.2039   3.2202   3.2357   3.2477   3.2588   3.2839   3.3012
  3.3378   3.3501   3.3877   3.3940   3.4049   3.4209   3.4526   3.4660
  3.4735   3.4867   3.4966   3.5227   3.5303   3.5326   3.5492   3.5535
  3.5666   3.5692   3.5885   3.6062   3.6102   3.6334   3.6608   3.6742
  3.6958   3.7090   3.7403   3.7584   3.8106   3.8270   3.8547   3.9050
  3.9485   3.9759   3.9960   4.0057   4.0563   4.0961   4.1427   4.1953
  4.2565   4.2816   4.3076   4.3201   4.3292   4.3348   4.3568   4.3738
  4.3975   4.4181   4.4419   4.4698   4.5025   4.5459   4.6082   4.6311
  4.7508   4.7529   4.7932   4.8316   4.8905   4.9251   5.0366   5.0684
  5.0961   5.1458   5.1739   5.3196   5.3530   5.4000   5.4636   5.5422
  5.6191   5.6488   5.7177   5.7646   5.9477   6.2180   6.4981   6.6038
  6.6325   6.8752   7.0264   7.3062   7.4583  22.6717  22.6904  22.9595
 22.9967  23.0518  23.2202  23.5447  44.4272
 --------------------------------------------------------------

          Ground-State Mulliken Net Atomic Charges

     Atom                 Charge (a.u.)
  ----------------------------------------
      1 C                    -1.083530
      2 C                    -0.843347
      3 C                     0.690678
      4 C                    -0.447619
      5 C                     0.515041
      6 C                    -0.347363
      7 C                    -0.633272
      8 O                    -0.549541
      9 H                     0.394162
     10 H                     0.387803
     11 H                     0.362983
     12 H                     0.325156
     13 H                     0.300057
     14 H                     0.291696
     15 H                     0.392211
     16 H                     0.244886
  ----------------------------------------
  Sum of atomic charges =     0.000000

 -----------------------------------------------------------------
                    Cartesian Multipole Moments
 -----------------------------------------------------------------
    Charge (ESU x 10^10)
                 0.0000
    Dipole Moment (Debye)
         X       2.0663      Y       0.2314      Z      -0.2762
       Tot       2.0975
    Quadrupole Moments (Debye-Ang)
        XX     -41.6404     XY       6.6959     YY     -38.9532
        XZ      -4.6426     YZ       1.8123     ZZ     -49.7719
    Octopole Moments (Debye-Ang^2)
       XXX    -144.8020    XXY     -10.0261    XYY     -28.1994
       YYY     -14.3940    XXZ      96.2377    XYZ      -7.9850
       YYZ      97.8831    XZZ     -44.9389    YZZ     -27.4547
       ZZZ     352.3057
    Hexadecapole Moments (Debye-Ang^3)
      XXXX    -708.5283   XXXY      63.1330   XXYY    -239.2081
      XYYY     140.2975   YYYY    -637.2004   XXXZ     391.4455
      XXYZ      -7.1753   XYYZ     107.5873   YYYZ     -43.9744
      XXZZ    -382.7324   XYZZ      18.1547   YYZZ    -401.6106
      XZZZ     424.5203   YZZZ      46.5890   ZZZZ   -1795.4208
 -----------------------------------------------------------------
Archival summary:
1\1\compute-0-10.local\SP\ProcedureUnspecified\BasisUnspecified\178\meili\ThuSep3011:53:112021ThuSep3011:53:112021\0\\#,ProcedureUnspecified,BasisUnspecified,\\0,1\C\O,1,1.36653\H,2,0.962601,1,111.957\C,1,1.36982,2,117.935,3,0.792932,0\H,4,1.08036,1,120.192,2,-0.300487,0\C,4,1.3913,1,120.057,2,-179.04,0\H,6,1.0774,4,120.538,1,-179.671,0\C,6,1.39242,4,120.806,1,-1.73206,0\C,8,1.38791,6,118.901,4,0.444334,0\H,9,1.08127,8,119.966,6,-179.945,0\C,1,1.39602,2,121.968,3,178.808,0\H,11,1.07949,1,119.49,2,-0.180437,0\C,8,1.49667,6,120.03,4,179.242,0\H,13,1.09011,8,108.74,6,154.105,0\H,13,1.09208,8,108.067,6,38.3748,0\H,13,1.1,8,115.403,6,-83.2588,0\\\@

 Total job time:  15239.39s(wall), 109403.99s(cpu) 
 Thu Sep 30 11:53:11 2021

        *************************************************************
        *                                                           *
        *  Thank you very much for using Q-Chem.  Have a nice day.  *
        *                                                           *
        *************************************************************


Done Job For Fragment 1
calling putenv with: QCSCRATCH=/home/meili/scratch 
calling putenv with: QCTHREADS=8 
Doing General SCFMI
 Exchange:     0.1670 Hartree-Fock + 1.0000 wB97X-V + LR-HF
 Correlation:  1.0000 wB97X-V
 Using Euler-Maclaurin-Lebedev (99,590) quadrature formula
 Nonlocal Correlation:  VV10 with C = 0.0100 and b = 6.00 and scale = 1.00000
 Grid used for NLC:  SG-1 standard quadrature
performing fock build before subrot guess so that all methods have access
Printing subrot_rss_gen Method Specification:
Occupied Subspace Method is 0
Virtual Subspace Method is 0
Energy of the unrelaxed supersystem initial determinant -749.972287720359
performing fock build before subrot guess so that all methods have access
Printing subrot_rss_gen Method Specification:
Occupied Subspace Method is 0
Virtual Subspace Method is 0
Energy of the unrelaxed supersystem initial determinant w/ solvent -750.005795555865
write pseudocanon occs and virts to disk
write pseudocanon orbital energies to disk
Tolerance of ortho_decomp_scf: 1.00e-06
GDM subspace size: 20
Beginning the Orthogonal Decomposition of the Initial Supersystem Wavefunction
    1    -749.9588046635      1.25e-02     ortho_decomp Preconditoned Steepest Descent
    2    -749.9598026650      3.14e-04     ortho_decomp BFGS Step
    3    -749.9598057496      1.99e-05     ortho_decomp BFGS Step
    4    -749.9598057526      6.55e-07     ortho_decomp 00000 Convergence criterion met
 Hartree-Fock
 Hartree-Fock
 Hartree-Fock
Doing General SCFMI
 Exchange:     0.1670 Hartree-Fock + 1.0000 wB97X-V + LR-HF
 Correlation:  1.0000 wB97X-V
 Using Euler-Maclaurin-Lebedev (99,590) quadrature formula
 Nonlocal Correlation:  VV10 with C = 0.0100 and b = 6.00 and scale = 1.00000
 Grid used for NLC:  SG-1 standard quadrature
performing fock build at end of subrot_r(subrot) constructor so that all methods have access
<S^2> of initial wavefunction before polarization iterations 0.0000000000
Beginning iterations for the determination of the polarized wavefunction
Energy prior to optimization (guess energy) = -750.005795555866
Begin Timing: Total SCF Calculation
begin iterations for algorithm: DIIS         
the SCF tolerance is set to 1.00e-08
    1    -750.0057955559      2.42e-05     00000 
    2    -750.0059044351      1.12e-05     00000 
    3    -750.0059184727      6.44e-06     00000 
    4    -750.0059234502      1.68e-06     00000 
    5    -750.0059239208      7.92e-07     00000 
    6    -750.0059240379      2.62e-07     00000 
    7    -750.0059240471      1.05e-07     00000 
    8    -750.0059240488      3.19e-08     00000 
    9    -750.0059240489      1.11e-08     00000 
   10    -750.0059240489      4.47e-09     00000 Convergence criterion met
write pseudocanon occs and virts to disk
write pseudocanon orbital energies to disk
Timing for Total SCF: 6734.00s (wall), 49768.55s (cpu)
<S^2> of polarized wavefunction after polarization iterations 0.0000000000
relaxing scfmi constraint to allow all rotations in the entire AO span
Doing General SCFMI
 Exchange:     0.1670 Hartree-Fock + 1.0000 wB97X-V + LR-HF
 Correlation:  1.0000 wB97X-V
 Using Euler-Maclaurin-Lebedev (99,590) quadrature formula
 Nonlocal Correlation:  VV10 with C = 0.0100 and b = 6.00 and scale = 1.00000
 Grid used for NLC:  SG-1 standard quadrature
performing fock build at end of subrot_r(subrot) constructor so that all methods have access
<S^2> of polarized wavefunction before ct-allowed iterations 0.0000000000
Beginning iterations for the determination of the CT-Allowed wavefunction
Energy prior to optimization (guess energy) = -750.005924048945
Begin Timing: Total SCF Calculation
begin iterations for algorithm: DIIS         
the SCF tolerance is set to 1.00e-08
    1    -750.0059240489      4.21e-05     00000 
    2    -750.0064021933      3.52e-06     00000 
    3    -750.0064158801      6.50e-07     00000 
    4    -750.0064164305      3.85e-07     00000 
    5    -750.0064164711      8.03e-08     00000 
    6    -750.0064164765      1.87e-08     00000 
    7    -750.0064164767      7.48e-09     00000 Convergence criterion met
write pseudocanon occs and virts to disk
write pseudocanon orbital energies to disk
Timing for Total SCF: 4828.00s (wall), 35409.27s (cpu)
<S^2> of ct_allowed wavefunction after ct-allowed iterations 0.0000000000

================================
        Results of EDA2         
================================
Basic EDA Quantities
--------------------
Fragment Energies (Ha):
1 -403.1706858739
2 -346.8183788724
--------------------
  E_prp (kJ/mol) = 0.0000
  E_sol (kJ/mol) = -1.4166
  E_frz (kJ/mol) = -11.7460
  E_pol (kJ/mol) = -0.3374
  E_vct (kJ/mol) = -1.2929
  E_int (kJ/mol) = -14.7928
--------------------


Initial Wavefunction Decomposition
--------------------
  --------------------
  Orthogonal Fragment Subspace Decomposition:
  --------------------
     E_elec   (ELEC)   (kJ/mol) = -9.2941
     E_pauli  (PAULI)  (kJ/mol) = 15.6209
     E_disp   (DISP)   (kJ/mol) = -18.0728
     --------------------
     Terms summing to E_pauli:
     --------------------
        E_kep_pauli       (kJ/mol) = 21.0258
        E_disp_free_pauli (kJ/mol) = -5.4049
  --------------------
  Classical Frozen Decomposition:
  --------------------
     E_cls_elec  (CLS ELEC)  (kJ/mol) = -0.6522
     E_cls_pauli (CLS PAULI) (kJ/mol) = -11.0938
    [E_mod_pauli (MOD PAULI) (kJ/mol) = 6.9790 (CLS PAULI - DISP from orthogonal decomposition) ]
  --------------------
--------------------

Simplified EDA Summary (kJ/mol)
--------------------
 PREPARATION     0.0000
 SOLVATION       -1.4166
 FROZEN          6.3268      (does not include dispersion)
[PAULI           15.6209]     (if this is negligible, then frozen describes electrostatics)
 DISPERSION      -18.0728
 POLARIZATION    -0.3374
 CHARGE TRANSFER -1.2929
 TOTAL           -14.7928     (PRP + SOL + FRZ + DISP + POL + CT)
--------------------

 --------------------------------------------------------------

                    Orbital Energies (a.u.)
 --------------------------------------------------------------

 Alpha MOs
 -- Occupied --
-19.2389 -14.4408 -10.3290 -10.2963 -10.2870 -10.2694 -10.2689 -10.2682
-10.2666 -10.2663 -10.2658 -10.2629 -10.2628 -10.2615 -10.2593 -10.2554
-10.2530 -10.2516  -1.1889  -1.1121  -0.9933  -0.9790  -0.9281  -0.8986
 -0.8793  -0.8668  -0.8589  -0.8121  -0.8046  -0.7439  -0.7428  -0.7092
 -0.7091  -0.6729  -0.6602  -0.6435  -0.6000  -0.5942  -0.5801  -0.5755
 -0.5542  -0.5460  -0.5448  -0.5376  -0.5342  -0.5270  -0.5158  -0.5144
 -0.5062  -0.5050  -0.4872  -0.4754  -0.4705  -0.4524  -0.4495  -0.4480
 -0.4396  -0.4350  -0.4287  -0.3748  -0.3495  -0.3145  -0.3108  -0.2896
 -- Virtual --
  0.0564   0.0578   0.0618   0.0671   0.0732   0.0769   0.0862   0.0898
  0.0941   0.0951   0.0993   0.1019   0.1050   0.1169   0.1194   0.1224
  0.1301   0.1333   0.1352   0.1413   0.1442   0.1535   0.1554   0.1598
  0.1660   0.1684   0.1705   0.1772   0.1843   0.1865   0.1936   0.1969
  0.2000   0.2075   0.2106   0.2136   0.2165   0.2197   0.2223   0.2315
  0.2354   0.2430   0.2453   0.2473   0.2518   0.2579   0.2621   0.2629
  0.2641   0.2670   0.2706   0.2728   0.2781   0.2824   0.2845   0.2872
  0.2891   0.2915   0.2950   0.2962   0.2989   0.3030   0.3052   0.3093
  0.3146   0.3168   0.3187   0.3208   0.3216   0.3272   0.3292   0.3321
  0.3380   0.3395   0.3422   0.3445   0.3450   0.3501   0.3533   0.3549
  0.3571   0.3601   0.3631   0.3648   0.3667   0.3704   0.3727   0.3757
  0.3766   0.3783   0.3791   0.3835   0.3852   0.3884   0.3918   0.3946
  0.4005   0.4020   0.4047   0.4084   0.4106   0.4142   0.4166   0.4196
  0.4215   0.4268   0.4286   0.4338   0.4352   0.4388   0.4401   0.4437
  0.4458   0.4502   0.4516   0.4525   0.4578   0.4603   0.4617   0.4658
  0.4691   0.4710   0.4737   0.4766   0.4774   0.4823   0.4869   0.4914
  0.4922   0.4968   0.4983   0.5005   0.5046   0.5056   0.5072   0.5135
  0.5160   0.5188   0.5221   0.5253   0.5294   0.5309   0.5363   0.5394
  0.5409   0.5438   0.5494   0.5495   0.5529   0.5563   0.5608   0.5649
  0.5694   0.5717   0.5769   0.5788   0.5805   0.5851   0.5894   0.5945
  0.5982   0.5986   0.6041   0.6086   0.6103   0.6164   0.6176   0.6193
  0.6251   0.6293   0.6334   0.6398   0.6481   0.6491   0.6537   0.6574
  0.6624   0.6692   0.6705   0.6746   0.6769   0.6807   0.6868   0.6891
  0.6910   0.6955   0.6983   0.7023   0.7086   0.7107   0.7139   0.7221
  0.7224   0.7255   0.7281   0.7306   0.7353   0.7451   0.7486   0.7522
  0.7551   0.7560   0.7592   0.7623   0.7640   0.7661   0.7710   0.7730
  0.7780   0.7847   0.7874   0.7879   0.7894   0.7908   0.7951   0.7975
  0.8016   0.8069   0.8079   0.8111   0.8138   0.8175   0.8206   0.8256
  0.8273   0.8313   0.8340   0.8361   0.8384   0.8413   0.8449   0.8495
  0.8499   0.8556   0.8558   0.8592   0.8631   0.8650   0.8690   0.8730
  0.8780   0.8815   0.8853   0.8899   0.8948   0.8973   0.9008   0.9010
  0.9101   0.9163   0.9186   0.9239   0.9311   0.9333   0.9363   0.9419
  0.9438   0.9521   0.9547   0.9565   0.9632   0.9673   0.9705   0.9791
  0.9836   0.9869   0.9947   1.0015   1.0061   1.0187   1.0262   1.0266
  1.0337   1.0373   1.0443   1.0579   1.0592   1.0663   1.0700   1.0771
  1.0795   1.0916   1.0933   1.0985   1.1071   1.1109   1.1143   1.1195
  1.1261   1.1375   1.1419   1.1511   1.1562   1.1622   1.1723   1.1734
  1.1777   1.1886   1.1971   1.2148   1.2243   1.2276   1.2392   1.2472
  1.2537   1.2699   1.2722   1.2799   1.2898   1.2991   1.3075   1.3183
  1.3191   1.3339   1.3410   1.3577   1.3613   1.3673   1.3865   1.3919
  1.3979   1.4008   1.4100   1.4141   1.4288   1.4381   1.4447   1.4570
  1.4624   1.4703   1.4781   1.4878   1.4964   1.5016   1.5200   1.5284
  1.5369   1.5519   1.5544   1.5652   1.5734   1.5792   1.5933   1.5992
  1.6158   1.6213   1.6254   1.6352   1.6420   1.6577   1.6684   1.6766
  1.6798   1.7005   1.7072   1.7089   1.7220   1.7312   1.7470   1.7684
  1.7748   1.7806   1.7893   1.8004   1.8068   1.8264   1.8383   1.8428
  1.8569   1.8638   1.8684   1.8700   1.8890   1.8952   1.9074   1.9156
  1.9173   1.9293   1.9337   1.9389   1.9457   1.9524   1.9589   1.9641
  1.9698   1.9763   1.9788   1.9854   1.9973   1.9993   2.0136   2.0176
  2.0228   2.0327   2.0348   2.0507   2.0513   2.0594   2.0669   2.0721
  2.0769   2.0950   2.1015   2.1048   2.1190   2.1227   2.1298   2.1346
  2.1383   2.1612   2.1654   2.1723   2.1910   2.1958   2.2190   2.2234
  2.2253   2.2282   2.2477   2.2542   2.2643   2.2678   2.2814   2.2912
  2.2935   2.3081   2.3145   2.3228   2.3362   2.3405   2.3501   2.3581
  2.3711   2.3786   2.3859   2.4010   2.4044   2.4263   2.4321   2.4420
  2.4506   2.4568   2.4634   2.4836   2.4956   2.5031   2.5197   2.5243
  2.5291   2.5405   2.5486   2.5519   2.5621   2.6019   2.6048   2.6078
  2.6117   2.6236   2.6257   2.6292   2.6368   2.6566   2.6615   2.6689
  2.6832   2.6994   2.7053   2.7168   2.7177   2.7322   2.7516   2.7587
  2.7626   2.7725   2.7879   2.7926   2.8031   2.8084   2.8154   2.8170
  2.8244   2.8435   2.8464   2.8488   2.8528   2.8618   2.8747   2.8836
  2.8948   2.9041   2.9145   2.9227   2.9372   2.9411   2.9520   2.9588
  2.9633   2.9681   2.9691   2.9816   2.9901   3.0006   3.0053   3.0091
  3.0223   3.0293   3.0391   3.0438   3.0506   3.0557   3.0621   3.0666
  3.0865   3.0985   3.1038   3.1053   3.1086   3.1285   3.1337   3.1524
  3.1569   3.1617   3.1647   3.1713   3.1864   3.2023   3.2149   3.2208
  3.2258   3.2386   3.2469   3.2515   3.2542   3.2658   3.2728   3.2803
  3.2848   3.2882   3.2926   3.3085   3.3167   3.3220   3.3311   3.3481
  3.3553   3.3620   3.3679   3.3739   3.3787   3.3860   3.3963   3.4068
  3.4148   3.4226   3.4316   3.4377   3.4422   3.4468   3.4494   3.4614
  3.4647   3.4792   3.4833   3.4868   3.4936   3.4996   3.5024   3.5087
  3.5156   3.5207   3.5310   3.5373   3.5408   3.5520   3.5559   3.5623
  3.5658   3.5751   3.5763   3.5841   3.5903   3.5912   3.5993   3.6068
  3.6129   3.6199   3.6228   3.6257   3.6392   3.6396   3.6483   3.6596
  3.6689   3.6706   3.6801   3.6853   3.6980   3.7108   3.7135   3.7223
  3.7295   3.7304   3.7384   3.7426   3.7456   3.7649   3.7751   3.7875
  3.8016   3.8112   3.8191   3.8240   3.8498   3.8659   3.8937   3.9136
  3.9216   3.9381   3.9481   3.9651   3.9658   3.9849   3.9936   4.0111
  4.0167   4.0662   4.0742   4.0769   4.0902   4.1066   4.1379   4.1567
  4.1658   4.1857   4.2039   4.2112   4.2337   4.2432   4.2650   4.2716
  4.2943   4.2990   4.3042   4.3188   4.3225   4.3310   4.3381   4.3451
  4.3496   4.3727   4.3763   4.3839   4.3951   4.4024   4.4069   4.4286
  4.4361   4.4491   4.4538   4.4810   4.4850   4.5076   4.5170   4.5225
  4.5391   4.5629   4.5699   4.6227   4.6331   4.6408   4.6601   4.6788
  4.6969   4.7533   4.7567   4.7645   4.7803   4.8053   4.8389   4.8599
  4.8632   4.9024   4.9378   4.9481   4.9642   4.9933   4.9989   5.0300
  5.0368   5.0457   5.0769   5.0774   5.0988   5.1176   5.1416   5.1425
  5.1541   5.1689   5.1911   5.2388   5.2465   5.2848   5.3246   5.3549
  5.4048   5.4126   5.4354   5.4690   5.4858   5.5189   5.5505   5.5763
  5.6241   5.6284   5.6644   5.6686   5.7199   5.7303   5.7532   5.8250
  5.8510   5.9635   5.9667   5.9962   6.2301   6.2910   6.3633   6.4943
  6.6180   6.6852   6.9023   7.0489   7.3223   7.4768  22.6874  22.7070
 22.7375  22.8014  22.9797  22.9992  23.0056  23.0265  23.0385  23.0837
 23.2427  23.2521  23.3020  23.5090  23.5591  23.8323  32.9185  44.5328
 --------------------------------------------------------------

          Ground-State Mulliken Net Atomic Charges

     Atom                 Charge (a.u.)
  ----------------------------------------
      1 C                    -1.087365
      2 C                    -0.096427
      3 C                     0.329261
      4 C                     0.688267
      5 C                    -0.651516
      6 C                    -0.728271
      7 C                    -0.453915
      8 C                    -0.583981
      9 C                    -0.665024
     10 N                     0.175348
     11 H                     0.248618
     12 H                     0.382089
     13 H                     0.306797
     14 H                     0.416298
     15 H                     0.473974
     16 H                     0.270027
     17 H                     0.260681
     18 H                     0.423811
     19 H                     0.295121
     20 C                    -1.195609
     21 C                    -0.604152
     22 C                     0.530784
     23 C                    -0.559480
     24 C                     0.562206
     25 C                    -0.391617
     26 C                    -0.600463
     27 O                    -0.547983
     28 H                     0.386625
     29 H                     0.421414
     30 H                     0.385539
     31 H                     0.335696
     32 H                     0.302431
     33 H                     0.297503
     34 H                     0.417795
     35 H                     0.255520
  ----------------------------------------
  Sum of atomic charges =     0.000000

 -----------------------------------------------------------------
                    Cartesian Multipole Moments
 -----------------------------------------------------------------
    Charge (ESU x 10^10)
                 0.0000
    Dipole Moment (Debye)
         X      -0.3720      Y       1.5290      Z      -1.3199
       Tot       2.0539
    Quadrupole Moments (Debye-Ang)
        XX     -88.1987     XY       3.9923     YY     -89.8557
        XZ      -3.6603     YZ       1.2686     ZZ    -116.3907
    Octopole Moments (Debye-Ang^2)
       XXX     -32.2724    XXY      20.6819    XYY      11.9063
       YYY      62.2582    XXZ      -7.0173    XYZ      -9.2742
       YYZ      -3.0467    XZZ      18.5573    YZZ      -9.8970
       ZZZ     -22.0346
    Hexadecapole Moments (Debye-Ang^3)
      XXXX   -1701.9884   XXXY    -154.3764   XXYY    -531.2994
      XYYY     -81.7063   YYYY   -1436.0121   XXXZ     575.1185
      XXYZ      48.9489   XYYZ     162.9000   YYYZ     104.3136
      XXZZ    -826.9128   XYZZ     -56.9012   YYZZ    -767.9996
      XZZZ     642.7193   YZZZ     172.2608   ZZZZ   -3387.5422
 -----------------------------------------------------------------
Archival summary:
1\1\compute-0-10.local\SP\ProcedureUnspecified\BasisUnspecified\111617\meili\ThuSep3017:50:022021ThuSep3017:50:022021\0\\#,ProcedureUnspecified,BasisUnspecified,\\0,1\N\H,1,1.02461\C,1,1.36538,2,125.558\C,1,1.37148,2,124.209,3,178.715,0\H,4,1.0823,1,124.243,2,2.25495,0\C,4,1.35038,1,109.508,2,-178.361,0\C,3,1.38741,1,131.245,2,-0.0750386,0\H,7,1.08002,3,120.831,1,-1.93001,0\C,7,1.37312,3,117.561,1,179.034,0\H,9,1.08157,7,119.312,3,178.792,0\C,9,1.39811,7,121.556,3,-0.549643,0\H,11,1.08226,9,119.525,7,178.888,0\C,11,1.38476,9,120.863,7,0.318346,0\H,13,1.0801,11,120.986,9,179.616,0\C,13,1.39726,11,118.773,9,-1.2308,0\C,6,1.48465,4,127.21,1,-179.199,0\H,16,1.08994,6,107.938,4,-119.01,0\H,16,1.09029,6,107.631,4,124.948,0\H,16,1.1,6,115.366,4,3.63328,0\O,8,3.0946,7,107.3,3,-78.6815,0\H,20,0.962601,8,92.1727,7,-124.117,0\C,20,1.36653,8,104.681,7,-10.7412,0\C,22,1.36982,20,117.935,8,-97.711,0\H,23,1.08036,22,120.192,20,-0.300487,0\C,23,1.3913,22,120.057,20,-179.04,0\H,25,1.0774,23,120.538,22,-179.671,0\C,25,1.39242,23,120.806,22,-1.73206,0\C,27,1.38791,25,118.901,23,0.444334,0\H,28,1.08127,27,119.966,25,-179.945,0\C,22,1.39602,20,121.968,8,80.304,0\H,30,1.07949,22,119.49,20,-0.180437,0\C,27,1.49667,25,120.03,23,179.242,0\H,32,1.09011,27,108.74,25,154.105,0\H,32,1.09208,27,108.067,25,38.3748,0\H,32,1.1,27,115.403,25,-83.2588,0\\\@

 Total job time:  66496.92s(wall), 161404.62s(cpu) 
 Thu Sep 30 17:50:02 2021

        *************************************************************
        *                                                           *
        *  Thank you very much for using Q-Chem.  Have a nice day.  *
        *                                                           *
        *************************************************************


