
Running Job 1 of 1 SSI-042PHE-088ASP-1_SMD_TZVPD.in
qchem SSI-042PHE-088ASP-1_SMD_TZVPD.in_54728.0 /tmp/qchem54728/ 0
/global/common/cori/software/qchem/5.2/exe/qcprog.exe_s SSI-042PHE-088ASP-1_SMD_TZVPD.in_54728.0 /tmp/qchem54728/
                  Welcome to Q-Chem
     A Quantum Leap Into The Future Of Chemistry


 Q-Chem 5.2, Q-Chem, Inc., Pleasanton, CA (2019)

 License issued to: National Energy Research Scientific Computing Center

 Yihan Shao,  Zhengting Gan,  E. Epifanovsky,  A. T. B. Gilbert,  M. Wormit,  
 J. Kussmann,  A. W. Lange,  A. Behn,  Jia Deng,  Xintian Feng,  D. Ghosh,  
 M. Goldey,  P. R. Horn,  L. D. Jacobson,  I. Kaliman,  T. Kus,  A. Landau,  
 Jie Liu,  E. I. Proynov,  R. M. Richard,  R. P. Steele,  E. J. Sundstrom,  
 H. L. Woodcock III,  P. M. Zimmerman,  D. Zuev,  B. Albrecht,  E. Alguire,  
 S. A. Baeppler,  D. Barton,  Z. Benda,  Y. A. Bernard,  E. J. Berquist,  
 K. B. Bravaya,  H. Burton,  D. Casanova,  Chun-Min Chang,  Yunqing Chen,  
 A. Chien,  K. D. Closser,  M. P. Coons,  S. Coriani,  S. Dasgupta,  
 A. L. Dempwolff,  M. Diedenhofen,  Hainam Do,  R. G. Edgar,  Po-Tung Fang,  
 S. Faraji,  S. Fatehi,  Qingguo Feng,  K. D. Fenk,  J. Fosso-Tande,  
 J. Gayvert,  Qinghui Ge,  A. Ghysels,  G. Gidofalvi,  J. Gomes,  
 J. Gonthier,  A. Gunina,  D. Hait,  M. W. D. Hanson-Heine,  
 P. H. P. Harbach,  A. W. Hauser,  M. F. Herbst,  J. E. Herr,  
 E. G. Hohenstein,  Z. C. Holden,  Kerwin Hui,  B. C. Huynh,  T.-C. Jagau,  
 Hyunjun Ji,  B. Kaduk,  K. Khistyaev,  Jaehoon Kim,  P. Klunzinger,  K. Koh,  
 D. Kosenkov,  L. Koulias,  T. Kowalczyk,  C. M. Krauter,  A. Kunitsa,  
 Ka Un Lao,  A. Laurent,  K. V. Lawler,  Joonho Lee,  D. Lefrancois,  
 S. Lehtola,  D. S. Levine,  Yi-Pei Li,  You-Sheng Lin,  Fenglai Liu,  
 E. Livshits,  A. Luenser,  P. Manohar,  E. Mansoor,  S. F. Manzer,  
 Shan-Ping Mao,  Yuezhi Mao,  N. Mardirossian,  A. V. Marenich,  
 T. Markovich,  L. A. Martinez-Martinez,  S. A. Maurer,  N. J. Mayhall,  
 S. C. McKenzie,  J.-M. Mewes,  P. Morgante,  A. F. Morrison,  
 J. W. Mullinax,  K. Nanda,  T. S. Nguyen-Beck,  R. Olivares-Amaya,  
 J. A. Parkhill,  Zheng Pei,  T. M. Perrine,  F. Plasser,  P. Pokhilko,  
 S. Prager,  A. Prociuk,  E. Ramos,  D. R. Rehn,  F. Rob,  M. Scheurer,  
 M. Schneider,  N. Sergueev,  S. M. Sharada,  S. Sharma,  D. W. Small,  
 T. Stauch,  T. Stein,  Yu-Chuan Su,  A. J. W. Thom,  A. Tkatchenko,  
 T. Tsuchimochi,  N. M. Tubman,  L. Vogt,  M. L. Vidal,  O. Vydrov,  
 M. A. Watson,  J. Wenzel,  M. de Wergifosse,  T. A. Wesolowski,  A. White,  
 J. Witte,  A. Yamada,  Jun Yang,  K. Yao,  S. Yeganeh,  S. R. Yost,  
 Zhi-Qiang You,  A. Zech,  Igor Ying Zhang,  Xing Zhang,  Yan Zhao,  
 Ying Zhu,  B. R. Brooks,  G. K. L. Chan,  C. J. Cramer,  M. S. Gordon,  
 W. J. Hehre,  A. Klamt,  M. W. Schmidt,  C. D. Sherrill,  D. G. Truhlar,  
 A. Aspuru-Guzik,  R. Baer,  A. T. Bell,  N. A. Besley,  Jeng-Da Chai,  
 A. E. DePrince, III,  R. A. DiStasio Jr.,  A. Dreuw,  B. D. Dunietz,  
 T. R. Furlani,  Chao-Ping Hsu,  Yousung Jung,  Jing Kong,  D. S. Lambrecht,  
 WanZhen Liang,  C. Ochsenfeld,  V. A. Rassolov,  L. V. Slipchenko,  
 J. E. Subotnik,  T. Van Voorhis,  J. M. Herbert,  A. I. Krylov,  
 P. M. W. Gill,  M. Head-Gordon

 Contributors to earlier versions of Q-Chem not listed above: 
 R. D. Adamson,  B. Austin,  J. Baker,  G. J. O. Beran,  K. Brandhorst,  
 S. T. Brown,  E. F. C. Byrd,  A. K. Chakraborty,  C.-L. Cheng,  
 Siu Hung Chien,  D. M. Chipman,  D. L. Crittenden,  H. Dachsel,  
 R. J. Doerksen,  A. D. Dutoi,  L. Fusti-Molnar,  W. A. Goddard III,  
 A. Golubeva-Zadorozhnaya,  S. R. Gwaltney,  G. Hawkins,  A. Heyden,  
 S. Hirata,  G. Kedziora,  F. J. Keil,  C. Kelley,  Jihan Kim,  R. A. King,  
 R. Z. Khaliullin,  P. P. Korambath,  W. Kurlancheek,  A. M. Lee,  M. S. Lee,  
 S. V. Levchenko,  Ching Yeh Lin,  D. Liotard,  R. C. Lochan,  I. Lotan,  
 P. E. Maslen,  N. Nair,  D. P. O'Neill,  D. Neuhauser,  E. Neuscamman,  
 C. M. Oana,  R. Olson,  B. Peters,  R. Peverati,  P. A. Pieniazek,  
 Y. M. Rhee,  J. Ritchie,  M. A. Rohrdanz,  E. Rosta,  N. J. Russ,  
 H. F. Schaefer III,  N. E. Schultz,  N. Shenvi,  A. C. Simmonett,  A. Sodt,  
 D. Stuck,  K. S. Thanthiriwatte,  V. Vanovschi,  Tao Wang,  A. Warshel,  
 C. F. Williams,  Q. Wu,  X. Xu,  W. Zhang

 Please cite Q-Chem as follows:
 Y. Shao et al., Mol. Phys. 113, 184-215 (2015)
 DOI: 10.1080/00268976.2014.952696

 Q-Chem 5.2.0 for Intel X86 EM64T Linux

 Parts of Q-Chem use Armadillo 8.300.2 (Tropical Shenanigans).
 http://arma.sourceforge.net/

 Q-Chem begins on Sun Sep 26 07:17:43 2021  

Host: cori01
0

     Scratch files written to /tmp/qchem54728//
 May1019 |scratch|qcdevops|jenkins|workspace|build_RNUM -1
Processing $rem in /global/common/cori/software/qchem/5.2/config/preferences:
	 MEM_TOTAL  96000 
NAlpha2: 98
NElect   98
Mult     1
Symmetry turned off for PCM/SM12/SMD calculation

 Q-Chem warning in module libgen/rem_setup.C, line 2803:

 Neither GIA nor STOLL is specified by user. Use STOLL as the default


Checking the input file for inconsistencies... 	...done.

--------------------------------------------------------------
User input:
--------------------------------------------------------------
$comment
SSI-042PHE-088ASP-1.pdb
$end

$molecule
-1 1
--
0 1
C    0.928622710171   -1.417780826910    0.548934580670
C    1.292622710171   -2.445780826910    1.610934580670
C    1.431622710171   -0.066780826910    0.877934580670
C    2.763622710171    0.256219173090    0.664934580670
C    0.578622710171    0.856219173090    1.448934580670
C    3.238622710171    1.525219173090    1.021934580670
C    1.038622710171    2.098219173090    1.800934580670
C    2.359622710171    2.442219173090    1.601934580670
H    1.333622710171   -1.718780826910   -0.413065419330
H   -0.156377289829   -1.392780826910    0.449934580670
H    2.373622710171   -2.416780826910    1.753934580670
H    3.436622710171   -0.467780826910    0.226934580670
H   -0.456377289829    0.604219173090    1.631934580670
H    4.275622710171    1.788219173090    0.861934580670
H    0.361622710171    2.815219173090    2.243934580670
H    2.712622710171    3.424219173090    1.888934580670
H    1.012926710171   -3.458920826910    1.286394580670
H    0.825086710171   -2.183610826910    2.571494580670
--
-1 1
C   -1.488377289829   -0.004780826910   -1.725065419330
C   -1.846377289829    1.200219173090   -2.591065419330
C   -2.657377289829   -0.966780826910   -1.540065419330
O   -3.840377289829   -0.569780826910   -1.720065419330
O   -2.398377289829   -2.121780826910   -1.151065419330
H   -0.630377289829   -0.526780826910   -2.154065419330
H   -1.204377289829    0.365219173090   -0.740065419330
H   -2.782377289829    1.624219173090   -2.225065419330
H   -1.973504289829    0.886189173090   -3.637595419330
H   -1.081179289829    1.981939173090   -2.475385419330
$end

$rem
JOBTYPE			EDA
EDA2			1
method			wB97X-V
BASIS			def2-TZVPD
XC_GRID			000099000590
NL_GRID			1
UNRESTRICTED		FALSE
MAX_SCF_CYCLES		200
SYMMETRY		FALSE
SYM_IGNORE		TRUE
MEM_STATIC		2000
BASIS_LIN_DEP_THRESH 	6
THRESH 			14
SCF_CONVERGENCE 	8
SCF_PRINT_FRGM 		TRUE
SOLVENT_METHOD          SMD
$end

$SMX
SOLVENT			WATER
$END
--------------------------------------------------------------
 ----------------------------------------------------------------
             Standard Nuclear Orientation (Angstroms)
    I     Atom           X                Y                Z
 ----------------------------------------------------------------
    1      C       0.9286227102    -1.4177808269     0.5489345807
    2      C       1.2926227102    -2.4457808269     1.6109345807
    3      C       1.4316227102    -0.0667808269     0.8779345807
    4      C       2.7636227102     0.2562191731     0.6649345807
    5      C       0.5786227102     0.8562191731     1.4489345807
    6      C       3.2386227102     1.5252191731     1.0219345807
    7      C       1.0386227102     2.0982191731     1.8009345807
    8      C       2.3596227102     2.4422191731     1.6019345807
    9      H       1.3336227102    -1.7187808269    -0.4130654193
   10      H      -0.1563772898    -1.3927808269     0.4499345807
   11      H       2.3736227102    -2.4167808269     1.7539345807
   12      H       3.4366227102    -0.4677808269     0.2269345807
   13      H      -0.4563772898     0.6042191731     1.6319345807
   14      H       4.2756227102     1.7882191731     0.8619345807
   15      H       0.3616227102     2.8152191731     2.2439345807
   16      H       2.7126227102     3.4242191731     1.8889345807
   17      H       1.0129267102    -3.4589208269     1.2863945807
   18      H       0.8250867102    -2.1836108269     2.5714945807
   19      C      -1.4883772898    -0.0047808269    -1.7250654193
   20      C      -1.8463772898     1.2002191731    -2.5910654193
   21      C      -2.6573772898    -0.9667808269    -1.5400654193
   22      O      -3.8403772898    -0.5697808269    -1.7200654193
   23      O      -2.3983772898    -2.1217808269    -1.1510654193
   24      H      -0.6303772898    -0.5267808269    -2.1540654193
   25      H      -1.2043772898     0.3652191731    -0.7400654193
   26      H      -2.7823772898     1.6242191731    -2.2250654193
   27      H      -1.9735042898     0.8861891731    -3.6375954193
   28      H      -1.0811792898     1.9819391731    -2.4753854193
 ----------------------------------------------------------------
 Nuclear Repulsion Energy =         736.28598895 hartrees
 There are       49 alpha and       49 beta electrons
 Requested basis set is def2-TZVPD
 There are 246 shells and 622 basis functions

 Total QAlloc Memory Limit  96000 MB
 Mega-Array Size      1956 MB
 MEM_STATIC part      2000 MB
 
 Citation of the SMD model:
 Marenich, A.V.; Cramer, C.J.; Truhlar, D.G.
 J. Phys. Chem. B 2009, 113, 6378-6396.
 iSolventCode=           1
 Solvent: water                                                           
 
 vradii
            1           2           3           4           5           6
    1   1.8500000   1.8500000   1.8500000   1.8500000   1.8500000   1.8500000
            7           8           9          10          11          12
    1   1.8500000   1.8500000   1.2000000   1.2000000   1.2000000   1.2000000
           13          14          15          16          17          18
    1   1.2000000   1.2000000   1.2000000   1.2000000   1.2000000   1.2000000
           19          20          21          22          23          24
    1   1.8500000   1.8500000   1.8500000   1.5200000   1.5200000   1.2000000
           25          26          27          28
    1   1.2000000   1.2000000   1.2000000   1.2000000
 Changing PCM_VDW_RADII to SMD_RADIUS
 Discretize the solute cavity surface with Lebedev spheres
	Using 110 Lebedev grid points for each H atom
	Using 194 Lebedev grid points for other atoms
	Atomic van der Waals radii will be scaled by 1.20
 Remove points where switching function is < 1.0e-08
 Keep 2094 surface tesserae and discard 2078 interior tesserae
 Molecular Surface Area = 246.836 Angst**2
 A cutoff of  1.0D-14 yielded  26254 shell pairs
 There are    167482 function pairs (    210313 Cartesian)
 Smallest overlap matrix eigenvalue = 4.25E-07
 Linear dependence detected in AO basis
 Tighter screening thresholds may be required for diffuse basis sets
 Use S2THRESH > 14 and THRESH = 14 in case of SCF convergence issues
 Number of orthogonalized atomic orbitals = 620
 Maximum deviation from orthogonality = 1.549E-10

 Scale SEOQF with 1.000000e-01/1.000000e-01/1.000000e-01

 Standard Electronic Orientation quadrupole field applied
 Nucleus-field energy     =     0.0000000088 hartrees

 -----------------------------------------------------------------------
  General SCF calculation program by
  Eric Jon Sundstrom, Paul Horn, Yuezhi Mao, Dmitri Zuev, Alec White,
  David Stuck, Shaama M.S., Shane Yost, Joonho Lee, David Small,
  Daniel Levine, Susi Lehtola, Hugh Burton, Evgeny Epifanovsky
 -----------------------------------------------------------------------
================================================================
                 ALMO-EDA with the EDA2 driver                  
================================================================
 The second-generation ALMO-EDA (for DFT):                      
 P. R. Horn, Y. Mao and M. Head-Gordon, PCCP, 18, 23067 (2016)  
 Decomposition of the frozen energy:                            
 P. R. Horn, Y. Mao and M. Head-Gordon, JCP, 144, 114107 (2016) 
 FERF model for polarization:                                   
 P. R. Horn and M. Head-Gordon, JCP, 143, 114111 (2015)         
Using eda2 option set 1
Option set summary: Frozen orbital wavefunction, initial wavefunction decomposition, and nDQ polarization.
--------------------------------
Printing EDA Options
--------------------------------
eda_child_super_basis      0
fragmo_guess_mode          0
child_mp                   1
child_mp_orders            232
cls_elec                   1
cls_disp                   0
scfmi_mode                 1
scfmi_occs                 0
scfmi_virts                0
frz_relax                  0
frz_relax_method           0
dc_pen_start               0
dc_pen_conv                0
dc_pen_increment           0
dc_pen_steps               0
dc_pen_thresh_factor       0
dc_pen_pre_newton_thresh   0
frz_ortho_decomp           1
frz_ortho_decomp_conv      6
frgm_method                2
scfmi_freeze_ss            0
separate_rehyb             0
plot_diff_den              0
eda_nocv                   0
eda_vct_relax              1
disp_free_x                0
disp_free_c                0
eda_bsse                   0
eda_pct_a                  0
eda_covp                   0
--------------------------------
Attempting to make child job directory: /tmp/qchem54728//Frg1/
Attempting to make child job directory: /tmp/qchem54728//Frg2/
Creating input file /tmp/qchem54728/Frg1.input
using default PutDataFrgm: nothing
calling putenv with: QCSCRATCH=/tmp/qchem54728/ 
calling putenv with: QCLOCALSCR=/tmp/qchem54728/ 
Spawning Job For Fragment 0
                  Welcome to Q-Chem
     A Quantum Leap Into The Future Of Chemistry


 Q-Chem 5.2, Q-Chem, Inc., Pleasanton, CA (2019)

 License issued to: National Energy Research Scientific Computing Center

 Yihan Shao,  Zhengting Gan,  E. Epifanovsky,  A. T. B. Gilbert,  M. Wormit,  
 J. Kussmann,  A. W. Lange,  A. Behn,  Jia Deng,  Xintian Feng,  D. Ghosh,  
 M. Goldey,  P. R. Horn,  L. D. Jacobson,  I. Kaliman,  T. Kus,  A. Landau,  
 Jie Liu,  E. I. Proynov,  R. M. Richard,  R. P. Steele,  E. J. Sundstrom,  
 H. L. Woodcock III,  P. M. Zimmerman,  D. Zuev,  B. Albrecht,  E. Alguire,  
 S. A. Baeppler,  D. Barton,  Z. Benda,  Y. A. Bernard,  E. J. Berquist,  
 K. B. Bravaya,  H. Burton,  D. Casanova,  Chun-Min Chang,  Yunqing Chen,  
 A. Chien,  K. D. Closser,  M. P. Coons,  S. Coriani,  S. Dasgupta,  
 A. L. Dempwolff,  M. Diedenhofen,  Hainam Do,  R. G. Edgar,  Po-Tung Fang,  
 S. Faraji,  S. Fatehi,  Qingguo Feng,  K. D. Fenk,  J. Fosso-Tande,  
 J. Gayvert,  Qinghui Ge,  A. Ghysels,  G. Gidofalvi,  J. Gomes,  
 J. Gonthier,  A. Gunina,  D. Hait,  M. W. D. Hanson-Heine,  
 P. H. P. Harbach,  A. W. Hauser,  M. F. Herbst,  J. E. Herr,  
 E. G. Hohenstein,  Z. C. Holden,  Kerwin Hui,  B. C. Huynh,  T.-C. Jagau,  
 Hyunjun Ji,  B. Kaduk,  K. Khistyaev,  Jaehoon Kim,  P. Klunzinger,  K. Koh,  
 D. Kosenkov,  L. Koulias,  T. Kowalczyk,  C. M. Krauter,  A. Kunitsa,  
 Ka Un Lao,  A. Laurent,  K. V. Lawler,  Joonho Lee,  D. Lefrancois,  
 S. Lehtola,  D. S. Levine,  Yi-Pei Li,  You-Sheng Lin,  Fenglai Liu,  
 E. Livshits,  A. Luenser,  P. Manohar,  E. Mansoor,  S. F. Manzer,  
 Shan-Ping Mao,  Yuezhi Mao,  N. Mardirossian,  A. V. Marenich,  
 T. Markovich,  L. A. Martinez-Martinez,  S. A. Maurer,  N. J. Mayhall,  
 S. C. McKenzie,  J.-M. Mewes,  P. Morgante,  A. F. Morrison,  
 J. W. Mullinax,  K. Nanda,  T. S. Nguyen-Beck,  R. Olivares-Amaya,  
 J. A. Parkhill,  Zheng Pei,  T. M. Perrine,  F. Plasser,  P. Pokhilko,  
 S. Prager,  A. Prociuk,  E. Ramos,  D. R. Rehn,  F. Rob,  M. Scheurer,  
 M. Schneider,  N. Sergueev,  S. M. Sharada,  S. Sharma,  D. W. Small,  
 T. Stauch,  T. Stein,  Yu-Chuan Su,  A. J. W. Thom,  A. Tkatchenko,  
 T. Tsuchimochi,  N. M. Tubman,  L. Vogt,  M. L. Vidal,  O. Vydrov,  
 M. A. Watson,  J. Wenzel,  M. de Wergifosse,  T. A. Wesolowski,  A. White,  
 J. Witte,  A. Yamada,  Jun Yang,  K. Yao,  S. Yeganeh,  S. R. Yost,  
 Zhi-Qiang You,  A. Zech,  Igor Ying Zhang,  Xing Zhang,  Yan Zhao,  
 Ying Zhu,  B. R. Brooks,  G. K. L. Chan,  C. J. Cramer,  M. S. Gordon,  
 W. J. Hehre,  A. Klamt,  M. W. Schmidt,  C. D. Sherrill,  D. G. Truhlar,  
 A. Aspuru-Guzik,  R. Baer,  A. T. Bell,  N. A. Besley,  Jeng-Da Chai,  
 A. E. DePrince, III,  R. A. DiStasio Jr.,  A. Dreuw,  B. D. Dunietz,  
 T. R. Furlani,  Chao-Ping Hsu,  Yousung Jung,  Jing Kong,  D. S. Lambrecht,  
 WanZhen Liang,  C. Ochsenfeld,  V. A. Rassolov,  L. V. Slipchenko,  
 J. E. Subotnik,  T. Van Voorhis,  J. M. Herbert,  A. I. Krylov,  
 P. M. W. Gill,  M. Head-Gordon

 Contributors to earlier versions of Q-Chem not listed above: 
 R. D. Adamson,  B. Austin,  J. Baker,  G. J. O. Beran,  K. Brandhorst,  
 S. T. Brown,  E. F. C. Byrd,  A. K. Chakraborty,  C.-L. Cheng,  
 Siu Hung Chien,  D. M. Chipman,  D. L. Crittenden,  H. Dachsel,  
 R. J. Doerksen,  A. D. Dutoi,  L. Fusti-Molnar,  W. A. Goddard III,  
 A. Golubeva-Zadorozhnaya,  S. R. Gwaltney,  G. Hawkins,  A. Heyden,  
 S. Hirata,  G. Kedziora,  F. J. Keil,  C. Kelley,  Jihan Kim,  R. A. King,  
 R. Z. Khaliullin,  P. P. Korambath,  W. Kurlancheek,  A. M. Lee,  M. S. Lee,  
 S. V. Levchenko,  Ching Yeh Lin,  D. Liotard,  R. C. Lochan,  I. Lotan,  
 P. E. Maslen,  N. Nair,  D. P. O'Neill,  D. Neuhauser,  E. Neuscamman,  
 C. M. Oana,  R. Olson,  B. Peters,  R. Peverati,  P. A. Pieniazek,  
 Y. M. Rhee,  J. Ritchie,  M. A. Rohrdanz,  E. Rosta,  N. J. Russ,  
 H. F. Schaefer III,  N. E. Schultz,  N. Shenvi,  A. C. Simmonett,  A. Sodt,  
 D. Stuck,  K. S. Thanthiriwatte,  V. Vanovschi,  Tao Wang,  A. Warshel,  
 C. F. Williams,  Q. Wu,  X. Xu,  W. Zhang

 Please cite Q-Chem as follows:
 Y. Shao et al., Mol. Phys. 113, 184-215 (2015)
 DOI: 10.1080/00268976.2014.952696

 Q-Chem 5.2.0 for Intel X86 EM64T Linux

 Parts of Q-Chem use Armadillo 8.300.2 (Tropical Shenanigans).
 http://arma.sourceforge.net/

 Q-Chem begins on Sun Sep 26 07:17:50 2021  

Host: cori01
0

     Scratch files written to /tmp/qchem54728//Frg1//
 May1019 |scratch|qcdevops|jenkins|workspace|build_RNUM -1
Processing $rem in /global/common/cori/software/qchem/5.2/config/preferences:
	 MEM_TOTAL  96000 
NAlpha2: 58
NElect   58
Mult     1
Symmetry turned off for PCM/SM12/SMD calculation

Checking the input file for inconsistencies... 	...done.

--------------------------------------------------------------
User input:
--------------------------------------------------------------
$molecule
0 1
 6	0.9286227102	-1.4177808269	0.5489345807
 6	1.2926227102	-2.4457808269	1.6109345807
 6	1.4316227102	-0.0667808269	0.8779345807
 6	2.7636227102	0.2562191731	0.6649345807
 6	0.5786227102	0.8562191731	1.4489345807
 6	3.2386227102	1.5252191731	1.0219345807
 6	1.0386227102	2.0982191731	1.8009345807
 6	2.3596227102	2.4422191731	1.6019345807
 1	1.3336227102	-1.7187808269	-0.4130654193
 1	-0.1563772898	-1.3927808269	0.4499345807
 1	2.3736227102	-2.4167808269	1.7539345807
 1	3.4366227102	-0.4677808269	0.2269345807
 1	-0.4563772898	0.6042191731	1.6319345807
 1	4.2756227102	1.7882191731	0.8619345807
 1	0.3616227102	2.8152191731	2.2439345807
 1	2.7126227102	3.4242191731	1.8889345807
 1	1.0129267102	-3.4589208269	1.2863945807
 1	0.8250867102	-2.1836108269	2.5714945807
$end
$rem
EDA2		1
METHOD		WB97X-V
BASIS		DEF2-TZVPD
XC_GRID		000099000590
NL_GRID		1
UNRESTRICTED		FALSE
MAX_SCF_CYCLES		200
SYMMETRY		FALSE
SYM_IGNORE		TRUE
BASIS_LIN_DEP_THRESH		6
THRESH		14
SCF_CONVERGENCE		8
SCF_PRINT_FRGM		TRUE
SOLVENT_METHOD		SMD
!required keywords
JOBTYPE		SP
SYM_IGNORE		TRUE
SUBSYSTEM		TRUE
GEN_SCFMAN		TRUE
CHILD_INSTRUCTION		2
SYM_IGNORE		TRUE
SCFMI		0
RI_K 0		
PARI_K 0		
MIN_PARI_K 0		
IARI_K 0		
OCC_RI_K 0		
PURECART		1111
MEM_STATIC		2000
MEM_TOTAL		96000
GUI		0
CHILD_MP		1
CHILD_MP_ORDERS		232
FRZ_RELAX		0
FRZ_RELAX_METHOD		0
EDA_CLS_ELEC		1
EDA_CLS_DISP		0
FRZ_ORTHO_DECOMP		1
EDA2		FALSE
FRGM_METHOD		FALSE
CIS_N_ROOTS  0
LOCAL_CIS    0
CIS_RLX_DNS  1
$end
$smx
SOLVENT			WATER
$end
--------------------------------------------------------------
 ----------------------------------------------------------------
             Standard Nuclear Orientation (Angstroms)
    I     Atom           X                Y                Z
 ----------------------------------------------------------------
    1      C       0.9286227102    -1.4177808269     0.5489345807
    2      C       1.2926227102    -2.4457808269     1.6109345807
    3      C       1.4316227102    -0.0667808269     0.8779345807
    4      C       2.7636227102     0.2562191731     0.6649345807
    5      C       0.5786227102     0.8562191731     1.4489345807
    6      C       3.2386227102     1.5252191731     1.0219345807
    7      C       1.0386227102     2.0982191731     1.8009345807
    8      C       2.3596227102     2.4422191731     1.6019345807
    9      H       1.3336227102    -1.7187808269    -0.4130654193
   10      H      -0.1563772898    -1.3927808269     0.4499345807
   11      H       2.3736227102    -2.4167808269     1.7539345807
   12      H       3.4366227102    -0.4677808269     0.2269345807
   13      H      -0.4563772898     0.6042191731     1.6319345807
   14      H       4.2756227102     1.7882191731     0.8619345807
   15      H       0.3616227102     2.8152191731     2.2439345807
   16      H       2.7126227102     3.4242191731     1.8889345807
   17      H       1.0129267102    -3.4589208269     1.2863945807
   18      H       0.8250867102    -2.1836108269     2.5714945807
 ----------------------------------------------------------------
 Nuclear Repulsion Energy =         343.50598813 hartrees
 There are       29 alpha and       29 beta electrons
 Requested basis set is def2-TZVPD
 There are 154 shells and 386 basis functions

 Total QAlloc Memory Limit  96000 MB
 Mega-Array Size      1956 MB
 MEM_STATIC part      2000 MB
 
 Citation of the SMD model:
 Marenich, A.V.; Cramer, C.J.; Truhlar, D.G.
 J. Phys. Chem. B 2009, 113, 6378-6396.
 iSolventCode=           1
 Solvent: water                                                           
 
 vradii
            1           2           3           4           5           6
    1   1.8500000   1.8500000   1.8500000   1.8500000   1.8500000   1.8500000
            7           8           9          10          11          12
    1   1.8500000   1.8500000   1.2000000   1.2000000   1.2000000   1.2000000
           13          14          15          16          17          18
    1   1.2000000   1.2000000   1.2000000   1.2000000   1.2000000   1.2000000
 Changing PCM_VDW_RADII to SMD_RADIUS
 Discretize the solute cavity surface with Lebedev spheres
	Using 110 Lebedev grid points for each H atom
	Using 194 Lebedev grid points for other atoms
	Atomic van der Waals radii will be scaled by 1.20
 Remove points where switching function is < 1.0e-08
 Keep 1263 surface tesserae and discard 1389 interior tesserae
 Molecular Surface Area = 151.362 Angst**2
 A cutoff of  1.0D-14 yielded  11390 shell pairs
 There are     72932 function pairs (     92421 Cartesian)
 Smallest overlap matrix eigenvalue = 4.76E-07
 Linear dependence detected in AO basis
 Tighter screening thresholds may be required for diffuse basis sets
 Use S2THRESH > 14 and THRESH = 14 in case of SCF convergence issues
 Number of orthogonalized atomic orbitals = 384
 Maximum deviation from orthogonality = 1.526E-10

 Scale SEOQF with 1.000000e-01/1.000000e-01/1.000000e-01

 Standard Electronic Orientation quadrupole field applied
 Nucleus-field energy     =     0.0000000099 hartrees
 Guess from superposition of atomic densities
 Warning:  Energy on first SCF cycle will be non-variational
 SAD guess density has 57.901037 electrons

 -----------------------------------------------------------------------
  General SCF calculation program by
  Eric Jon Sundstrom, Paul Horn, Yuezhi Mao, Dmitri Zuev, Alec White,
  David Stuck, Shaama M.S., Shane Yost, Joonho Lee, David Small,
  Daniel Levine, Susi Lehtola, Hugh Burton, Evgeny Epifanovsky
 -----------------------------------------------------------------------
 Exchange:     0.1670 Hartree-Fock + 1.0000 wB97X-V + LR-HF
 Correlation:  1.0000 wB97X-V
 Using Euler-Maclaurin-Lebedev (99,590) quadrature formula
 Nonlocal Correlation:  VV10 with C = 0.0100 and b = 6.00 and scale = 1.00000
 Grid used for NLC:  SG-1 standard quadrature
Energy prior to optimization (guess energy) = -310.824469798692
Begin Timing: Total SCF Calculation
begin iterations for algorithm: DIIS         
the SCF tolerance is set to 1.00e-08
    1    -310.8244697987      1.85e-03     00000 
    2    -310.8713554303      1.22e-03     00000 
    3    -310.9004944574      1.41e-04     00000 
    4    -310.9012263394      5.23e-05     00000 
    5    -310.9012886504      2.79e-05     00000 
    6    -310.9013052805      5.30e-06     00000 
    7    -310.9013062414      2.01e-06     00000 
    8    -310.9013063418      4.22e-07     00000 
    9    -310.9013063498      1.24e-07     00000 
   10    -310.9013063505      6.14e-08     00000 
   11    -310.9013063507      1.92e-08     00000 
   12    -310.9013063507      6.43e-09     00000 Convergence criterion met
Timing for Total SCF: 2393.00s (wall), 4753.49s (cpu)
(3)  G-ENP(liq) elect-nuc-pol free energy of system     -310.901306351 a.u.
(4)  G-CDS(liq) cavity-dispersion-solvent structure 
     free energy                                                3.4352 kcal/mol
(6)  G-S(liq) free energy of system                     -310.895831990 a.u.
E_pcm = -0.0075852037
E_cds = 0.0054743610
Multipole orders to be included
        2
        3
computing dipole RHS
computing quadrupole RHS
total number of RHS in solve_reponses: 8
RHS batch sizes
        8
Beginning Block Conjugate Gradient Iterations. Batch Number: 0
computing hessian-vector products by finite difference
              1      6.04e-01     00000 Conjugate Gradient Iteration
computing hessian-vector products by finite difference
              2      1.89e-01     00000 Conjugate Gradient Iteration
computing hessian-vector products by finite difference
              3      4.58e-02     00000 Conjugate Gradient Iteration
computing hessian-vector products by finite difference
              4      1.15e-02     00000 Conjugate Gradient Iteration
computing hessian-vector products by finite difference
              5      2.36e-03     00000 Conjugate Gradient Iteration
computing hessian-vector products by finite difference
              6      5.57e-04     00000 Conjugate Gradient Iteration
computing hessian-vector products by finite difference
              7      1.68e-04     00000 Conjugate Gradient Iteration
computing hessian-vector products by finite difference
              8      2.91e-05     00000 Conjugate Gradient Iteration
computing hessian-vector products by finite difference
              9      4.74e-06     00000 Conjugate Gradient Iteration
computing hessian-vector products by finite difference
             10      7.35e-07     00000 Conjugate Gradient Iteration
computing hessian-vector products by finite difference
             11      1.26e-07     00000 Conjugate Gradient Iteration
computing hessian-vector products by finite difference
             12      1.84e-08     00000 Conjugate Gradient Iteration
computing hessian-vector products by finite difference
             13      3.01e-09     00000 CG Converged
batch 0 complete
Done Calculating Responses
TESTING ORTHOGONALIZATION OF MULTIPOLE BASIS
Multipole virts passed orthogonality test
Virts Per Order
           87
          145
 
 --------------------------------------------------------------
 
                    Orbital Energies (a.u.)
 --------------------------------------------------------------
 
 Alpha MOs
 -- Occupied --
-10.2693 -10.2689 -10.2642 -10.2636 -10.2625 -10.2590 -10.2535 -10.2497
 -0.9983  -0.9211  -0.8761  -0.8478  -0.7525  -0.7266  -0.6919  -0.6246
 -0.5789  -0.5652  -0.5373  -0.5292  -0.5176  -0.5022  -0.4747  -0.4579
 -0.4477  -0.4272  -0.4230  -0.3470  -0.3341
 -- Virtual --
  0.0662   0.0696   0.0730   0.0873   0.0889   0.0958   0.1101   0.1147
  0.1182   0.1374   0.1638   0.1684   0.1701   0.1794   0.1907   0.1945
  0.2005   0.2057   0.2200   0.2232   0.2313   0.2375   0.2483   0.2576
  0.2694   0.2723   0.2749   0.2797   0.2827   0.2904   0.2936   0.3007
  0.3017   0.3050   0.3079   0.3147   0.3259   0.3346   0.3381   0.3420
  0.3528   0.3588   0.3599   0.3669   0.3698   0.3754   0.3770   0.3795
  0.3895   0.3912   0.3982   0.4003   0.4051   0.4083   0.4196   0.4267
  0.4314   0.4412   0.4431   0.4444   0.4514   0.4611   0.4626   0.4691
  0.4723   0.4778   0.4816   0.4898   0.4950   0.5007   0.5035   0.5119
  0.5201   0.5283   0.5304   0.5334   0.5398   0.5444   0.5494   0.5540
  0.5592   0.5649   0.5758   0.5855   0.5893   0.5948   0.5988   0.6186
  0.6217   0.6309   0.6394   0.6468   0.6617   0.6713   0.6764   0.6790
  0.6917   0.7002   0.7084   0.7173   0.7256   0.7289   0.7308   0.7383
  0.7557   0.7577   0.7653   0.7706   0.7765   0.7844   0.7887   0.7965
  0.8000   0.8033   0.8069   0.8137   0.8195   0.8215   0.8251   0.8296
  0.8449   0.8481   0.8515   0.8571   0.8591   0.8744   0.8816   0.8831
  0.8987   0.9011   0.9214   0.9386   0.9452   0.9605   0.9625   0.9808
  1.0245   1.0325   1.0451   1.0584   1.0752   1.0863   1.0912   1.1056
  1.1076   1.1136   1.1202   1.1727   1.1802   1.2076   1.2263   1.2272
  1.2999   1.3118   1.3373   1.3601   1.3811   1.3956   1.4035   1.4185
  1.4260   1.4514   1.4798   1.4820   1.5012   1.5325   1.5405   1.5545
  1.5740   1.6091   1.6297   1.6381   1.6506   1.6961   1.7144   1.7526
  1.7807   1.8039   1.8145   1.8211   1.8457   1.8485   1.8952   1.9024
  1.9131   1.9318   1.9374   1.9461   1.9633   1.9905   1.9960   2.0007
  2.0124   2.0222   2.0397   2.0430   2.0568   2.0811   2.0830   2.0977
  2.1133   2.1546   2.1601   2.1855   2.2077   2.2170   2.2383   2.2547
  2.2784   2.3008   2.3204   2.3519   2.3963   2.4183   2.4222   2.4511
  2.4901   2.5203   2.5366   2.5554   2.5654   2.5963   2.6049   2.6078
  2.6409   2.6521   2.6758   2.6921   2.7062   2.7352   2.7483   2.7628
  2.7867   2.8000   2.8183   2.8297   2.8457   2.8657   2.8777   2.9053
  2.9170   2.9262   2.9328   2.9384   2.9584   2.9754   2.9939   3.0097
  3.0183   3.0316   3.0381   3.0551   3.0736   3.0840   3.0963   3.1138
  3.1652   3.1859   3.2072   3.2281   3.2477   3.2591   3.2755   3.3164
  3.3166   3.3467   3.3610   3.3898   3.3975   3.4188   3.4253   3.4345
  3.4483   3.4625   3.4803   3.4930   3.5048   3.5085   3.5128   3.5247
  3.5308   3.5427   3.5546   3.5645   3.5743   3.5936   3.6182   3.6329
  3.6505   3.6617   3.6741   3.7034   3.7098   3.7282   3.7362   3.7496
  3.7885   3.8129   3.8567   3.8865   3.9037   3.9393   3.9881   4.0022
  4.0222   4.0653   4.0788   4.1273   4.1461   4.1936   4.2137   4.2446
  4.2800   4.3096   4.3307   4.3505   4.3595   4.3654   4.3970   4.4058
  4.4137   4.4551   4.4873   4.4923   4.5361   4.5813   4.6141   4.6702
  4.7000   4.7857   4.8104   4.8337   4.9034   4.9315   4.9425   4.9860
  5.0385   5.0489   5.1289   5.2086   5.3213   5.4039   5.4246   5.5377
  5.5559   5.7144   5.8404  22.6385  22.6778  22.8371  22.9101  22.9657
 23.0633  23.1366  23.5040
 --------------------------------------------------------------
 
          Ground-State Mulliken Net Atomic Charges

     Atom                 Charge (a.u.)
  ----------------------------------------
      1 C                    -0.506683
      2 C                    -0.923003
      3 C                     0.443556
      4 C                    -0.343044
      5 C                    -0.428533
      6 C                    -0.560560
      7 C                    -0.531109
      8 C                    -0.437185
      9 H                     0.270181
     10 H                     0.257670
     11 H                     0.273451
     12 H                     0.420333
     13 H                     0.387555
     14 H                     0.382563
     15 H                     0.372084
     16 H                     0.405363
     17 H                     0.240976
     18 H                     0.276385
  ----------------------------------------
  Sum of atomic charges =     0.000000

 -----------------------------------------------------------------
                    Cartesian Multipole Moments
 -----------------------------------------------------------------
    Charge (ESU x 10^10)
                 0.0000
    Dipole Moment (Debye)
         X      -0.1690      Y      -0.5528      Z      -0.1023
       Tot       0.5870
    Quadrupole Moments (Debye-Ang)
        XX     -45.1893     XY      -0.2721     YY     -46.0482
        XZ      -2.4784     YZ       2.5548     ZZ     -52.0401
    Octopole Moments (Debye-Ang^2)
       XXX    -224.9337    XXY      -9.1878    XYY     -75.8789
       YYY     -33.4222    XXZ     -62.6254    XYZ       3.5926
       YYZ     -50.5455    XZZ     -94.1974    YZZ     -11.2845
       ZZZ    -189.1393
    Hexadecapole Moments (Debye-Ang^3)
      XXXX   -1070.1083   XXXY    -120.1069   XXYY    -328.3916
      XYYY    -125.9127   YYYY    -906.6429   XXXZ    -284.7743
      XXYZ     -16.3362   XYYZ     -79.5588   YYYZ     -44.5728
      XXZZ    -321.6269   XYZZ     -53.1109   YYZZ    -243.4154
      XZZZ    -314.0960   YZZZ     -91.9527   ZZZZ    -610.0187
 -----------------------------------------------------------------
Archival summary:
1\1\nid00560\SP\ProcedureUnspecified\BasisUnspecified\810\meili\SunSep2620:24:092021SunSep2620:24:092021\0\\#,ProcedureUnspecified,BasisUnspecified,\\0,1\C\C,1,1.38043\H,2,1.08084,1,120.388\C,2,1.37043,1,120.318,3,179.409,0\H,4,1.08105,2,119.745,1,179.762,0\C,4,1.37948,2,120.689,1,-0.552527,0\H,6,1.08227,4,120.023,2,-179.664,0\C,1,1.38706,2,120.08,3,-179.002,0\H,8,1.08118,1,120.267,2,179.394,0\C,6,1.3964,4,119.93,2,0.751048,0\H,10,1.08173,6,120.346,4,179.943,0\C,1,1.47867,2,119.521,3,-1.5632,0\H,12,1.08631,1,108.867,2,139.124,0\H,12,1.08979,1,109.751,2,21.9761,0\C,12,1.52221,1,112.362,2,-98.8109,0\H,15,1.0908,12,108.088,1,-54.6436,0\H,15,1.1,12,110.282,1,62.5895,0\H,15,1.1,12,110.816,1,-173.255,0\\\@

 Total job time:  47183.35s(wall), 93463.95s(cpu) 
 Sun Sep 26 20:24:13 2021

        *************************************************************
        *                                                           *
        *  Thank you very much for using Q-Chem.  Have a nice day.  *
        *                                                           *
        *************************************************************


Done Job For Fragment 0
calling putenv with: QCSCRATCH=/global/cscratch1/sd/meili 
calling putenv with: QCLOCALSCR=/tmp 
calling putenv with: QCTHREADS=32 
Creating input file /tmp/qchem54728/Frg2.input
using default PutDataFrgm: nothing
calling putenv with: QCSCRATCH=/tmp/qchem54728/ 
calling putenv with: QCLOCALSCR=/tmp/qchem54728/ 
Spawning Job For Fragment 1
                  Welcome to Q-Chem
     A Quantum Leap Into The Future Of Chemistry


 Q-Chem 5.2, Q-Chem, Inc., Pleasanton, CA (2019)

 License issued to: National Energy Research Scientific Computing Center

 Yihan Shao,  Zhengting Gan,  E. Epifanovsky,  A. T. B. Gilbert,  M. Wormit,  
 J. Kussmann,  A. W. Lange,  A. Behn,  Jia Deng,  Xintian Feng,  D. Ghosh,  
 M. Goldey,  P. R. Horn,  L. D. Jacobson,  I. Kaliman,  T. Kus,  A. Landau,  
 Jie Liu,  E. I. Proynov,  R. M. Richard,  R. P. Steele,  E. J. Sundstrom,  
 H. L. Woodcock III,  P. M. Zimmerman,  D. Zuev,  B. Albrecht,  E. Alguire,  
 S. A. Baeppler,  D. Barton,  Z. Benda,  Y. A. Bernard,  E. J. Berquist,  
 K. B. Bravaya,  H. Burton,  D. Casanova,  Chun-Min Chang,  Yunqing Chen,  
 A. Chien,  K. D. Closser,  M. P. Coons,  S. Coriani,  S. Dasgupta,  
 A. L. Dempwolff,  M. Diedenhofen,  Hainam Do,  R. G. Edgar,  Po-Tung Fang,  
 S. Faraji,  S. Fatehi,  Qingguo Feng,  K. D. Fenk,  J. Fosso-Tande,  
 J. Gayvert,  Qinghui Ge,  A. Ghysels,  G. Gidofalvi,  J. Gomes,  
 J. Gonthier,  A. Gunina,  D. Hait,  M. W. D. Hanson-Heine,  
 P. H. P. Harbach,  A. W. Hauser,  M. F. Herbst,  J. E. Herr,  
 E. G. Hohenstein,  Z. C. Holden,  Kerwin Hui,  B. C. Huynh,  T.-C. Jagau,  
 Hyunjun Ji,  B. Kaduk,  K. Khistyaev,  Jaehoon Kim,  P. Klunzinger,  K. Koh,  
 D. Kosenkov,  L. Koulias,  T. Kowalczyk,  C. M. Krauter,  A. Kunitsa,  
 Ka Un Lao,  A. Laurent,  K. V. Lawler,  Joonho Lee,  D. Lefrancois,  
 S. Lehtola,  D. S. Levine,  Yi-Pei Li,  You-Sheng Lin,  Fenglai Liu,  
 E. Livshits,  A. Luenser,  P. Manohar,  E. Mansoor,  S. F. Manzer,  
 Shan-Ping Mao,  Yuezhi Mao,  N. Mardirossian,  A. V. Marenich,  
 T. Markovich,  L. A. Martinez-Martinez,  S. A. Maurer,  N. J. Mayhall,  
 S. C. McKenzie,  J.-M. Mewes,  P. Morgante,  A. F. Morrison,  
 J. W. Mullinax,  K. Nanda,  T. S. Nguyen-Beck,  R. Olivares-Amaya,  
 J. A. Parkhill,  Zheng Pei,  T. M. Perrine,  F. Plasser,  P. Pokhilko,  
 S. Prager,  A. Prociuk,  E. Ramos,  D. R. Rehn,  F. Rob,  M. Scheurer,  
 M. Schneider,  N. Sergueev,  S. M. Sharada,  S. Sharma,  D. W. Small,  
 T. Stauch,  T. Stein,  Yu-Chuan Su,  A. J. W. Thom,  A. Tkatchenko,  
 T. Tsuchimochi,  N. M. Tubman,  L. Vogt,  M. L. Vidal,  O. Vydrov,  
 M. A. Watson,  J. Wenzel,  M. de Wergifosse,  T. A. Wesolowski,  A. White,  
 J. Witte,  A. Yamada,  Jun Yang,  K. Yao,  S. Yeganeh,  S. R. Yost,  
 Zhi-Qiang You,  A. Zech,  Igor Ying Zhang,  Xing Zhang,  Yan Zhao,  
 Ying Zhu,  B. R. Brooks,  G. K. L. Chan,  C. J. Cramer,  M. S. Gordon,  
 W. J. Hehre,  A. Klamt,  M. W. Schmidt,  C. D. Sherrill,  D. G. Truhlar,  
 A. Aspuru-Guzik,  R. Baer,  A. T. Bell,  N. A. Besley,  Jeng-Da Chai,  
 A. E. DePrince, III,  R. A. DiStasio Jr.,  A. Dreuw,  B. D. Dunietz,  
 T. R. Furlani,  Chao-Ping Hsu,  Yousung Jung,  Jing Kong,  D. S. Lambrecht,  
 WanZhen Liang,  C. Ochsenfeld,  V. A. Rassolov,  L. V. Slipchenko,  
 J. E. Subotnik,  T. Van Voorhis,  J. M. Herbert,  A. I. Krylov,  
 P. M. W. Gill,  M. Head-Gordon

 Contributors to earlier versions of Q-Chem not listed above: 
 R. D. Adamson,  B. Austin,  J. Baker,  G. J. O. Beran,  K. Brandhorst,  
 S. T. Brown,  E. F. C. Byrd,  A. K. Chakraborty,  C.-L. Cheng,  
 Siu Hung Chien,  D. M. Chipman,  D. L. Crittenden,  H. Dachsel,  
 R. J. Doerksen,  A. D. Dutoi,  L. Fusti-Molnar,  W. A. Goddard III,  
 A. Golubeva-Zadorozhnaya,  S. R. Gwaltney,  G. Hawkins,  A. Heyden,  
 S. Hirata,  G. Kedziora,  F. J. Keil,  C. Kelley,  Jihan Kim,  R. A. King,  
 R. Z. Khaliullin,  P. P. Korambath,  W. Kurlancheek,  A. M. Lee,  M. S. Lee,  
 S. V. Levchenko,  Ching Yeh Lin,  D. Liotard,  R. C. Lochan,  I. Lotan,  
 P. E. Maslen,  N. Nair,  D. P. O'Neill,  D. Neuhauser,  E. Neuscamman,  
 C. M. Oana,  R. Olson,  B. Peters,  R. Peverati,  P. A. Pieniazek,  
 Y. M. Rhee,  J. Ritchie,  M. A. Rohrdanz,  E. Rosta,  N. J. Russ,  
 H. F. Schaefer III,  N. E. Schultz,  N. Shenvi,  A. C. Simmonett,  A. Sodt,  
 D. Stuck,  K. S. Thanthiriwatte,  V. Vanovschi,  Tao Wang,  A. Warshel,  
 C. F. Williams,  Q. Wu,  X. Xu,  W. Zhang

 Please cite Q-Chem as follows:
 Y. Shao et al., Mol. Phys. 113, 184-215 (2015)
 DOI: 10.1080/00268976.2014.952696

 Q-Chem 5.2.0 for Intel X86 EM64T Linux

 Parts of Q-Chem use Armadillo 8.300.2 (Tropical Shenanigans).
 http://arma.sourceforge.net/

 Q-Chem begins on Sun Sep 26 20:24:19 2021  

Host: cori01
0

     Scratch files written to /tmp/qchem54728//Frg2//
 May1019 |scratch|qcdevops|jenkins|workspace|build_RNUM -1
Processing $rem in /global/common/cori/software/qchem/5.2/config/preferences:
	 MEM_TOTAL  96000 
NAlpha2: 40
NElect   40
Mult     1
Symmetry turned off for PCM/SM12/SMD calculation

Checking the input file for inconsistencies... 	...done.

--------------------------------------------------------------
User input:
--------------------------------------------------------------
$molecule
-1 1
 6	-1.4883772898	-0.0047808269	-1.7250654193
 6	-1.8463772898	1.2002191731	-2.5910654193
 6	-2.6573772898	-0.9667808269	-1.5400654193
 8	-3.8403772898	-0.5697808269	-1.7200654193
 8	-2.3983772898	-2.1217808269	-1.1510654193
 1	-0.6303772898	-0.5267808269	-2.1540654193
 1	-1.2043772898	0.3652191731	-0.7400654193
 1	-2.7823772898	1.6242191731	-2.2250654193
 1	-1.9735042898	0.8861891731	-3.6375954193
 1	-1.0811792898	1.9819391731	-2.4753854193
$end
$rem
EDA2		1
METHOD		WB97X-V
BASIS		DEF2-TZVPD
XC_GRID		000099000590
NL_GRID		1
UNRESTRICTED		FALSE
MAX_SCF_CYCLES		200
SYMMETRY		FALSE
SYM_IGNORE		TRUE
BASIS_LIN_DEP_THRESH		6
THRESH		14
SCF_CONVERGENCE		8
SCF_PRINT_FRGM		TRUE
SOLVENT_METHOD		SMD
!required keywords
JOBTYPE		SP
SYM_IGNORE		TRUE
SUBSYSTEM		TRUE
GEN_SCFMAN		TRUE
CHILD_INSTRUCTION		2
SYM_IGNORE		TRUE
SCFMI		0
RI_K 0		
PARI_K 0		
MIN_PARI_K 0		
IARI_K 0		
OCC_RI_K 0		
PURECART		1111
MEM_STATIC		2000
MEM_TOTAL		96000
GUI		0
CHILD_MP		1
CHILD_MP_ORDERS		232
FRZ_RELAX		0
FRZ_RELAX_METHOD		0
EDA_CLS_ELEC		1
EDA_CLS_DISP		0
FRZ_ORTHO_DECOMP		1
EDA2		FALSE
FRGM_METHOD		FALSE
CIS_N_ROOTS  0
LOCAL_CIS    0
CIS_RLX_DNS  1
$end
$smx
SOLVENT			WATER
$end
--------------------------------------------------------------
 ----------------------------------------------------------------
             Standard Nuclear Orientation (Angstroms)
    I     Atom           X                Y                Z
 ----------------------------------------------------------------
    1      C      -1.4883772898    -0.0047808269    -1.7250654193
    2      C      -1.8463772898     1.2002191731    -2.5910654193
    3      C      -2.6573772898    -0.9667808269    -1.5400654193
    4      O      -3.8403772898    -0.5697808269    -1.7200654193
    5      O      -2.3983772898    -2.1217808269    -1.1510654193
    6      H      -0.6303772898    -0.5267808269    -2.1540654193
    7      H      -1.2043772898     0.3652191731    -0.7400654193
    8      H      -2.7823772898     1.6242191731    -2.2250654193
    9      H      -1.9735042898     0.8861891731    -3.6375954193
   10      H      -1.0811792898     1.9819391731    -2.4753854193
 ----------------------------------------------------------------
 Nuclear Repulsion Energy =         169.24881748 hartrees
 There are       20 alpha and       20 beta electrons
 Requested basis set is def2-TZVPD
 There are 92 shells and 236 basis functions

 Total QAlloc Memory Limit  96000 MB
 Mega-Array Size      1956 MB
 MEM_STATIC part      2000 MB
 
 Citation of the SMD model:
 Marenich, A.V.; Cramer, C.J.; Truhlar, D.G.
 J. Phys. Chem. B 2009, 113, 6378-6396.
 iSolventCode=           1
 Solvent: water                                                           
 
 vradii
            1           2           3           4           5           6
    1   1.8500000   1.8500000   1.8500000   1.5200000   1.5200000   1.2000000
            7           8           9          10
    1   1.2000000   1.2000000   1.2000000   1.2000000
 Changing PCM_VDW_RADII to SMD_RADIUS
 Discretize the solute cavity surface with Lebedev spheres
	Using 110 Lebedev grid points for each H atom
	Using 194 Lebedev grid points for other atoms
	Atomic van der Waals radii will be scaled by 1.20
 Remove points where switching function is < 1.0e-08
 Keep 831 surface tesserae and discard 689 interior tesserae
 Molecular Surface Area = 99.430 Angst**2

                       Distance Matrix (Angstroms)
             C (  1)   C (  2)   C (  3)   O (  4)   O (  5)   H (  6)
   C (  2)  1.526481
   C (  3)  1.525198  2.541301
   O (  4)  2.418916  2.804920  1.260753
   O (  5)  2.374714  3.662511  1.245964  2.193588
   H (  6)  1.092103  2.156885  2.163175  3.239491  2.583768
   H (  7)  1.089854  2.129692  2.127307  2.963633  2.789216  1.767636
   H (  8)  2.139644  1.090792  2.682933  2.487574  3.915795  3.043509
   H (  9)  2.164936  1.100001  2.881113  3.046635  3.925714  2.449762
   H ( 10)  2.162371  1.099998  3.471912  3.833400  4.508808  2.569075
             H (  7)   H (  8)   H (  9)
   H (  8)  2.506071
   H (  9)  3.042802  1.787234
   H ( 10)  2.374931  1.756331  1.829657
 
 A cutoff of  1.0D-14 yielded   4188 shell pairs
 There are     28006 function pairs (     35685 Cartesian)
 Smallest overlap matrix eigenvalue = 9.48E-06

 Scale SEOQF with 1.000000e-01/1.000000e-01/1.000000e-01

 Standard Electronic Orientation quadrupole field applied
 Nucleus-field energy     =    -0.0000000012 hartrees
 Guess from superposition of atomic densities
 Warning:  Energy on first SCF cycle will be non-variational
 SAD guess density has 38.612942 electrons

 -----------------------------------------------------------------------
  General SCF calculation program by
  Eric Jon Sundstrom, Paul Horn, Yuezhi Mao, Dmitri Zuev, Alec White,
  David Stuck, Shaama M.S., Shane Yost, Joonho Lee, David Small,
  Daniel Levine, Susi Lehtola, Hugh Burton, Evgeny Epifanovsky
 -----------------------------------------------------------------------
 Exchange:     0.1670 Hartree-Fock + 1.0000 wB97X-V + LR-HF
 Correlation:  1.0000 wB97X-V
 Using Euler-Maclaurin-Lebedev (99,590) quadrature formula
 Nonlocal Correlation:  VV10 with C = 0.0100 and b = 6.00 and scale = 1.00000
 Grid used for NLC:  SG-1 standard quadrature
Energy prior to optimization (guess energy) = -267.067055323229
Begin Timing: Total SCF Calculation
begin iterations for algorithm: DIIS         
the SCF tolerance is set to 1.00e-08
    1    -267.0670553232      1.28e-02     00000 
    2    -263.3018285369      2.03e-02     00000 
    3    -267.8350228423      4.97e-03     00000 
    4    -267.9546941284      2.15e-03     00000 
    5    -267.9789222400      3.78e-04     00000 
    6    -267.9800486707      1.85e-04     00000 
    7    -267.9801981200      7.81e-05     00000 
    8    -267.9802297855      1.55e-05     00000 
    9    -267.9802318470      5.65e-06     00000 
   10    -267.9802321530      2.08e-06     00000 
   11    -267.9802322160      2.86e-07     00000 
   12    -267.9802322184      7.45e-08     00000 
   13    -267.9802322185      3.05e-08     00000 
   14    -267.9802322185      9.95e-09     00000 Convergence criterion met
Timing for Total SCF: 573.00s (wall), 1108.78s (cpu)
(3)  G-ENP(liq) elect-nuc-pol free energy of system     -267.980232218 a.u.
(4)  G-CDS(liq) cavity-dispersion-solvent structure 
     free energy                                                4.0301 kcal/mol
(6)  G-S(liq) free energy of system                     -267.973809835 a.u.
E_pcm = -0.1309521796
E_cds = 0.0064223834
Multipole orders to be included
        2
        3
computing dipole RHS
computing quadrupole RHS
total number of RHS in solve_reponses: 8
RHS batch sizes
        8
Beginning Block Conjugate Gradient Iterations. Batch Number: 0
computing hessian-vector products by finite difference
              1      6.24e-01     00000 Conjugate Gradient Iteration
computing hessian-vector products by finite difference
              2      2.18e-01     00000 Conjugate Gradient Iteration
computing hessian-vector products by finite difference
              3      5.68e-02     00000 Conjugate Gradient Iteration
computing hessian-vector products by finite difference
              4      1.43e-02     00000 Conjugate Gradient Iteration
computing hessian-vector products by finite difference
              5      2.15e-03     00000 Conjugate Gradient Iteration
computing hessian-vector products by finite difference
              6      4.77e-04     00000 Conjugate Gradient Iteration
computing hessian-vector products by finite difference
              7      8.26e-05     00000 Conjugate Gradient Iteration
computing hessian-vector products by finite difference
              8      1.20e-05     00000 Conjugate Gradient Iteration
computing hessian-vector products by finite difference
              9      1.69e-06     00000 Conjugate Gradient Iteration
computing hessian-vector products by finite difference
             10      2.58e-07     00000 Conjugate Gradient Iteration
computing hessian-vector products by finite difference
             11      3.34e-08     00000 Conjugate Gradient Iteration
computing hessian-vector products by finite difference
             12      9.88e-09     00000 CG Converged
batch 0 complete
Done Calculating Responses
TESTING ORTHOGONALIZATION OF MULTIPOLE BASIS
Multipole virts passed orthogonality test
Virts Per Order
           60
          100
 
 --------------------------------------------------------------
 
                    Orbital Energies (a.u.)
 --------------------------------------------------------------
 
 Alpha MOs
 -- Occupied --
-19.1518 -19.1518 -10.3510 -10.2514 -10.2434  -1.1641  -1.0628  -0.8886
 -0.7489  -0.6151  -0.5669  -0.5611  -0.5311  -0.4992  -0.4759  -0.4460
 -0.4336  -0.3639  -0.3550  -0.3424
 -- Virtual --
  0.0675   0.0881   0.0964   0.1047   0.1231   0.1351   0.1392   0.1470
  0.1560   0.1629   0.1785   0.2024   0.2053   0.2139   0.2319   0.2362
  0.2524   0.2570   0.2717   0.2878   0.2928   0.3086   0.3158   0.3287
  0.3410   0.3447   0.3618   0.3730   0.3801   0.3825   0.3871   0.3899
  0.4050   0.4111   0.4166   0.4209   0.4239   0.4416   0.4568   0.4711
  0.4777   0.4862   0.4957   0.5035   0.5127   0.5159   0.5217   0.5372
  0.5499   0.5567   0.5739   0.5816   0.6094   0.6131   0.6258   0.6353
  0.6559   0.6619   0.6776   0.6888   0.7054   0.7094   0.7250   0.7462
  0.7615   0.7803   0.7889   0.7893   0.7995   0.8002   0.8144   0.8227
  0.8314   0.8475   0.8712   0.8818   0.8927   0.9483   0.9715   1.0141
  1.0217   1.0271   1.0514   1.0744   1.1012   1.1112   1.1647   1.1944
  1.2018   1.2760   1.3000   1.3067   1.3420   1.3563   1.3830   1.3972
  1.4231   1.4652   1.4844   1.5889   1.6643   1.7736   1.8241   1.8718
  1.8820   1.9104   1.9177   1.9333   1.9573   1.9626   1.9698   1.9936
  2.0113   2.0304   2.0627   2.1346   2.1563   2.1801   2.2033   2.2342
  2.2693   2.3010   2.3381   2.3792   2.4444   2.4506   2.4816   2.5116
  2.5561   2.5861   2.5910   2.6603   2.6952   2.7169   2.7701   2.7848
  2.8161   2.8474   2.8865   2.9203   2.9393   2.9913   3.0163   3.0508
  3.1196   3.1339   3.2331   3.2501   3.2728   3.2919   3.3282   3.3523
  3.3618   3.3963   3.4412   3.4644   3.4727   3.4962   3.5275   3.5649
  3.5830   3.6097   3.6446   3.6722   3.6953   3.7090   3.7259   3.7462
  3.7699   3.7936   3.9406   4.0675   4.0891   4.1038   4.1965   4.2340
  4.3139   4.3875   4.5344   4.6058   4.6663   4.7361   4.7767   4.8147
  4.8678   5.0425   5.1023   5.3018   5.3366   5.3406   5.3526   5.4692
  5.6911   5.7491   5.7919   6.0080   6.2021   6.3141   6.3425   6.5877
  6.6095   6.7071   6.7315   6.7567   6.9503   6.9604   7.0291   7.2372
  7.3253   7.3708   7.3885  22.6233  22.7629  23.7384  44.2436  44.3818
 --------------------------------------------------------------
 
          Ground-State Mulliken Net Atomic Charges

     Atom                 Charge (a.u.)
  ----------------------------------------
      1 C                    -0.007920
      2 C                    -0.850913
      3 C                     0.336500
      4 O                    -0.782491
      5 O                    -0.784722
      6 H                     0.219143
      7 H                     0.191413
      8 H                     0.204002
      9 H                     0.239279
     10 H                     0.235709
  ----------------------------------------
  Sum of atomic charges =    -1.000000

 -----------------------------------------------------------------
                    Cartesian Multipole Moments
 -----------------------------------------------------------------
    Charge (ESU x 10^10)
                -4.8032
    Dipole Moment (Debye)
         X      16.7813      Y       7.9337      Z       6.6689
       Tot      19.7239
    Quadrupole Moments (Debye-Ang)
        XX     -93.7444     XY     -21.4534     YY     -49.9353
        XZ     -25.2743     YZ      -8.2511     ZZ     -41.8655
    Octopole Moments (Debye-Ang^2)
       XXX     465.5616    XXY      76.6690    XYY     121.9182
       YYY      77.5218    XXZ     154.9169    XYZ      24.6832
       YYZ      78.3608    XZZ     117.1561    YZZ      19.7863
       ZZZ     186.7538
    Hexadecapole Moments (Debye-Ang^3)
      XXXX   -2206.1976   XXXY    -335.0601   XXYY    -390.5465
      XYYY    -221.9162   YYYY    -430.0045   XXXZ    -784.6759
      XXYZ     -84.7740   XYYZ    -187.5973   YYYZ     -55.5009
      XXZZ    -497.0813   XYZZ     -69.1410   YYZZ    -203.8799
      XZZZ    -466.9802   YZZZ     -12.9181   ZZZZ    -732.1319
 -----------------------------------------------------------------
Archival summary:
1\1\nid00560\SP\ProcedureUnspecified\BasisUnspecified\235(1-,1)\meili\SunSep2623:02:062021SunSep2623:02:062021\0\\#,ProcedureUnspecified,BasisUnspecified,\\-1,1\C\O,1,1.24596\O,1,1.26075,2,122.109\C,1,1.5252,2,117.596,3,176.762,0\H,4,1.08985,1,107.712,2,-78.898,0\H,4,1.0921,1,110.385,2,39.0538,0\C,4,1.52648,1,112.766,2,162.271,0\H,7,1.09079,4,108.526,1,48.7767,0\H,7,1.1,4,109.766,1,164.897,0\H,7,1.1,4,109.967,1,-70.7742,0\\\@

 Total job time:  9471.74s(wall), 18385.01s(cpu) 
 Sun Sep 26 23:02:10 2021

        *************************************************************
        *                                                           *
        *  Thank you very much for using Q-Chem.  Have a nice day.  *
        *                                                           *
        *************************************************************


Done Job For Fragment 1
calling putenv with: QCSCRATCH=/global/cscratch1/sd/meili 
calling putenv with: QCLOCALSCR=/tmp 
calling putenv with: QCTHREADS=32 
Doing General SCFMI
 Exchange:     0.1670 Hartree-Fock + 1.0000 wB97X-V + LR-HF
 Correlation:  1.0000 wB97X-V
 Using Euler-Maclaurin-Lebedev (99,590) quadrature formula
 Nonlocal Correlation:  VV10 with C = 0.0100 and b = 6.00 and scale = 1.00000
 Grid used for NLC:  SG-1 standard quadrature
performing fock build before subrot guess so that all methods have access
Printing subrot_rss_gen Method Specification:
Occupied Subspace Method is 0
Virtual Subspace Method is 0
Energy of the unrelaxed supersystem initial determinant -578.747274057256
performing fock build before subrot guess so that all methods have access
Printing subrot_rss_gen Method Specification:
Occupied Subspace Method is 0
Virtual Subspace Method is 0
Energy of the unrelaxed supersystem initial determinant w/ solvent -578.883109932974
write pseudocanon occs and virts to disk
write pseudocanon orbital energies to disk
Tolerance of ortho_decomp_scf: 1.00e-06
GDM subspace size: 20
Beginning the Orthogonal Decomposition of the Initial Supersystem Wavefunction
    1    -578.7251119079      2.21e-02     ortho_decomp Preconditoned Steepest Descent
    2    -578.7273743113      6.82e-04     ortho_decomp BFGS Step
    3    -578.7273834983      4.22e-05     ortho_decomp BFGS Step
    4    -578.7273835080      1.69e-06     ortho_decomp BFGS Step
    5    -578.7273835081      6.46e-08     ortho_decomp 00000 Convergence criterion met
 Hartree-Fock
 Hartree-Fock
 Hartree-Fock
Doing General SCFMI
 Exchange:     0.1670 Hartree-Fock + 1.0000 wB97X-V + LR-HF
 Correlation:  1.0000 wB97X-V
 Using Euler-Maclaurin-Lebedev (99,590) quadrature formula
 Nonlocal Correlation:  VV10 with C = 0.0100 and b = 6.00 and scale = 1.00000
 Grid used for NLC:  SG-1 standard quadrature
performing fock build at end of subrot_r(subrot) constructor so that all methods have access
<S^2> of initial wavefunction before polarization iterations 0.0000000000
Beginning iterations for the determination of the polarized wavefunction
Energy prior to optimization (guess energy) = -578.883109932973
Begin Timing: Total SCF Calculation
begin iterations for algorithm: DIIS         
the SCF tolerance is set to 1.00e-08
    1    -578.8831099330      4.16e-05     00000 
    2    -578.8832640339      1.90e-05     00000 
    3    -578.8832815489      1.05e-05     00000 
    4    -578.8832871893      4.34e-06     00000 
    5    -578.8832880615      1.78e-06     00000 
    6    -578.8832883126      7.87e-07     00000 
    7    -578.8832883507      4.12e-07     00000 
    8    -578.8832883603      1.71e-07     00000 
    9    -578.8832883615      8.53e-08     00000 
   10    -578.8832883618      4.01e-08     00000 
   11    -578.8832883619      1.63e-08     00000 
   12    -578.8832883619      6.89e-09     00000 Convergence criterion met
write pseudocanon occs and virts to disk
write pseudocanon orbital energies to disk
Timing for Total SCF: 7851.00s (wall), 15638.90s (cpu)
<S^2> of polarized wavefunction after polarization iterations 0.0000000000
relaxing scfmi constraint to allow all rotations in the entire AO span
Doing General SCFMI
 Exchange:     0.1670 Hartree-Fock + 1.0000 wB97X-V + LR-HF
 Correlation:  1.0000 wB97X-V
 Using Euler-Maclaurin-Lebedev (99,590) quadrature formula
 Nonlocal Correlation:  VV10 with C = 0.0100 and b = 6.00 and scale = 1.00000
 Grid used for NLC:  SG-1 standard quadrature
performing fock build at end of subrot_r(subrot) constructor so that all methods have access
<S^2> of polarized wavefunction before ct-allowed iterations 0.0000000000
Beginning iterations for the determination of the CT-Allowed wavefunction
Energy prior to optimization (guess energy) = -578.883288361908
Begin Timing: Total SCF Calculation
begin iterations for algorithm: DIIS         
the SCF tolerance is set to 1.00e-08
    1    -578.8832883619      6.73e-05     00000 
    2    -578.8840604975      6.47e-06     00000 
    3    -578.8840810779      1.25e-06     00000 
    4    -578.8840817174      1.01e-06     00000 
    5    -578.8840818682      1.90e-07     00000 
    6    -578.8840818788      1.07e-07     00000 
    7    -578.8840818814      2.71e-08     00000 
    8    -578.8840818816      1.28e-08     00000 
    9    -578.8840818817      2.85e-09     00000 Convergence criterion met
write pseudocanon occs and virts to disk
write pseudocanon orbital energies to disk
Timing for Total SCF: 5780.00s (wall), 11513.39s (cpu)
<S^2> of ct_allowed wavefunction after ct-allowed iterations 0.0000000000

================================
        Results of EDA2         
================================
Basic EDA Quantities
--------------------
Fragment Energies (Ha):
1 -310.8958319897
2 -267.9738098351
--------------------
  E_prp (kJ/mol) = -0.0000
  E_sol (kJ/mol) = 5.3120
  E_frz (kJ/mol) = -11.2186
  E_pol (kJ/mol) = -0.4685
  E_vct (kJ/mol) = -2.0834
  E_int (kJ/mol) = -8.4584
--------------------


Initial Wavefunction Decomposition
--------------------
  --------------------
  Orthogonal Fragment Subspace Decomposition:
  --------------------
     E_elec   (ELEC)   (kJ/mol) = -26.7802
     E_pauli  (PAULI)  (kJ/mol) = 31.5998
     E_disp   (DISP)   (kJ/mol) = -16.0382
     --------------------
     Terms summing to E_pauli:
     --------------------
        E_kep_pauli       (kJ/mol) = 41.0047
        E_disp_free_pauli (kJ/mol) = -9.4049
  --------------------
  Classical Frozen Decomposition:
  --------------------
     E_cls_elec  (CLS ELEC)  (kJ/mol) = -12.5315
     E_cls_pauli (CLS PAULI) (kJ/mol) = 1.3129
    [E_mod_pauli (MOD PAULI) (kJ/mol) = 17.3512 (CLS PAULI - DISP from orthogonal decomposition) ]
  --------------------
--------------------

Simplified EDA Summary (kJ/mol)
--------------------
 PREPARATION     -0.0000
 SOLVATION       5.3120
 FROZEN          4.8197      (does not include dispersion)
[PAULI           31.5998]     (if this is negligible, then frozen describes electrostatics)
 DISPERSION      -16.0382
 POLARIZATION    -0.4685
 CHARGE TRANSFER -2.0834
 TOTAL           -8.4584     (PRP + SOL + FRZ + DISP + POL + CT)
--------------------
 
 --------------------------------------------------------------
 
                    Orbital Energies (a.u.)
 --------------------------------------------------------------
 
 Alpha MOs
 -- Occupied --
-19.1518 -19.1517 -10.3508 -10.2682 -10.2675 -10.2631 -10.2626 -10.2614
-10.2579 -10.2508 -10.2504 -10.2481 -10.2432  -1.1640  -1.0627  -0.9972
 -0.9196  -0.8882  -0.8750  -0.8465  -0.7522  -0.7476  -0.7255  -0.6907
 -0.6235  -0.6152  -0.5779  -0.5677  -0.5627  -0.5611  -0.5360  -0.5311
 -0.5279  -0.5163  -0.5010  -0.4991  -0.4760  -0.4735  -0.4577  -0.4471
 -0.4441  -0.4342  -0.4230  -0.4214  -0.3637  -0.3549  -0.3455  -0.3423
 -0.3326
 -- Virtual --
  0.0605   0.0699   0.0726   0.0754   0.0816   0.0863   0.0964   0.0989
  0.1036   0.1138   0.1186   0.1209   0.1250   0.1355   0.1367   0.1436
  0.1499   0.1579   0.1615   0.1697   0.1790   0.1818   0.1852   0.1902
  0.1952   0.1990   0.2048   0.2083   0.2171   0.2239   0.2254   0.2290
  0.2376   0.2398   0.2474   0.2493   0.2551   0.2596   0.2639   0.2698
  0.2722   0.2739   0.2811   0.2839   0.2861   0.2896   0.2935   0.2961
  0.3030   0.3053   0.3070   0.3109   0.3165   0.3192   0.3228   0.3266
  0.3328   0.3366   0.3429   0.3458   0.3493   0.3519   0.3560   0.3593
  0.3653   0.3675   0.3691   0.3726   0.3762   0.3798   0.3860   0.3885
  0.3903   0.3923   0.3968   0.4004   0.4027   0.4049   0.4132   0.4136
  0.4178   0.4214   0.4263   0.4277   0.4319   0.4385   0.4405   0.4435
  0.4438   0.4471   0.4511   0.4567   0.4618   0.4643   0.4702   0.4714
  0.4743   0.4771   0.4832   0.4884   0.4898   0.4964   0.5016   0.5031
  0.5071   0.5115   0.5120   0.5178   0.5217   0.5236   0.5301   0.5320
  0.5374   0.5409   0.5447   0.5474   0.5530   0.5581   0.5623   0.5640
  0.5690   0.5719   0.5745   0.5823   0.5888   0.5911   0.6005   0.6021
  0.6084   0.6131   0.6178   0.6220   0.6233   0.6313   0.6340   0.6393
  0.6446   0.6503   0.6532   0.6578   0.6605   0.6686   0.6780   0.6832
  0.6903   0.6915   0.6977   0.7039   0.7044   0.7084   0.7128   0.7170
  0.7212   0.7278   0.7337   0.7378   0.7415   0.7437   0.7487   0.7556
  0.7593   0.7627   0.7667   0.7692   0.7730   0.7788   0.7815   0.7868
  0.7903   0.7950   0.7995   0.8011   0.8062   0.8085   0.8163   0.8207
  0.8218   0.8241   0.8252   0.8294   0.8346   0.8398   0.8425   0.8469
  0.8568   0.8600   0.8620   0.8641   0.8708   0.8733   0.8806   0.8851
  0.8918   0.8943   0.9026   0.9100   0.9177   0.9208   0.9264   0.9274
  0.9390   0.9446   0.9575   0.9668   0.9676   0.9712   0.9819   0.9865
  0.9973   0.9996   1.0170   1.0197   1.0231   1.0425   1.0553   1.0662
  1.0713   1.0828   1.0911   1.0998   1.1039   1.1107   1.1156   1.1221
  1.1295   1.1329   1.1453   1.1490   1.1663   1.1844   1.1947   1.2038
  1.2237   1.2340   1.2403   1.2510   1.2596   1.2652   1.2919   1.2964
  1.3197   1.3227   1.3352   1.3448   1.3560   1.3599   1.3701   1.3828
  1.3858   1.3994   1.4063   1.4255   1.4315   1.4340   1.4471   1.4548
  1.4710   1.4742   1.5018   1.5060   1.5194   1.5327   1.5471   1.5514
  1.5762   1.5840   1.6173   1.6264   1.6383   1.6421   1.6552   1.6733
  1.6826   1.7024   1.7242   1.7418   1.7874   1.7945   1.8020   1.8224
  1.8300   1.8409   1.8630   1.8776   1.8920   1.9134   1.9181   1.9191
  1.9341   1.9391   1.9450   1.9463   1.9557   1.9686   1.9777   1.9841
  1.9877   1.9930   2.0018   2.0121   2.0202   2.0296   2.0385   2.0424
  2.0449   2.0510   2.0594   2.0734   2.0902   2.0988   2.1022   2.1182
  2.1297   2.1468   2.1553   2.1558   2.1850   2.1873   2.1946   2.2111
  2.2257   2.2400   2.2459   2.2655   2.2702   2.2834   2.2967   2.3080
  2.3158   2.3254   2.3353   2.3453   2.3567   2.3692   2.3820   2.4088
  2.4211   2.4404   2.4491   2.4683   2.4744   2.4872   2.4998   2.5106
  2.5361   2.5540   2.5659   2.5796   2.5918   2.6064   2.6208   2.6260
  2.6347   2.6431   2.6604   2.6687   2.6858   2.6951   2.7196   2.7278
  2.7417   2.7465   2.7567   2.7633   2.7808   2.7870   2.7991   2.8052
  2.8170   2.8269   2.8481   2.8628   2.8757   2.8876   2.8923   2.9094
  2.9125   2.9224   2.9250   2.9318   2.9503   2.9582   2.9639   2.9785
  2.9815   2.9869   2.9996   3.0161   3.0230   3.0384   3.0438   3.0504
  3.0608   3.0728   3.0857   3.0942   3.0989   3.1192   3.1320   3.1395
  3.1580   3.1864   3.2020   3.2106   3.2217   3.2517   3.2634   3.2662
  3.2770   3.2828   3.3026   3.3281   3.3361   3.3398   3.3504   3.3617
  3.3724   3.3749   3.3985   3.4012   3.4155   3.4231   3.4319   3.4410
  3.4478   3.4531   3.4621   3.4669   3.4728   3.4924   3.5002   3.5013
  3.5109   3.5186   3.5295   3.5422   3.5433   3.5543   3.5611   3.5746
  3.5766   3.5840   3.5921   3.5944   3.6047   3.6218   3.6320   3.6347
  3.6559   3.6577   3.6696   3.6844   3.6918   3.6983   3.7124   3.7197
  3.7297   3.7308   3.7480   3.7520   3.7568   3.7649   3.7715   3.7811
  3.7990   3.8118   3.8199   3.8336   3.8657   3.8999   3.9213   3.9530
  3.9566   4.0051   4.0142   4.0354   4.0801   4.0864   4.0998   4.1311
  4.1436   4.1592   4.1780   4.2094   4.2229   4.2330   4.2574   4.2766
  4.2906   4.3222   4.3405   4.3508   4.3654   4.3683   4.3823   4.4008
  4.4107   4.4265   4.4303   4.4697   4.4977   4.5104   4.5486   4.5592
  4.5953   4.6256   4.6334   4.6856   4.6934   4.7155   4.7590   4.7907
  4.8034   4.8193   4.8490   4.8594   4.8931   4.9254   4.9472   4.9732
  5.0004   5.0540   5.0564   5.0855   5.1536   5.1656   5.2183   5.3091
  5.3327   5.3448   5.3508   5.3637   5.4105   5.4341   5.4758   5.5433
  5.5659   5.6983   5.7301   5.7525   5.7954   5.8522   6.0123   6.2122
  6.3229   6.3580   6.5946   6.6369   6.7291   6.7512   6.7854   6.9648
  6.9897   7.0498   7.2460   7.3414   7.3881   7.4032  22.6532  22.6754
 22.7273  22.9000  22.9179  22.9351  23.0157  23.1035  23.1620  23.5278
 23.7692  44.3040  44.4547
 --------------------------------------------------------------
 
          Ground-State Mulliken Net Atomic Charges

     Atom                 Charge (a.u.)
  ----------------------------------------
      1 C                    -0.000185
      2 C                    -1.141018
      3 C                     0.296951
      4 C                    -0.363433
      5 C                    -0.296259
      6 C                    -0.564212
      7 C                    -0.632483
      8 C                    -0.427256
      9 H                     0.327747
     10 H                    -0.040622
     11 H                     0.295713
     12 H                     0.425160
     13 H                     0.358928
     14 H                     0.388228
     15 H                     0.385405
     16 H                     0.417326
     17 H                     0.267314
     18 H                     0.301462
     19 C                     0.648595
     20 C                    -1.206854
     21 C                     0.372625
     22 O                    -0.801361
     23 O                    -0.787220
     24 H                     0.259737
     25 H                    -0.281643
     26 H                     0.243249
     27 H                     0.267487
     28 H                     0.286618
  ----------------------------------------
  Sum of atomic charges =    -1.000000

 -----------------------------------------------------------------
                    Cartesian Multipole Moments
 -----------------------------------------------------------------
    Charge (ESU x 10^10)
                -4.8032
    Dipole Moment (Debye)
         X      16.5616      Y       7.3602      Z       6.5657
       Tot      19.2761
    Quadrupole Moments (Debye-Ang)
        XX    -139.1903     XY     -21.6996     YY     -96.1341
        XZ     -27.8879     YZ      -5.6483     ZZ     -94.0966
    Octopole Moments (Debye-Ang^2)
       XXX     240.4140    XXY      67.4651    XYY      45.7886
       YYY      44.0708    XXZ      92.2707    XYZ      28.2705
       YYZ      27.6781    XZZ      22.9475    YZZ       8.5011
       ZZZ      -2.2792
    Hexadecapole Moments (Debye-Ang^3)
      XXXX   -3279.9857   XXXY    -455.5761   XXYY    -720.1085
      XYYY    -347.7806   YYYY   -1338.3146   XXXZ   -1070.7607
      XXYZ    -101.0716   XYYZ    -267.8432   YYYZ     -99.8443
      XXZZ    -819.7381   XYZZ    -122.0899   YYZZ    -448.1489
      XZZZ    -782.1614   YZZZ    -104.5690   ZZZZ   -1344.1605
 -----------------------------------------------------------------
Archival summary:
1\1\nid00560\SP\ProcedureUnspecified\BasisUnspecified\21115(1-,1)\meili\MonSep2705:52:172021MonSep2705:52:172021\0\\#,ProcedureUnspecified,BasisUnspecified,\\-1,1\C\C,1,1.38043\H,2,1.08084,1,120.388\C,2,1.37043,1,120.318,3,179.409,0\H,4,1.08105,2,119.745,1,179.762,0\C,4,1.37948,2,120.689,1,-0.552527,0\H,6,1.08227,4,120.023,2,-179.664,0\C,1,1.38706,2,120.08,3,-179.002,0\H,8,1.08118,1,120.267,2,179.394,0\C,6,1.3964,4,119.93,2,0.751048,0\H,10,1.08173,6,120.346,4,179.943,0\C,1,1.47867,2,119.521,3,-1.5632,0\H,12,1.08631,1,108.867,2,139.124,0\H,12,1.08979,1,109.751,2,21.9761,0\C,12,1.52221,1,112.362,2,-98.8109,0\H,15,1.0908,12,108.088,1,-54.6436,0\H,15,1.1,12,110.282,1,62.5895,0\H,15,1.1,12,110.816,1,-173.255,0\H,14,2.36748,12,120.226,1,43.8812,0\C,19,1.08985,14,108.514,12,102.254,0\H,20,1.0921,19,108.214,14,-47.8457,0\C,20,1.5252,19,107.712,14,71.4978,0\O,22,1.24596,20,117.596,19,-78.898,0\O,22,1.26075,20,120.216,19,97.9279,0\C,20,1.52648,19,107.81,14,-166.547,0\H,25,1.09079,20,108.526,19,-69.9975,0\H,25,1.1,20,109.766,19,46.1229,0\H,25,1.1,20,109.967,19,170.452,0\\\@

 Total job time:  81277.96s(wall), 49043.18s(cpu) 
 Mon Sep 27 05:52:21 2021

        *************************************************************
        *                                                           *
        *  Thank you very much for using Q-Chem.  Have a nice day.  *
        *                                                           *
        *************************************************************


