
Running Job 1 of 1 SSI-066ARG-167GLU-1_SMD_TZVPD.in
qchem SSI-066ARG-167GLU-1_SMD_TZVPD.in_25922.0 /tmp/qchem25922/ 0
/global/common/cori/software/qchem/5.2/exe/qcprog.exe_s SSI-066ARG-167GLU-1_SMD_TZVPD.in_25922.0 /tmp/qchem25922/
                  Welcome to Q-Chem
     A Quantum Leap Into The Future Of Chemistry


 Q-Chem 5.2, Q-Chem, Inc., Pleasanton, CA (2019)

 License issued to: National Energy Research Scientific Computing Center

 Yihan Shao,  Zhengting Gan,  E. Epifanovsky,  A. T. B. Gilbert,  M. Wormit,  
 J. Kussmann,  A. W. Lange,  A. Behn,  Jia Deng,  Xintian Feng,  D. Ghosh,  
 M. Goldey,  P. R. Horn,  L. D. Jacobson,  I. Kaliman,  T. Kus,  A. Landau,  
 Jie Liu,  E. I. Proynov,  R. M. Richard,  R. P. Steele,  E. J. Sundstrom,  
 H. L. Woodcock III,  P. M. Zimmerman,  D. Zuev,  B. Albrecht,  E. Alguire,  
 S. A. Baeppler,  D. Barton,  Z. Benda,  Y. A. Bernard,  E. J. Berquist,  
 K. B. Bravaya,  H. Burton,  D. Casanova,  Chun-Min Chang,  Yunqing Chen,  
 A. Chien,  K. D. Closser,  M. P. Coons,  S. Coriani,  S. Dasgupta,  
 A. L. Dempwolff,  M. Diedenhofen,  Hainam Do,  R. G. Edgar,  Po-Tung Fang,  
 S. Faraji,  S. Fatehi,  Qingguo Feng,  K. D. Fenk,  J. Fosso-Tande,  
 J. Gayvert,  Qinghui Ge,  A. Ghysels,  G. Gidofalvi,  J. Gomes,  
 J. Gonthier,  A. Gunina,  D. Hait,  M. W. D. Hanson-Heine,  
 P. H. P. Harbach,  A. W. Hauser,  M. F. Herbst,  J. E. Herr,  
 E. G. Hohenstein,  Z. C. Holden,  Kerwin Hui,  B. C. Huynh,  T.-C. Jagau,  
 Hyunjun Ji,  B. Kaduk,  K. Khistyaev,  Jaehoon Kim,  P. Klunzinger,  K. Koh,  
 D. Kosenkov,  L. Koulias,  T. Kowalczyk,  C. M. Krauter,  A. Kunitsa,  
 Ka Un Lao,  A. Laurent,  K. V. Lawler,  Joonho Lee,  D. Lefrancois,  
 S. Lehtola,  D. S. Levine,  Yi-Pei Li,  You-Sheng Lin,  Fenglai Liu,  
 E. Livshits,  A. Luenser,  P. Manohar,  E. Mansoor,  S. F. Manzer,  
 Shan-Ping Mao,  Yuezhi Mao,  N. Mardirossian,  A. V. Marenich,  
 T. Markovich,  L. A. Martinez-Martinez,  S. A. Maurer,  N. J. Mayhall,  
 S. C. McKenzie,  J.-M. Mewes,  P. Morgante,  A. F. Morrison,  
 J. W. Mullinax,  K. Nanda,  T. S. Nguyen-Beck,  R. Olivares-Amaya,  
 J. A. Parkhill,  Zheng Pei,  T. M. Perrine,  F. Plasser,  P. Pokhilko,  
 S. Prager,  A. Prociuk,  E. Ramos,  D. R. Rehn,  F. Rob,  M. Scheurer,  
 M. Schneider,  N. Sergueev,  S. M. Sharada,  S. Sharma,  D. W. Small,  
 T. Stauch,  T. Stein,  Yu-Chuan Su,  A. J. W. Thom,  A. Tkatchenko,  
 T. Tsuchimochi,  N. M. Tubman,  L. Vogt,  M. L. Vidal,  O. Vydrov,  
 M. A. Watson,  J. Wenzel,  M. de Wergifosse,  T. A. Wesolowski,  A. White,  
 J. Witte,  A. Yamada,  Jun Yang,  K. Yao,  S. Yeganeh,  S. R. Yost,  
 Zhi-Qiang You,  A. Zech,  Igor Ying Zhang,  Xing Zhang,  Yan Zhao,  
 Ying Zhu,  B. R. Brooks,  G. K. L. Chan,  C. J. Cramer,  M. S. Gordon,  
 W. J. Hehre,  A. Klamt,  M. W. Schmidt,  C. D. Sherrill,  D. G. Truhlar,  
 A. Aspuru-Guzik,  R. Baer,  A. T. Bell,  N. A. Besley,  Jeng-Da Chai,  
 A. E. DePrince, III,  R. A. DiStasio Jr.,  A. Dreuw,  B. D. Dunietz,  
 T. R. Furlani,  Chao-Ping Hsu,  Yousung Jung,  Jing Kong,  D. S. Lambrecht,  
 WanZhen Liang,  C. Ochsenfeld,  V. A. Rassolov,  L. V. Slipchenko,  
 J. E. Subotnik,  T. Van Voorhis,  J. M. Herbert,  A. I. Krylov,  
 P. M. W. Gill,  M. Head-Gordon

 Contributors to earlier versions of Q-Chem not listed above: 
 R. D. Adamson,  B. Austin,  J. Baker,  G. J. O. Beran,  K. Brandhorst,  
 S. T. Brown,  E. F. C. Byrd,  A. K. Chakraborty,  C.-L. Cheng,  
 Siu Hung Chien,  D. M. Chipman,  D. L. Crittenden,  H. Dachsel,  
 R. J. Doerksen,  A. D. Dutoi,  L. Fusti-Molnar,  W. A. Goddard III,  
 A. Golubeva-Zadorozhnaya,  S. R. Gwaltney,  G. Hawkins,  A. Heyden,  
 S. Hirata,  G. Kedziora,  F. J. Keil,  C. Kelley,  Jihan Kim,  R. A. King,  
 R. Z. Khaliullin,  P. P. Korambath,  W. Kurlancheek,  A. M. Lee,  M. S. Lee,  
 S. V. Levchenko,  Ching Yeh Lin,  D. Liotard,  R. C. Lochan,  I. Lotan,  
 P. E. Maslen,  N. Nair,  D. P. O'Neill,  D. Neuhauser,  E. Neuscamman,  
 C. M. Oana,  R. Olson,  B. Peters,  R. Peverati,  P. A. Pieniazek,  
 Y. M. Rhee,  J. Ritchie,  M. A. Rohrdanz,  E. Rosta,  N. J. Russ,  
 H. F. Schaefer III,  N. E. Schultz,  N. Shenvi,  A. C. Simmonett,  A. Sodt,  
 D. Stuck,  K. S. Thanthiriwatte,  V. Vanovschi,  Tao Wang,  A. Warshel,  
 C. F. Williams,  Q. Wu,  X. Xu,  W. Zhang

 Please cite Q-Chem as follows:
 Y. Shao et al., Mol. Phys. 113, 184-215 (2015)
 DOI: 10.1080/00268976.2014.952696

 Q-Chem 5.2.0 for Intel X86 EM64T Linux

 Parts of Q-Chem use Armadillo 8.300.2 (Tropical Shenanigans).
 http://arma.sourceforge.net/

 Q-Chem begins on Sun Sep 26 10:12:48 2021  

Host: cori01
0

     Scratch files written to /tmp/qchem25922//
 May1019 |scratch|qcdevops|jenkins|workspace|build_RNUM -1
Processing $rem in /global/common/cori/software/qchem/5.2/config/preferences:
	 MEM_TOTAL  96000 
NAlpha2: 72
NElect   72
Mult     1
Symmetry turned off for PCM/SM12/SMD calculation

 Q-Chem warning in module libgen/rem_setup.C, line 2803:

 Neither GIA nor STOLL is specified by user. Use STOLL as the default


Checking the input file for inconsistencies... 	...done.

--------------------------------------------------------------
User input:
--------------------------------------------------------------
$comment
SSI-066ARG-167GLU-1.pdb
$end

$molecule
0 1
--
1 1
C    0.667887905739   -2.392988702770   -1.372880073350
C   -0.777112094261   -1.663988702770    0.495119926650
N   -1.262112094261   -0.691988702770    1.199119926650
N    0.095887905739   -1.394988702770   -0.465880073350
N   -1.228112094261   -2.874988702770    0.721119926650
H   -0.935112094261    0.262011297230    1.012119926650
H   -1.918112094261   -0.866988702770    1.939119926650
H    0.385887905739   -0.420988702770   -0.582880073350
H   -0.839112094261   -3.657988702770    0.224119926650
H   -1.826112094261   -3.036988702770    1.525119926650
H    0.662887905739   -3.389988702770   -0.928880073350
H    1.717887905739   -2.131988702770   -1.522880073350
H    0.196647905739   -2.432258702770   -2.366050073350
--
-1 1
C    1.151887905739    3.613011297230   -0.294880073350
C    0.595887905739    2.197011297230   -0.143880073350
O   -0.294112094261    1.962011297230    0.707119926650
O    1.071887905739    1.306011297230   -0.883880073350
H    0.994887905739    3.968011297230   -1.315880073350
H    2.231887905739    3.570011297230   -0.130880073350
H    0.742287905739    4.341353297230    0.420479926650
$end

$rem
JOBTYPE			EDA
EDA2			1
method			wB97X-V
BASIS			def2-TZVPD
XC_GRID			000099000590
NL_GRID			1
UNRESTRICTED		FALSE
MAX_SCF_CYCLES		200
SYMMETRY		FALSE
SYM_IGNORE		TRUE
MEM_STATIC		2000
BASIS_LIN_DEP_THRESH 	6
THRESH 			14
SCF_CONVERGENCE 	8
SCF_PRINT_FRGM 		TRUE
SOLVENT_METHOD          SMD
$end

$SMX
SOLVENT			WATER
$END
--------------------------------------------------------------
 ----------------------------------------------------------------
             Standard Nuclear Orientation (Angstroms)
    I     Atom           X                Y                Z
 ----------------------------------------------------------------
    1      C       0.6678879057    -2.3929887028    -1.3728800733
    2      C      -0.7771120943    -1.6639887028     0.4951199266
    3      N      -1.2621120943    -0.6919887028     1.1991199266
    4      N       0.0958879057    -1.3949887028    -0.4658800733
    5      N      -1.2281120943    -2.8749887028     0.7211199267
    6      H      -0.9351120943     0.2620112972     1.0121199267
    7      H      -1.9181120943    -0.8669887028     1.9391199267
    8      H       0.3858879057    -0.4209887028    -0.5828800734
    9      H      -0.8391120943    -3.6579887028     0.2241199266
   10      H      -1.8261120943    -3.0369887028     1.5251199266
   11      H       0.6628879057    -3.3899887028    -0.9288800734
   12      H       1.7178879057    -2.1319887028    -1.5228800734
   13      H       0.1966479057    -2.4322587028    -2.3660500733
   14      C       1.1518879057     3.6130112972    -0.2948800733
   15      C       0.5958879057     2.1970112972    -0.1438800733
   16      O      -0.2941120943     1.9620112972     0.7071199267
   17      O       1.0718879057     1.3060112972    -0.8838800733
   18      H       0.9948879057     3.9680112972    -1.3158800734
   19      H       2.2318879057     3.5700112972    -0.1308800733
   20      H       0.7422879057     4.3413532972     0.4204799267
 ----------------------------------------------------------------
 Nuclear Repulsion Energy =         463.75300970 hartrees
 There are       36 alpha and       36 beta electrons
 Requested basis set is def2-TZVPD
 There are 174 shells and 438 basis functions

 Total QAlloc Memory Limit  96000 MB
 Mega-Array Size      1956 MB
 MEM_STATIC part      2000 MB
 
 Citation of the SMD model:
 Marenich, A.V.; Cramer, C.J.; Truhlar, D.G.
 J. Phys. Chem. B 2009, 113, 6378-6396.
 iSolventCode=           1
 Solvent: water                                                           
 
 vradii
            1           2           3           4           5           6
    1   1.8500000   1.8500000   1.8900000   1.8900000   1.8900000   1.2000000
            7           8           9          10          11          12
    1   1.2000000   1.2000000   1.2000000   1.2000000   1.2000000   1.2000000
           13          14          15          16          17          18
    1   1.2000000   1.8500000   1.8500000   1.5200000   1.5200000   1.2000000
           19          20
    1   1.2000000   1.2000000
 Changing PCM_VDW_RADII to SMD_RADIUS
 Discretize the solute cavity surface with Lebedev spheres
	Using 110 Lebedev grid points for each H atom
	Using 194 Lebedev grid points for other atoms
	Atomic van der Waals radii will be scaled by 1.20
 Remove points where switching function is < 1.0e-08
 Keep 1482 surface tesserae and discard 1474 interior tesserae
 Molecular Surface Area = 178.203 Angst**2
 A cutoff of  1.0D-14 yielded  13570 shell pairs
 There are     87184 function pairs (    109767 Cartesian)
 Smallest overlap matrix eigenvalue = 7.35E-06

 Scale SEOQF with 1.000000e-01/1.000000e-01/1.000000e-01

 Standard Electronic Orientation quadrupole field applied
 Nucleus-field energy     =     0.0000000227 hartrees

 -----------------------------------------------------------------------
  General SCF calculation program by
  Eric Jon Sundstrom, Paul Horn, Yuezhi Mao, Dmitri Zuev, Alec White,
  David Stuck, Shaama M.S., Shane Yost, Joonho Lee, David Small,
  Daniel Levine, Susi Lehtola, Hugh Burton, Evgeny Epifanovsky
 -----------------------------------------------------------------------
================================================================
                 ALMO-EDA with the EDA2 driver                  
================================================================
 The second-generation ALMO-EDA (for DFT):                      
 P. R. Horn, Y. Mao and M. Head-Gordon, PCCP, 18, 23067 (2016)  
 Decomposition of the frozen energy:                            
 P. R. Horn, Y. Mao and M. Head-Gordon, JCP, 144, 114107 (2016) 
 FERF model for polarization:                                   
 P. R. Horn and M. Head-Gordon, JCP, 143, 114111 (2015)         
Using eda2 option set 1
Option set summary: Frozen orbital wavefunction, initial wavefunction decomposition, and nDQ polarization.
--------------------------------
Printing EDA Options
--------------------------------
eda_child_super_basis      0
fragmo_guess_mode          0
child_mp                   1
child_mp_orders            232
cls_elec                   1
cls_disp                   0
scfmi_mode                 1
scfmi_occs                 0
scfmi_virts                0
frz_relax                  0
frz_relax_method           0
dc_pen_start               0
dc_pen_conv                0
dc_pen_increment           0
dc_pen_steps               0
dc_pen_thresh_factor       0
dc_pen_pre_newton_thresh   0
frz_ortho_decomp           1
frz_ortho_decomp_conv      6
frgm_method                2
scfmi_freeze_ss            0
separate_rehyb             0
plot_diff_den              0
eda_nocv                   0
eda_vct_relax              1
disp_free_x                0
disp_free_c                0
eda_bsse                   0
eda_pct_a                  0
eda_covp                   0
--------------------------------
Attempting to make child job directory: /tmp/qchem25922//Frg1/
Attempting to make child job directory: /tmp/qchem25922//Frg2/
Creating input file /tmp/qchem25922/Frg1.input
using default PutDataFrgm: nothing
calling putenv with: QCSCRATCH=/tmp/qchem25922/ 
calling putenv with: QCLOCALSCR=/tmp/qchem25922/ 
Spawning Job For Fragment 0
                  Welcome to Q-Chem
     A Quantum Leap Into The Future Of Chemistry


 Q-Chem 5.2, Q-Chem, Inc., Pleasanton, CA (2019)

 License issued to: National Energy Research Scientific Computing Center

 Yihan Shao,  Zhengting Gan,  E. Epifanovsky,  A. T. B. Gilbert,  M. Wormit,  
 J. Kussmann,  A. W. Lange,  A. Behn,  Jia Deng,  Xintian Feng,  D. Ghosh,  
 M. Goldey,  P. R. Horn,  L. D. Jacobson,  I. Kaliman,  T. Kus,  A. Landau,  
 Jie Liu,  E. I. Proynov,  R. M. Richard,  R. P. Steele,  E. J. Sundstrom,  
 H. L. Woodcock III,  P. M. Zimmerman,  D. Zuev,  B. Albrecht,  E. Alguire,  
 S. A. Baeppler,  D. Barton,  Z. Benda,  Y. A. Bernard,  E. J. Berquist,  
 K. B. Bravaya,  H. Burton,  D. Casanova,  Chun-Min Chang,  Yunqing Chen,  
 A. Chien,  K. D. Closser,  M. P. Coons,  S. Coriani,  S. Dasgupta,  
 A. L. Dempwolff,  M. Diedenhofen,  Hainam Do,  R. G. Edgar,  Po-Tung Fang,  
 S. Faraji,  S. Fatehi,  Qingguo Feng,  K. D. Fenk,  J. Fosso-Tande,  
 J. Gayvert,  Qinghui Ge,  A. Ghysels,  G. Gidofalvi,  J. Gomes,  
 J. Gonthier,  A. Gunina,  D. Hait,  M. W. D. Hanson-Heine,  
 P. H. P. Harbach,  A. W. Hauser,  M. F. Herbst,  J. E. Herr,  
 E. G. Hohenstein,  Z. C. Holden,  Kerwin Hui,  B. C. Huynh,  T.-C. Jagau,  
 Hyunjun Ji,  B. Kaduk,  K. Khistyaev,  Jaehoon Kim,  P. Klunzinger,  K. Koh,  
 D. Kosenkov,  L. Koulias,  T. Kowalczyk,  C. M. Krauter,  A. Kunitsa,  
 Ka Un Lao,  A. Laurent,  K. V. Lawler,  Joonho Lee,  D. Lefrancois,  
 S. Lehtola,  D. S. Levine,  Yi-Pei Li,  You-Sheng Lin,  Fenglai Liu,  
 E. Livshits,  A. Luenser,  P. Manohar,  E. Mansoor,  S. F. Manzer,  
 Shan-Ping Mao,  Yuezhi Mao,  N. Mardirossian,  A. V. Marenich,  
 T. Markovich,  L. A. Martinez-Martinez,  S. A. Maurer,  N. J. Mayhall,  
 S. C. McKenzie,  J.-M. Mewes,  P. Morgante,  A. F. Morrison,  
 J. W. Mullinax,  K. Nanda,  T. S. Nguyen-Beck,  R. Olivares-Amaya,  
 J. A. Parkhill,  Zheng Pei,  T. M. Perrine,  F. Plasser,  P. Pokhilko,  
 S. Prager,  A. Prociuk,  E. Ramos,  D. R. Rehn,  F. Rob,  M. Scheurer,  
 M. Schneider,  N. Sergueev,  S. M. Sharada,  S. Sharma,  D. W. Small,  
 T. Stauch,  T. Stein,  Yu-Chuan Su,  A. J. W. Thom,  A. Tkatchenko,  
 T. Tsuchimochi,  N. M. Tubman,  L. Vogt,  M. L. Vidal,  O. Vydrov,  
 M. A. Watson,  J. Wenzel,  M. de Wergifosse,  T. A. Wesolowski,  A. White,  
 J. Witte,  A. Yamada,  Jun Yang,  K. Yao,  S. Yeganeh,  S. R. Yost,  
 Zhi-Qiang You,  A. Zech,  Igor Ying Zhang,  Xing Zhang,  Yan Zhao,  
 Ying Zhu,  B. R. Brooks,  G. K. L. Chan,  C. J. Cramer,  M. S. Gordon,  
 W. J. Hehre,  A. Klamt,  M. W. Schmidt,  C. D. Sherrill,  D. G. Truhlar,  
 A. Aspuru-Guzik,  R. Baer,  A. T. Bell,  N. A. Besley,  Jeng-Da Chai,  
 A. E. DePrince, III,  R. A. DiStasio Jr.,  A. Dreuw,  B. D. Dunietz,  
 T. R. Furlani,  Chao-Ping Hsu,  Yousung Jung,  Jing Kong,  D. S. Lambrecht,  
 WanZhen Liang,  C. Ochsenfeld,  V. A. Rassolov,  L. V. Slipchenko,  
 J. E. Subotnik,  T. Van Voorhis,  J. M. Herbert,  A. I. Krylov,  
 P. M. W. Gill,  M. Head-Gordon

 Contributors to earlier versions of Q-Chem not listed above: 
 R. D. Adamson,  B. Austin,  J. Baker,  G. J. O. Beran,  K. Brandhorst,  
 S. T. Brown,  E. F. C. Byrd,  A. K. Chakraborty,  C.-L. Cheng,  
 Siu Hung Chien,  D. M. Chipman,  D. L. Crittenden,  H. Dachsel,  
 R. J. Doerksen,  A. D. Dutoi,  L. Fusti-Molnar,  W. A. Goddard III,  
 A. Golubeva-Zadorozhnaya,  S. R. Gwaltney,  G. Hawkins,  A. Heyden,  
 S. Hirata,  G. Kedziora,  F. J. Keil,  C. Kelley,  Jihan Kim,  R. A. King,  
 R. Z. Khaliullin,  P. P. Korambath,  W. Kurlancheek,  A. M. Lee,  M. S. Lee,  
 S. V. Levchenko,  Ching Yeh Lin,  D. Liotard,  R. C. Lochan,  I. Lotan,  
 P. E. Maslen,  N. Nair,  D. P. O'Neill,  D. Neuhauser,  E. Neuscamman,  
 C. M. Oana,  R. Olson,  B. Peters,  R. Peverati,  P. A. Pieniazek,  
 Y. M. Rhee,  J. Ritchie,  M. A. Rohrdanz,  E. Rosta,  N. J. Russ,  
 H. F. Schaefer III,  N. E. Schultz,  N. Shenvi,  A. C. Simmonett,  A. Sodt,  
 D. Stuck,  K. S. Thanthiriwatte,  V. Vanovschi,  Tao Wang,  A. Warshel,  
 C. F. Williams,  Q. Wu,  X. Xu,  W. Zhang

 Please cite Q-Chem as follows:
 Y. Shao et al., Mol. Phys. 113, 184-215 (2015)
 DOI: 10.1080/00268976.2014.952696

 Q-Chem 5.2.0 for Intel X86 EM64T Linux

 Parts of Q-Chem use Armadillo 8.300.2 (Tropical Shenanigans).
 http://arma.sourceforge.net/

 Q-Chem begins on Sun Sep 26 10:12:51 2021  

Host: cori01
0

     Scratch files written to /tmp/qchem25922//Frg1//
 May1019 |scratch|qcdevops|jenkins|workspace|build_RNUM -1
Processing $rem in /global/common/cori/software/qchem/5.2/config/preferences:
	 MEM_TOTAL  96000 
NAlpha2: 40
NElect   40
Mult     1
Symmetry turned off for PCM/SM12/SMD calculation

Checking the input file for inconsistencies... 	...done.

--------------------------------------------------------------
User input:
--------------------------------------------------------------
$molecule
1 1
 6	0.6678879057	-2.3929887028	-1.3728800733
 6	-0.7771120943	-1.6639887028	0.4951199266
 7	-1.2621120943	-0.6919887028	1.1991199266
 7	0.0958879057	-1.3949887028	-0.4658800733
 7	-1.2281120943	-2.8749887028	0.7211199267
 1	-0.9351120943	0.2620112972	1.0121199267
 1	-1.9181120943	-0.8669887028	1.9391199267
 1	0.3858879057	-0.4209887028	-0.5828800734
 1	-0.8391120943	-3.6579887028	0.2241199266
 1	-1.8261120943	-3.0369887028	1.5251199266
 1	0.6628879057	-3.3899887028	-0.9288800734
 1	1.7178879057	-2.1319887028	-1.5228800734
 1	0.1966479057	-2.4322587028	-2.3660500733
$end
$rem
EDA2		1
METHOD		WB97X-V
BASIS		DEF2-TZVPD
XC_GRID		000099000590
NL_GRID		1
UNRESTRICTED		FALSE
MAX_SCF_CYCLES		200
SYMMETRY		FALSE
SYM_IGNORE		TRUE
BASIS_LIN_DEP_THRESH		6
THRESH		14
SCF_CONVERGENCE		8
SCF_PRINT_FRGM		TRUE
SOLVENT_METHOD		SMD
!required keywords
JOBTYPE		SP
SYM_IGNORE		TRUE
SUBSYSTEM		TRUE
GEN_SCFMAN		TRUE
CHILD_INSTRUCTION		2
SYM_IGNORE		TRUE
SCFMI		0
RI_K 0		
PARI_K 0		
MIN_PARI_K 0		
IARI_K 0		
OCC_RI_K 0		
PURECART		1111
MEM_STATIC		2000
MEM_TOTAL		96000
GUI		0
CHILD_MP		1
CHILD_MP_ORDERS		232
FRZ_RELAX		0
FRZ_RELAX_METHOD		0
EDA_CLS_ELEC		1
EDA_CLS_DISP		0
FRZ_ORTHO_DECOMP		1
EDA2		FALSE
FRGM_METHOD		FALSE
CIS_N_ROOTS  0
LOCAL_CIS    0
CIS_RLX_DNS  1
$end
$smx
SOLVENT			WATER
$end
--------------------------------------------------------------
 ----------------------------------------------------------------
             Standard Nuclear Orientation (Angstroms)
    I     Atom           X                Y                Z
 ----------------------------------------------------------------
    1      C       0.6678879057    -2.3929887028    -1.3728800733
    2      C      -0.7771120943    -1.6639887028     0.4951199266
    3      N      -1.2621120943    -0.6919887028     1.1991199266
    4      N       0.0958879057    -1.3949887028    -0.4658800733
    5      N      -1.2281120943    -2.8749887028     0.7211199267
    6      H      -0.9351120943     0.2620112972     1.0121199267
    7      H      -1.9181120943    -0.8669887028     1.9391199267
    8      H       0.3858879057    -0.4209887028    -0.5828800734
    9      H      -0.8391120943    -3.6579887028     0.2241199266
   10      H      -1.8261120943    -3.0369887028     1.5251199266
   11      H       0.6628879057    -3.3899887028    -0.9288800734
   12      H       1.7178879057    -2.1319887028    -1.5228800734
   13      H       0.1966479057    -2.4322587028    -2.3660500733
 ----------------------------------------------------------------
 Nuclear Repulsion Energy =         194.90611850 hartrees
 There are       20 alpha and       20 beta electrons
 Requested basis set is def2-TZVPD
 There are 105 shells and 257 basis functions

 Total QAlloc Memory Limit  96000 MB
 Mega-Array Size      1956 MB
 MEM_STATIC part      2000 MB
 
 Citation of the SMD model:
 Marenich, A.V.; Cramer, C.J.; Truhlar, D.G.
 J. Phys. Chem. B 2009, 113, 6378-6396.
 iSolventCode=           1
 Solvent: water                                                           
 
 vradii
            1           2           3           4           5           6
    1   1.8500000   1.8500000   1.8900000   1.8900000   1.8900000   1.2000000
            7           8           9          10          11          12
    1   1.2000000   1.2000000   1.2000000   1.2000000   1.2000000   1.2000000
           13
    1   1.2000000
 Changing PCM_VDW_RADII to SMD_RADIUS
 Discretize the solute cavity surface with Lebedev spheres
	Using 110 Lebedev grid points for each H atom
	Using 194 Lebedev grid points for other atoms
	Atomic van der Waals radii will be scaled by 1.20
 Remove points where switching function is < 1.0e-08
 Keep 911 surface tesserae and discard 939 interior tesserae
 Molecular Surface Area = 113.256 Angst**2

                       Distance Matrix (Angstroms)
             C (  1)   C (  2)   N (  3)   N (  4)   N (  5)   H (  6)
   C (  2)  2.471617
   N (  3)  3.637786  1.294459
   N (  4)  1.464868  1.325900  2.260663
   N (  5)  2.865655  1.311868  2.234979  2.313514
   H (  6)  3.912398  2.000432  1.025677  2.448080  3.164064
   H (  7)  4.470505  2.005549  1.004271  3.181038  2.447792  1.760755
   H (  8)  2.142990  2.014870  2.442308  1.022969  3.213647  2.180724
   H (  9)  2.534104  2.013286  3.150668  2.543913  1.005693  3.999570
   H ( 10)  3.877264  2.011574  2.433803  3.217814  1.015019  3.455496
   H ( 11)  1.091407  2.660912  3.938682  2.125061  2.561954  4.433756
   H ( 12)  1.092301  3.242896  4.285240  2.071546  3.777102  4.381309
   H ( 13)  1.099998  3.118452  4.226932  2.167193  3.428785  4.466767
             H (  7)   H (  8)   H (  9)   H ( 10)   H ( 11)   H ( 12)
   H (  8)  3.444970
   H (  9)  3.448934  3.553877
   H ( 10)  2.211054  4.022445  1.747115
   H ( 11)  4.610045  3.001900  1.912390  3.513096
   H ( 12)  5.177467  2.363333  3.452381  4.761225  1.745974
   H ( 13)  5.045470  2.694571  3.046997  4.427015  1.788878  1.765012

 
 A cutoff of  1.0D-14 yielded   5441 shell pairs
 There are     33169 function pairs (     41502 Cartesian)
 Smallest overlap matrix eigenvalue = 1.58E-05

 Scale SEOQF with 1.000000e-01/1.000000e-01/1.000000e-01

 Standard Electronic Orientation quadrupole field applied
 Nucleus-field energy     =     0.0000000089 hartrees
 Guess from superposition of atomic densities
 Warning:  Energy on first SCF cycle will be non-variational
 SAD guess density has 40.388232 electrons

 -----------------------------------------------------------------------
  General SCF calculation program by
  Eric Jon Sundstrom, Paul Horn, Yuezhi Mao, Dmitri Zuev, Alec White,
  David Stuck, Shaama M.S., Shane Yost, Joonho Lee, David Small,
  Daniel Levine, Susi Lehtola, Hugh Burton, Evgeny Epifanovsky
 -----------------------------------------------------------------------
 Exchange:     0.1670 Hartree-Fock + 1.0000 wB97X-V + LR-HF
 Correlation:  1.0000 wB97X-V
 Using Euler-Maclaurin-Lebedev (99,590) quadrature formula
 Nonlocal Correlation:  VV10 with C = 0.0100 and b = 6.00 and scale = 1.00000
 Grid used for NLC:  SG-1 standard quadrature
Energy prior to optimization (guess energy) = -244.721546486946
Begin Timing: Total SCF Calculation
begin iterations for algorithm: DIIS         
the SCF tolerance is set to 1.00e-08
    1    -244.7215464869      7.92e-03     00000 
    2    -244.9633495114      6.19e-03     00000 
    3    -245.2015177485      3.16e-04     00000 
    4    -245.2024385583      1.66e-04     00000 
    5    -245.2026522372      4.76e-05     00000 
    6    -245.2026720913      1.84e-05     00000 
    7    -245.2026749927      3.48e-06     00000 
    8    -245.2026752110      8.79e-07     00000 
    9    -245.2026752248      4.12e-07     00000 
   10    -245.2026752275      1.14e-07     00000 
   11    -245.2026752277      4.60e-08     00000 
   12    -245.2026752278      1.72e-08     00000 
   13    -245.2026752278      2.24e-09     00000 Convergence criterion met
Timing for Total SCF: 806.00s (wall), 1595.07s (cpu)
(3)  G-ENP(liq) elect-nuc-pol free energy of system     -245.202675228 a.u.
(4)  G-CDS(liq) cavity-dispersion-solvent structure 
     free energy                                                2.7468 kcal/mol
(6)  G-S(liq) free energy of system                     -245.198297903 a.u.
E_pcm = -0.1090297146
E_cds = 0.0043773249
Multipole orders to be included
        2
        3
computing dipole RHS
computing quadrupole RHS
total number of RHS in solve_reponses: 8
RHS batch sizes
        8
Beginning Block Conjugate Gradient Iterations. Batch Number: 0
computing hessian-vector products by finite difference
              1      4.78e-01     00000 Conjugate Gradient Iteration
computing hessian-vector products by finite difference
              2      1.85e-01     00000 Conjugate Gradient Iteration
computing hessian-vector products by finite difference
              3      4.93e-02     00000 Conjugate Gradient Iteration
computing hessian-vector products by finite difference
              4      1.18e-02     00000 Conjugate Gradient Iteration
computing hessian-vector products by finite difference
              5      1.60e-03     00000 Conjugate Gradient Iteration
computing hessian-vector products by finite difference
              6      2.83e-04     00000 Conjugate Gradient Iteration
computing hessian-vector products by finite difference
              7      3.66e-05     00000 Conjugate Gradient Iteration
computing hessian-vector products by finite difference
              8      5.33e-06     00000 Conjugate Gradient Iteration
computing hessian-vector products by finite difference
              9      7.07e-07     00000 Conjugate Gradient Iteration
computing hessian-vector products by finite difference
             10      8.00e-08     00000 Conjugate Gradient Iteration
computing hessian-vector products by finite difference
             11      9.42e-09     00000 CG Converged
batch 0 complete
Done Calculating Responses
TESTING ORTHOGONALIZATION OF MULTIPOLE BASIS
Multipole virts passed orthogonality test
Virts Per Order
           60
          100
 
 --------------------------------------------------------------
 
                    Orbital Energies (a.u.)
 --------------------------------------------------------------
 
 Alpha MOs
 -- Occupied --
-14.4553 -14.4461 -14.4446 -10.4174 -10.3050  -1.1783  -1.0565  -1.0435
 -0.8517  -0.7642  -0.7228  -0.6920  -0.6169  -0.6073  -0.5961  -0.5711
 -0.5272  -0.5054  -0.3994  -0.3756
 -- Virtual --
  0.0588   0.0853   0.0985   0.1076   0.1236   0.1274   0.1383   0.1518
  0.1717   0.1777   0.1967   0.2010   0.2054   0.2131   0.2216   0.2392
  0.2419   0.2454   0.2491   0.2700   0.2839   0.2870   0.2979   0.3060
  0.3116   0.3207   0.3228   0.3248   0.3369   0.3496   0.3529   0.3638
  0.3686   0.3741   0.3787   0.3910   0.4124   0.4131   0.4209   0.4313
  0.4375   0.4471   0.4643   0.4690   0.4797   0.4853   0.4872   0.5010
  0.5045   0.5154   0.5194   0.5247   0.5330   0.5435   0.5525   0.5587
  0.5658   0.5732   0.5886   0.5906   0.6152   0.6223   0.6414   0.6467
  0.6640   0.6774   0.6990   0.7073   0.7198   0.7362   0.7432   0.7728
  0.8007   0.8052   0.8141   0.8258   0.8440   0.8500   0.8656   0.8710
  0.8777   0.8853   0.8998   0.9282   0.9412   0.9785   0.9870   0.9958
  1.0406   1.0613   1.0793   1.0963   1.1070   1.1221   1.1340   1.1373
  1.1731   1.1849   1.2133   1.2566   1.2744   1.3449   1.3692   1.4152
  1.4363   1.4572   1.4843   1.4971   1.5726   1.5832   1.6390   1.6859
  1.6883   1.7135   1.7589   1.7851   1.8369   1.8537   1.8867   1.8939
  1.9107   1.9333   1.9537   1.9637   1.9891   2.0222   2.0408   2.0582
  2.1054   2.1119   2.1783   2.2092   2.2164   2.2260   2.2740   2.3160
  2.3435   2.3616   2.3656   2.3928   2.4344   2.4895   2.5168   2.5207
  2.5638   2.5989   2.6213   2.6398   2.6634   2.6892   2.7014   2.7238
  2.7840   2.8076   2.8617   2.8771   2.8869   2.9259   2.9524   2.9740
  3.0484   3.1250   3.1550   3.1602   3.1882   3.2004   3.2318   3.2474
  3.2860   3.2880   3.3101   3.3340   3.3598   3.3869   3.4063   3.4524
  3.4954   3.5060   3.5651   3.5844   3.5968   3.6680   3.7064   3.7511
  3.8400   3.8860   3.9115   3.9901   4.0529   4.1073   4.1850   4.1975
  4.2873   4.3320   4.3609   4.4058   4.4441   4.5071   4.5954   4.6060
  4.6677   4.8344   4.8671   4.8812   4.9317   4.9980   5.0341   5.0624
  5.1169   5.1324   5.1482   5.1798   5.2046   5.2376   5.2991   5.3503
  5.3928   5.4131   5.4658   5.4756   5.4945   5.5358   5.5902   5.6580
  5.7018   5.7618   5.8344   5.9133   6.1642   6.2169   6.3865   6.5078
 22.6488  23.7441  32.3522  32.4602  32.8390
 --------------------------------------------------------------
 
          Ground-State Mulliken Net Atomic Charges

     Atom                 Charge (a.u.)
  ----------------------------------------
      1 C                    -0.791459
      2 C                     0.484250
      3 N                    -0.306678
      4 N                    -0.117393
      5 N                    -0.289165
      6 H                     0.256275
      7 H                     0.233469
      8 H                     0.281811
      9 H                     0.184214
     10 H                     0.257767
     11 H                     0.293823
     12 H                     0.274321
     13 H                     0.238766
  ----------------------------------------
  Sum of atomic charges =     1.000000

 -----------------------------------------------------------------
                    Cartesian Multipole Moments
 -----------------------------------------------------------------
    Charge (ESU x 10^10)
                 4.8032
    Dipole Moment (Debye)
         X      -3.1688      Y      -7.9855      Z       2.2667
       Tot       8.8852
    Quadrupole Moments (Debye-Ang)
        XX     -22.7765     XY       6.3218     YY      -3.2035
        XZ     -10.3770     YZ      -2.6715     ZZ     -20.7727
    Octopole Moments (Debye-Ang^2)
       XXX      32.1478    XXY      41.4312    XYY      -6.8940
       YYY      75.8698    XXZ      13.5079    XYZ      17.8864
       YYZ       6.8601    XZZ      -0.7693    YZZ      39.1421
       ZZZ       2.4257
    Hexadecapole Moments (Debye-Ang^3)
      XXXX    -175.3815   XXXY     -44.8002   XXYY    -125.2832
      XYYY       5.7941   YYYY    -456.4980   XXXZ      40.1998
      XXYZ     -33.8593   XYYZ     -20.1535   YYYZ     -44.9079
      XXZZ     -33.6678   XYZZ       2.6807   YYZZ    -126.4042
      XZZZ      43.7167   YZZZ     -26.9911   ZZZZ    -185.2872
 -----------------------------------------------------------------
Archival summary:
1\1\nid00536\SP\ProcedureUnspecified\BasisUnspecified\328(1+,1)\meili\SunSep2613:54:062021SunSep2613:54:062021\0\\#,ProcedureUnspecified,BasisUnspecified,\\1,1\C\N,1,1.29446\H,2,1.00427,1,120.973\H,2,1.02568,1,118.673,3,177.589,0\N,1,1.31187,2,118.077,3,4.09057,0\H,5,1.00569,1,120.039,2,-176.92,0\H,5,1.01502,1,119.1,2,-9.40551,0\N,1,1.3259,2,119.244,3,-179.402,0\H,8,1.02297,1,117.563,2,2.81148,0\C,8,1.46487,1,124.586,2,-176.917,0\H,10,1.09141,8,111.634,1,-25.1928,0\H,10,1.0923,8,107.313,1,-141.138,0\H,10,1.1,8,114.587,1,99.9152,0\\\@

 Total job time:  13276.65s(wall), 26305.88s(cpu) 
 Sun Sep 26 13:54:08 2021

        *************************************************************
        *                                                           *
        *  Thank you very much for using Q-Chem.  Have a nice day.  *
        *                                                           *
        *************************************************************


Done Job For Fragment 0
calling putenv with: QCSCRATCH=/global/cscratch1/sd/meili 
calling putenv with: QCLOCALSCR=/tmp 
calling putenv with: QCTHREADS=32 
Creating input file /tmp/qchem25922/Frg2.input
using default PutDataFrgm: nothing
calling putenv with: QCSCRATCH=/tmp/qchem25922/ 
calling putenv with: QCLOCALSCR=/tmp/qchem25922/ 
Spawning Job For Fragment 1
                  Welcome to Q-Chem
     A Quantum Leap Into The Future Of Chemistry


 Q-Chem 5.2, Q-Chem, Inc., Pleasanton, CA (2019)

 License issued to: National Energy Research Scientific Computing Center

 Yihan Shao,  Zhengting Gan,  E. Epifanovsky,  A. T. B. Gilbert,  M. Wormit,  
 J. Kussmann,  A. W. Lange,  A. Behn,  Jia Deng,  Xintian Feng,  D. Ghosh,  
 M. Goldey,  P. R. Horn,  L. D. Jacobson,  I. Kaliman,  T. Kus,  A. Landau,  
 Jie Liu,  E. I. Proynov,  R. M. Richard,  R. P. Steele,  E. J. Sundstrom,  
 H. L. Woodcock III,  P. M. Zimmerman,  D. Zuev,  B. Albrecht,  E. Alguire,  
 S. A. Baeppler,  D. Barton,  Z. Benda,  Y. A. Bernard,  E. J. Berquist,  
 K. B. Bravaya,  H. Burton,  D. Casanova,  Chun-Min Chang,  Yunqing Chen,  
 A. Chien,  K. D. Closser,  M. P. Coons,  S. Coriani,  S. Dasgupta,  
 A. L. Dempwolff,  M. Diedenhofen,  Hainam Do,  R. G. Edgar,  Po-Tung Fang,  
 S. Faraji,  S. Fatehi,  Qingguo Feng,  K. D. Fenk,  J. Fosso-Tande,  
 J. Gayvert,  Qinghui Ge,  A. Ghysels,  G. Gidofalvi,  J. Gomes,  
 J. Gonthier,  A. Gunina,  D. Hait,  M. W. D. Hanson-Heine,  
 P. H. P. Harbach,  A. W. Hauser,  M. F. Herbst,  J. E. Herr,  
 E. G. Hohenstein,  Z. C. Holden,  Kerwin Hui,  B. C. Huynh,  T.-C. Jagau,  
 Hyunjun Ji,  B. Kaduk,  K. Khistyaev,  Jaehoon Kim,  P. Klunzinger,  K. Koh,  
 D. Kosenkov,  L. Koulias,  T. Kowalczyk,  C. M. Krauter,  A. Kunitsa,  
 Ka Un Lao,  A. Laurent,  K. V. Lawler,  Joonho Lee,  D. Lefrancois,  
 S. Lehtola,  D. S. Levine,  Yi-Pei Li,  You-Sheng Lin,  Fenglai Liu,  
 E. Livshits,  A. Luenser,  P. Manohar,  E. Mansoor,  S. F. Manzer,  
 Shan-Ping Mao,  Yuezhi Mao,  N. Mardirossian,  A. V. Marenich,  
 T. Markovich,  L. A. Martinez-Martinez,  S. A. Maurer,  N. J. Mayhall,  
 S. C. McKenzie,  J.-M. Mewes,  P. Morgante,  A. F. Morrison,  
 J. W. Mullinax,  K. Nanda,  T. S. Nguyen-Beck,  R. Olivares-Amaya,  
 J. A. Parkhill,  Zheng Pei,  T. M. Perrine,  F. Plasser,  P. Pokhilko,  
 S. Prager,  A. Prociuk,  E. Ramos,  D. R. Rehn,  F. Rob,  M. Scheurer,  
 M. Schneider,  N. Sergueev,  S. M. Sharada,  S. Sharma,  D. W. Small,  
 T. Stauch,  T. Stein,  Yu-Chuan Su,  A. J. W. Thom,  A. Tkatchenko,  
 T. Tsuchimochi,  N. M. Tubman,  L. Vogt,  M. L. Vidal,  O. Vydrov,  
 M. A. Watson,  J. Wenzel,  M. de Wergifosse,  T. A. Wesolowski,  A. White,  
 J. Witte,  A. Yamada,  Jun Yang,  K. Yao,  S. Yeganeh,  S. R. Yost,  
 Zhi-Qiang You,  A. Zech,  Igor Ying Zhang,  Xing Zhang,  Yan Zhao,  
 Ying Zhu,  B. R. Brooks,  G. K. L. Chan,  C. J. Cramer,  M. S. Gordon,  
 W. J. Hehre,  A. Klamt,  M. W. Schmidt,  C. D. Sherrill,  D. G. Truhlar,  
 A. Aspuru-Guzik,  R. Baer,  A. T. Bell,  N. A. Besley,  Jeng-Da Chai,  
 A. E. DePrince, III,  R. A. DiStasio Jr.,  A. Dreuw,  B. D. Dunietz,  
 T. R. Furlani,  Chao-Ping Hsu,  Yousung Jung,  Jing Kong,  D. S. Lambrecht,  
 WanZhen Liang,  C. Ochsenfeld,  V. A. Rassolov,  L. V. Slipchenko,  
 J. E. Subotnik,  T. Van Voorhis,  J. M. Herbert,  A. I. Krylov,  
 P. M. W. Gill,  M. Head-Gordon

 Contributors to earlier versions of Q-Chem not listed above: 
 R. D. Adamson,  B. Austin,  J. Baker,  G. J. O. Beran,  K. Brandhorst,  
 S. T. Brown,  E. F. C. Byrd,  A. K. Chakraborty,  C.-L. Cheng,  
 Siu Hung Chien,  D. M. Chipman,  D. L. Crittenden,  H. Dachsel,  
 R. J. Doerksen,  A. D. Dutoi,  L. Fusti-Molnar,  W. A. Goddard III,  
 A. Golubeva-Zadorozhnaya,  S. R. Gwaltney,  G. Hawkins,  A. Heyden,  
 S. Hirata,  G. Kedziora,  F. J. Keil,  C. Kelley,  Jihan Kim,  R. A. King,  
 R. Z. Khaliullin,  P. P. Korambath,  W. Kurlancheek,  A. M. Lee,  M. S. Lee,  
 S. V. Levchenko,  Ching Yeh Lin,  D. Liotard,  R. C. Lochan,  I. Lotan,  
 P. E. Maslen,  N. Nair,  D. P. O'Neill,  D. Neuhauser,  E. Neuscamman,  
 C. M. Oana,  R. Olson,  B. Peters,  R. Peverati,  P. A. Pieniazek,  
 Y. M. Rhee,  J. Ritchie,  M. A. Rohrdanz,  E. Rosta,  N. J. Russ,  
 H. F. Schaefer III,  N. E. Schultz,  N. Shenvi,  A. C. Simmonett,  A. Sodt,  
 D. Stuck,  K. S. Thanthiriwatte,  V. Vanovschi,  Tao Wang,  A. Warshel,  
 C. F. Williams,  Q. Wu,  X. Xu,  W. Zhang

 Please cite Q-Chem as follows:
 Y. Shao et al., Mol. Phys. 113, 184-215 (2015)
 DOI: 10.1080/00268976.2014.952696

 Q-Chem 5.2.0 for Intel X86 EM64T Linux

 Parts of Q-Chem use Armadillo 8.300.2 (Tropical Shenanigans).
 http://arma.sourceforge.net/

 Q-Chem begins on Sun Sep 26 13:54:11 2021  

Host: cori01
0

     Scratch files written to /tmp/qchem25922//Frg2//
 May1019 |scratch|qcdevops|jenkins|workspace|build_RNUM -1
Processing $rem in /global/common/cori/software/qchem/5.2/config/preferences:
	 MEM_TOTAL  96000 
NAlpha2: 32
NElect   32
Mult     1
Symmetry turned off for PCM/SM12/SMD calculation

Checking the input file for inconsistencies... 	...done.

--------------------------------------------------------------
User input:
--------------------------------------------------------------
$molecule
-1 1
 6	1.1518879057	3.6130112972	-0.2948800733
 6	0.5958879057	2.1970112972	-0.1438800733
 8	-0.2941120943	1.9620112972	0.7071199267
 8	1.0718879057	1.3060112972	-0.8838800733
 1	0.9948879057	3.9680112972	-1.3158800734
 1	2.2318879057	3.5700112972	-0.1308800733
 1	0.7422879057	4.3413532972	0.4204799267
$end
$rem
EDA2		1
METHOD		WB97X-V
BASIS		DEF2-TZVPD
XC_GRID		000099000590
NL_GRID		1
UNRESTRICTED		FALSE
MAX_SCF_CYCLES		200
SYMMETRY		FALSE
SYM_IGNORE		TRUE
BASIS_LIN_DEP_THRESH		6
THRESH		14
SCF_CONVERGENCE		8
SCF_PRINT_FRGM		TRUE
SOLVENT_METHOD		SMD
!required keywords
JOBTYPE		SP
SYM_IGNORE		TRUE
SUBSYSTEM		TRUE
GEN_SCFMAN		TRUE
CHILD_INSTRUCTION		2
SYM_IGNORE		TRUE
SCFMI		0
RI_K 0		
PARI_K 0		
MIN_PARI_K 0		
IARI_K 0		
OCC_RI_K 0		
PURECART		1111
MEM_STATIC		2000
MEM_TOTAL		96000
GUI		0
CHILD_MP		1
CHILD_MP_ORDERS		232
FRZ_RELAX		0
FRZ_RELAX_METHOD		0
EDA_CLS_ELEC		1
EDA_CLS_DISP		0
FRZ_ORTHO_DECOMP		1
EDA2		FALSE
FRGM_METHOD		FALSE
CIS_N_ROOTS  0
LOCAL_CIS    0
CIS_RLX_DNS  1
$end
$smx
SOLVENT			WATER
$end
--------------------------------------------------------------
 ----------------------------------------------------------------
             Standard Nuclear Orientation (Angstroms)
    I     Atom           X                Y                Z
 ----------------------------------------------------------------
    1      C       1.1518879057     3.6130112972    -0.2948800733
    2      C       0.5958879057     2.1970112972    -0.1438800733
    3      O      -0.2941120943     1.9620112972     0.7071199267
    4      O       1.0718879057     1.3060112972    -0.8838800733
    5      H       0.9948879057     3.9680112972    -1.3158800734
    6      H       2.2318879057     3.5700112972    -0.1308800733
    7      H       0.7422879057     4.3413532972     0.4204799267
 ----------------------------------------------------------------
 Nuclear Repulsion Energy =         112.36658493 hartrees
 There are       16 alpha and       16 beta electrons
 Requested basis set is def2-TZVPD
 There are 69 shells and 181 basis functions

 Total QAlloc Memory Limit  96000 MB
 Mega-Array Size      1956 MB
 MEM_STATIC part      2000 MB
 
 Citation of the SMD model:
 Marenich, A.V.; Cramer, C.J.; Truhlar, D.G.
 J. Phys. Chem. B 2009, 113, 6378-6396.
 iSolventCode=           1
 Solvent: water                                                           
 
 vradii
            1           2           3           4           5           6
    1   1.8500000   1.8500000   1.5200000   1.5200000   1.2000000   1.2000000
            7
    1   1.2000000
 Changing PCM_VDW_RADII to SMD_RADIUS
 Discretize the solute cavity surface with Lebedev spheres
	Using 110 Lebedev grid points for each H atom
	Using 194 Lebedev grid points for other atoms
	Atomic van der Waals radii will be scaled by 1.20
 Remove points where switching function is < 1.0e-08
 Keep 634 surface tesserae and discard 472 interior tesserae
 Molecular Surface Area = 80.010 Angst**2

                       Distance Matrix (Angstroms)
             C (  1)   C (  2)   O (  3)   O (  4)   H (  5)   H (  6)
   C (  2)  1.528723
   O (  3)  2.412617  1.253605
   O (  4)  2.382345  1.252221  2.197174
   H (  5)  1.092298  2.160839  3.126993  2.697925
   H (  6)  1.093227  2.135836  3.109435  2.652980  1.758635
   H (  7)  1.099997  2.222192  2.611045  3.320134  1.793917  1.765750

 
 A cutoff of  1.0D-14 yielded   2390 shell pairs
 There are     16694 function pairs (     21490 Cartesian)
 Smallest overlap matrix eigenvalue = 1.69E-05

 Scale SEOQF with 1.000000e-01/1.000000e-01/1.000000e-01

 Standard Electronic Orientation quadrupole field applied
 Nucleus-field energy     =     0.0000000138 hartrees
 Guess from superposition of atomic densities
 Warning:  Energy on first SCF cycle will be non-variational
 SAD guess density has 30.625312 electrons

 -----------------------------------------------------------------------
  General SCF calculation program by
  Eric Jon Sundstrom, Paul Horn, Yuezhi Mao, Dmitri Zuev, Alec White,
  David Stuck, Shaama M.S., Shane Yost, Joonho Lee, David Small,
  Daniel Levine, Susi Lehtola, Hugh Burton, Evgeny Epifanovsky
 -----------------------------------------------------------------------
 Exchange:     0.1670 Hartree-Fock + 1.0000 wB97X-V + LR-HF
 Correlation:  1.0000 wB97X-V
 Using Euler-Maclaurin-Lebedev (99,590) quadrature formula
 Nonlocal Correlation:  VV10 with C = 0.0100 and b = 6.00 and scale = 1.00000
 Grid used for NLC:  SG-1 standard quadrature
Energy prior to optimization (guess energy) = -227.760644327593
Begin Timing: Total SCF Calculation
begin iterations for algorithm: DIIS         
the SCF tolerance is set to 1.00e-08
    1    -227.7606443276      1.66e-02     00000 
    2    -225.6177264161      2.50e-02     00000 
    3    -228.6063209081      4.08e-03     00000 
    4    -228.6590143478      1.43e-03     00000 
    5    -228.6651966471      3.61e-04     00000 
    6    -228.6655460665      2.34e-04     00000 
    7    -228.6656977802      4.73e-05     00000 
    8    -228.6657072769      1.35e-05     00000 
    9    -228.6657084417      3.97e-06     00000 
   10    -228.6657085596      1.15e-06     00000 
   11    -228.6657085711      2.36e-07     00000 
   12    -228.6657085715      5.29e-08     00000 
   13    -228.6657085716      1.37e-08     00000 
   14    -228.6657085716      3.50e-09     00000 Convergence criterion met
Timing for Total SCF: 303.00s (wall), 593.45s (cpu)
(3)  G-ENP(liq) elect-nuc-pol free energy of system     -228.665708572 a.u.
(4)  G-CDS(liq) cavity-dispersion-solvent structure 
     free energy                                                3.8989 kcal/mol
(6)  G-S(liq) free energy of system                     -228.659495236 a.u.
E_pcm = -0.1311890791
E_cds = 0.0062133353
Multipole orders to be included
        2
        3
computing dipole RHS
computing quadrupole RHS
total number of RHS in solve_reponses: 8
RHS batch sizes
        8
Beginning Block Conjugate Gradient Iterations. Batch Number: 0
computing hessian-vector products by finite difference
              1      6.62e-01     00000 Conjugate Gradient Iteration
computing hessian-vector products by finite difference
              2      1.95e-01     00000 Conjugate Gradient Iteration
computing hessian-vector products by finite difference
              3      5.30e-02     00000 Conjugate Gradient Iteration
computing hessian-vector products by finite difference
              4      1.42e-02     00000 Conjugate Gradient Iteration
computing hessian-vector products by finite difference
              5      2.08e-03     00000 Conjugate Gradient Iteration
computing hessian-vector products by finite difference
              6      5.47e-04     00000 Conjugate Gradient Iteration
computing hessian-vector products by finite difference
              7      7.74e-05     00000 Conjugate Gradient Iteration
computing hessian-vector products by finite difference
              8      9.44e-06     00000 Conjugate Gradient Iteration
computing hessian-vector products by finite difference
              9      1.44e-06     00000 Conjugate Gradient Iteration
computing hessian-vector products by finite difference
             10      1.42e-07     00000 Conjugate Gradient Iteration
computing hessian-vector products by finite difference
             11      2.47e-08     00000 Conjugate Gradient Iteration
computing hessian-vector products by finite difference
             12      1.02e-08     00000 Conjugate Gradient Iteration
computing hessian-vector products by finite difference
             13      2.33e-09     00000 CG Converged
batch 0 complete
Done Calculating Responses
TESTING ORTHOGONALIZATION OF MULTIPOLE BASIS
Multipole virts passed orthogonality test
Virts Per Order
        48
        80
 
 --------------------------------------------------------------
 
                    Orbital Energies (a.u.)
 --------------------------------------------------------------
 
 Alpha MOs
 -- Occupied --
-19.1541 -19.1527 -10.3559 -10.2482  -1.1651  -1.0647  -0.8394  -0.6186
 -0.5470  -0.5463  -0.5407  -0.4819  -0.4622  -0.3654  -0.3586  -0.3450
 -- Virtual --
  0.0670   0.0998   0.1005   0.1075   0.1352   0.1445   0.1453   0.1496
  0.1566   0.1910   0.2020   0.2288   0.2307   0.2378   0.2609   0.2637
  0.2981   0.3152   0.3336   0.3460   0.3505   0.3617   0.3697   0.3847
  0.3905   0.3925   0.4148   0.4253   0.4274   0.4560   0.4674   0.4724
  0.4836   0.4885   0.5057   0.5094   0.5464   0.5573   0.5822   0.6015
  0.6096   0.6221   0.6248   0.6514   0.6562   0.6657   0.6759   0.6981
  0.7052   0.7259   0.7662   0.7891   0.8074   0.8097   0.8328   0.8439
  0.8628   0.9552   0.9661   0.9786   0.9845   1.0354   1.0371   1.1089
  1.1603   1.1723   1.2428   1.2622   1.2812   1.3053   1.3271   1.3335
  1.4397   1.5503   1.5863   1.7363   1.8026   1.8358   1.8567   1.8971
  1.9004   1.9393   1.9492   1.9578   2.0116   2.0907   2.1136   2.1476
  2.1890   2.2046   2.3056   2.3130   2.3906   2.4221   2.4576   2.4827
  2.5546   2.5889   2.5998   2.6670   2.7635   2.8069   2.8699   2.9218
  2.9406   2.9647   3.0008   3.1695   3.1790   3.2347   3.2633   3.3022
  3.3266   3.3329   3.3764   3.3959   3.4156   3.5242   3.5308   3.5460
  3.5938   3.6255   3.6725   3.7144   3.7538   3.8756   3.9163   4.0205
  4.0666   4.1749   4.3506   4.5364   4.6025   4.6406   4.7816   4.8052
  4.9706   5.2969   5.3225   5.3333   5.3382   5.4624   5.6772   5.7385
  5.7845   5.9898   6.1996   6.3124   6.3152   6.5824   6.5951   6.6893
  6.7083   6.7245   6.9160   6.9447   7.0044   7.2153   7.3138   7.3539
  7.3794  22.5805  23.6970  44.1900  44.3066
 --------------------------------------------------------------
 
          Ground-State Mulliken Net Atomic Charges

     Atom                 Charge (a.u.)
  ----------------------------------------
      1 C                    -0.593642
      2 C                     0.505441
      3 O                    -0.768485
      4 O                    -0.776126
      5 H                     0.209132
      6 H                     0.200365
      7 H                     0.223316
  ----------------------------------------
  Sum of atomic charges =    -1.000000

 -----------------------------------------------------------------
                    Cartesian Multipole Moments
 -----------------------------------------------------------------
    Charge (ESU x 10^10)
                -4.8032
    Dipole Moment (Debye)
         X      -0.9989      Y      -5.6807      Z       0.1851
       Tot       5.7709
    Quadrupole Moments (Debye-Ang)
        XX     -29.1686     XY       1.7206     YY     -30.8888
        XZ       4.9388     YZ      -2.4457     ZZ     -30.7359
    Octopole Moments (Debye-Ang^2)
       XXX     -53.7166    XXY     -62.9627    XYY      -7.5531
       YYY    -178.4605    XXZ       8.9366    XYZ       7.0036
       YYZ      -4.8464    XZZ     -20.2311    YZZ     -67.0293
       ZZZ      13.2058
    Hexadecapole Moments (Debye-Ang^3)
      XXXX    -159.0165   XXXY    -133.5130   XXYY    -195.0747
      XYYY    -105.3709   YYYY    -978.3961   XXXZ      40.4465
      XXYZ      14.9822   XYYZ      21.0020   YYYZ       1.5206
      XXZZ     -47.2541   XYZZ     -48.5199   YYZZ    -190.6515
      XZZZ      37.4360   YZZZ      21.9043   ZZZZ     -95.5791
 -----------------------------------------------------------------
Archival summary:
1\1\nid00536\SP\ProcedureUnspecified\BasisUnspecified\223(1-,1)\meili\SunSep2615:15:172021SunSep2615:15:172021\0\\#,ProcedureUnspecified,BasisUnspecified,\\-1,1\C\O,1,1.25222\O,1,1.25361,2,122.524\C,1,1.52872,2,117.545,3,179.277,0\H,4,1.0923,1,109.943,2,59.4039,0\H,4,1.09323,1,107.942,2,-57.17,0\H,4,1.1,1,114.434,2,-176.461,0\\\@

 Total job time:  4868.99s(wall), 9540.82s(cpu) 
 Sun Sep 26 15:15:20 2021

        *************************************************************
        *                                                           *
        *  Thank you very much for using Q-Chem.  Have a nice day.  *
        *                                                           *
        *************************************************************


Done Job For Fragment 1
calling putenv with: QCSCRATCH=/global/cscratch1/sd/meili 
calling putenv with: QCLOCALSCR=/tmp 
calling putenv with: QCTHREADS=32 
Doing General SCFMI
 Exchange:     0.1670 Hartree-Fock + 1.0000 wB97X-V + LR-HF
 Correlation:  1.0000 wB97X-V
 Using Euler-Maclaurin-Lebedev (99,590) quadrature formula
 Nonlocal Correlation:  VV10 with C = 0.0100 and b = 6.00 and scale = 1.00000
 Grid used for NLC:  SG-1 standard quadrature
performing fock build before subrot guess so that all methods have access
Printing subrot_rss_gen Method Specification:
Occupied Subspace Method is 0
Virtual Subspace Method is 0
Energy of the unrelaxed supersystem initial determinant -473.794265087251
performing fock build before subrot guess so that all methods have access
Printing subrot_rss_gen Method Specification:
Occupied Subspace Method is 0
Virtual Subspace Method is 0
Energy of the unrelaxed supersystem initial determinant w/ solvent -473.868349658759
write pseudocanon occs and virts to disk
write pseudocanon orbital energies to disk
Tolerance of ortho_decomp_scf: 1.00e-06
GDM subspace size: 20
Beginning the Orthogonal Decomposition of the Initial Supersystem Wavefunction
    1    -473.5217942024      1.08e-01     ortho_decomp Preconditoned Steepest Descent
    2    -473.5411230965      3.15e-03     ortho_decomp BFGS Step
    3    -473.5412095998      2.69e-04     ortho_decomp BFGS Step
    4    -473.5412097666      1.20e-05     ortho_decomp BFGS Step
    5    -473.5412097673      4.43e-07     ortho_decomp 00000 Convergence criterion met
 Hartree-Fock
 Hartree-Fock
 Hartree-Fock
Doing General SCFMI
 Exchange:     0.1670 Hartree-Fock + 1.0000 wB97X-V + LR-HF
 Correlation:  1.0000 wB97X-V
 Using Euler-Maclaurin-Lebedev (99,590) quadrature formula
 Nonlocal Correlation:  VV10 with C = 0.0100 and b = 6.00 and scale = 1.00000
 Grid used for NLC:  SG-1 standard quadrature
performing fock build at end of subrot_r(subrot) constructor so that all methods have access
<S^2> of initial wavefunction before polarization iterations 0.0000000000
Beginning iterations for the determination of the polarized wavefunction
Energy prior to optimization (guess energy) = -473.868349658760
Begin Timing: Total SCF Calculation
begin iterations for algorithm: DIIS         
the SCF tolerance is set to 1.00e-08
    1    -473.8683496588      2.41e-04     00000 
    2    -473.8712047855      1.09e-04     00000 
    3    -473.8715397071      6.33e-05     00000 
    4    -473.8716573917      1.73e-05     00000 
    5    -473.8716704737      7.17e-06     00000 
    6    -473.8716738170      2.71e-06     00000 
    7    -473.8716742748      1.28e-06     00000 
    8    -473.8716743597      4.25e-07     00000 
    9    -473.8716743686      1.48e-07     00000 
   10    -473.8716743692      7.76e-08     00000 
   11    -473.8716743694      3.22e-08     00000 
   12    -473.8716743694      1.41e-08     00000 
   13    -473.8716743694      4.69e-09     00000 Convergence criterion met
write pseudocanon occs and virts to disk
write pseudocanon orbital energies to disk
Timing for Total SCF: 3179.00s (wall), 6316.13s (cpu)
<S^2> of polarized wavefunction after polarization iterations 0.0000000000
relaxing scfmi constraint to allow all rotations in the entire AO span
Doing General SCFMI
 Exchange:     0.1670 Hartree-Fock + 1.0000 wB97X-V + LR-HF
 Correlation:  1.0000 wB97X-V
 Using Euler-Maclaurin-Lebedev (99,590) quadrature formula
 Nonlocal Correlation:  VV10 with C = 0.0100 and b = 6.00 and scale = 1.00000
 Grid used for NLC:  SG-1 standard quadrature
performing fock build at end of subrot_r(subrot) constructor so that all methods have access
<S^2> of polarized wavefunction before ct-allowed iterations 0.0000000000
Beginning iterations for the determination of the CT-Allowed wavefunction
Energy prior to optimization (guess energy) = -473.871674369417
Begin Timing: Total SCF Calculation
begin iterations for algorithm: DIIS         
the SCF tolerance is set to 1.00e-08
    1    -473.8716743694      2.88e-04     00000 
    2    -473.8814659475      4.94e-05     00000 
    3    -473.8819092065      2.25e-05     00000 
    4    -473.8819463121      9.92e-06     00000 
    5    -473.8819557873      2.01e-06     00000 
    6    -473.8819563108      6.59e-07     00000 
    7    -473.8819563932      2.41e-07     00000 
    8    -473.8819563989      9.59e-08     00000 
    9    -473.8819563999      3.43e-08     00000 
   10    -473.8819564000      1.05e-08     00000 
   11    -473.8819564000      3.06e-09     00000 Convergence criterion met
write pseudocanon occs and virts to disk
write pseudocanon orbital energies to disk
Timing for Total SCF: 2639.00s (wall), 5244.47s (cpu)
<S^2> of ct_allowed wavefunction after ct-allowed iterations 0.0000000000

================================
        Results of EDA2         
================================
Basic EDA Quantities
--------------------
Fragment Energies (Ha):
1 -245.1982979028
2 -228.6594952362
--------------------
  E_prp (kJ/mol) = 0.0000
  E_sol (kJ/mol) = 430.1171
  E_frz (kJ/mol) = -436.1009
  E_pol (kJ/mol) = -8.7291
  E_vct (kJ/mol) = -26.9958
  E_int (kJ/mol) = -41.7088
--------------------


Initial Wavefunction Decomposition
--------------------
  --------------------
  Orthogonal Fragment Subspace Decomposition:
  --------------------
     E_elec   (ELEC)   (kJ/mol) = -600.0959
     E_pauli  (PAULI)  (kJ/mol) = 188.5698
     E_disp   (DISP)   (kJ/mol) = -24.5748
     --------------------
     Terms summing to E_pauli:
     --------------------
        E_kep_pauli       (kJ/mol) = 228.3037
        E_disp_free_pauli (kJ/mol) = -39.7339
  --------------------
  Classical Frozen Decomposition:
  --------------------
     E_cls_elec  (CLS ELEC)  (kJ/mol) = -530.2925
     E_cls_pauli (CLS PAULI) (kJ/mol) = 94.1916
    [E_mod_pauli (MOD PAULI) (kJ/mol) = 118.7664 (CLS PAULI - DISP from orthogonal decomposition) ]
  --------------------
--------------------

Simplified EDA Summary (kJ/mol)
--------------------
 PREPARATION     0.0000
 SOLVATION       430.1171
 FROZEN          -411.5261      (does not include dispersion)
[PAULI           188.5698]     (if this is negligible, then frozen describes electrostatics)
 DISPERSION      -24.5748
 POLARIZATION    -8.7291
 CHARGE TRANSFER -26.9958
 TOTAL           -41.7088     (PRP + SOL + FRZ + DISP + POL + CT)
--------------------
 
 --------------------------------------------------------------
 
                    Orbital Energies (a.u.)
 --------------------------------------------------------------
 
 Alpha MOs
 -- Occupied --
-19.1647 -19.1631 -14.4379 -14.4356 -14.4239 -10.4046 -10.3652 -10.2991
-10.2519  -1.1771  -1.1652  -1.0766  -1.0435  -1.0315  -0.8446  -0.8428
 -0.7542  -0.7122  -0.6807  -0.6371  -0.6060  -0.5944  -0.5858  -0.5631
 -0.5547  -0.5526  -0.5420  -0.5202  -0.4994  -0.4864  -0.4681  -0.3898
 -0.3769  -0.3652  -0.3616  -0.3564
 -- Virtual --
  0.0578   0.0778   0.0842   0.0959   0.1037   0.1068   0.1202   0.1223
  0.1305   0.1375   0.1435   0.1454   0.1505   0.1636   0.1691   0.1763
  0.1812   0.1905   0.2019   0.2074   0.2101   0.2179   0.2241   0.2291
  0.2420   0.2467   0.2500   0.2568   0.2630   0.2662   0.2718   0.2758
  0.2839   0.2909   0.2956   0.3048   0.3089   0.3170   0.3183   0.3229
  0.3294   0.3353   0.3368   0.3415   0.3469   0.3516   0.3519   0.3640
  0.3675   0.3683   0.3748   0.3770   0.3823   0.3872   0.3904   0.3932
  0.4015   0.4111   0.4153   0.4195   0.4268   0.4297   0.4420   0.4438
  0.4453   0.4574   0.4600   0.4692   0.4746   0.4792   0.4817   0.4888
  0.4932   0.4963   0.5024   0.5062   0.5074   0.5155   0.5192   0.5288
  0.5375   0.5411   0.5497   0.5554   0.5616   0.5630   0.5707   0.5777
  0.5865   0.5889   0.5933   0.6036   0.6078   0.6233   0.6275   0.6312
  0.6429   0.6510   0.6523   0.6601   0.6658   0.6738   0.6890   0.6945
  0.6957   0.6994   0.7091   0.7165   0.7191   0.7282   0.7339   0.7490
  0.7563   0.7674   0.7767   0.7810   0.7955   0.7965   0.8047   0.8150
  0.8165   0.8231   0.8277   0.8304   0.8359   0.8377   0.8513   0.8666
  0.8769   0.8821   0.8954   0.8987   0.9035   0.9167   0.9272   0.9362
  0.9444   0.9583   0.9747   0.9823   0.9834   0.9921   1.0086   1.0297
  1.0495   1.0588   1.0719   1.0874   1.0952   1.1027   1.1080   1.1215
  1.1406   1.1508   1.1723   1.1763   1.1991   1.2052   1.2128   1.2216
  1.2357   1.2393   1.2436   1.2698   1.2839   1.2967   1.3059   1.3271
  1.3340   1.3433   1.3564   1.3743   1.3824   1.4046   1.4477   1.4665
  1.4951   1.5026   1.5387   1.5548   1.5749   1.6247   1.6573   1.6807
  1.6922   1.7003   1.7192   1.7350   1.7389   1.7675   1.7861   1.8352
  1.8435   1.8761   1.8894   1.8919   1.9080   1.9182   1.9232   1.9287
  1.9456   1.9532   1.9688   1.9725   1.9779   2.0007   2.0210   2.0276
  2.0455   2.0620   2.0712   2.0920   2.1135   2.1253   2.1361   2.1397
  2.1603   2.2032   2.2233   2.2374   2.2526   2.2631   2.2717   2.3156
  2.3220   2.3447   2.3604   2.3695   2.3850   2.4159   2.4204   2.4506
  2.4697   2.4764   2.5093   2.5252   2.5518   2.5548   2.5654   2.5894
  2.6003   2.6095   2.6179   2.6632   2.6695   2.6758   2.6999   2.7018
  2.7230   2.7326   2.7507   2.7744   2.7947   2.8327   2.8475   2.8555
  2.8852   2.8912   2.9311   2.9409   2.9650   2.9786   2.9915   3.0179
  3.0259   3.0339   3.0531   3.1125   3.1645   3.1825   3.1909   3.2021
  3.2180   3.2384   3.2509   3.2705   3.2924   3.2969   3.3089   3.3230
  3.3247   3.3326   3.3410   3.3524   3.3678   3.3849   3.3934   3.4128
  3.4176   3.4309   3.4448   3.4647   3.4784   3.5285   3.5351   3.5529
  3.5772   3.5904   3.6099   3.6245   3.6313   3.6554   3.6609   3.7033
  3.7349   3.7442   3.7500   3.7576   3.7787   3.8671   3.9060   3.9159
  3.9256   3.9491   4.0208   4.0628   4.0744   4.0983   4.1397   4.2058
  4.2275   4.2387   4.3266   4.3668   4.3778   4.3950   4.4286   4.4607
  4.5320   4.5462   4.6115   4.6265   4.6346   4.6550   4.6935   4.8313
  4.8608   4.8834   4.8981   4.9127   4.9744   5.0158   5.0423   5.0801
  5.1031   5.1362   5.1692   5.1787   5.2212   5.2262   5.2629   5.2932
  5.3245   5.3348   5.3709   5.3813   5.3956   5.4433   5.4471   5.4554
  5.4893   5.5352   5.5479   5.5618   5.6143   5.6899   5.7303   5.7393
  5.7511   5.7832   5.8083   5.8765   5.9560   6.0102   6.1985   6.2090
  6.2503   6.3067   6.3656   6.4318   6.5402   6.6179   6.6349   6.7173
  6.7234   6.8409   6.9528   6.9808   6.9999   7.2622   7.3419   7.4131
  7.4578  22.6104  22.6878  23.7317  23.8012  32.4166  32.5726  33.0198
 44.2826  44.3761
 --------------------------------------------------------------
 
          Ground-State Mulliken Net Atomic Charges

     Atom                 Charge (a.u.)
  ----------------------------------------
      1 C                    -0.840935
      2 C                     0.467931
      3 N                    -0.133556
      4 N                     0.113319
      5 N                    -0.279858
      6 H                     0.158727
      7 H                     0.242034
      8 H                     0.167403
      9 H                     0.182251
     10 H                     0.263836
     11 H                     0.317917
     12 H                     0.271769
     13 H                     0.246409
     14 C                    -0.856518
     15 C                     0.655362
     16 O                    -0.831722
     17 O                    -0.850414
     18 H                     0.231064
     19 H                     0.221950
     20 H                     0.253031
  ----------------------------------------
  Sum of atomic charges =     0.000000

 -----------------------------------------------------------------
                    Cartesian Multipole Moments
 -----------------------------------------------------------------
    Charge (ESU x 10^10)
                 0.0000
    Dipole Moment (Debye)
         X      -3.7391      Y     -12.3199      Z       2.2815
       Tot      13.0754
    Quadrupole Moments (Debye-Ang)
        XX     -52.2184     XY       7.9265     YY     -34.4640
        XZ      -5.1150     YZ      -5.0532     ZZ     -51.8482
    Octopole Moments (Debye-Ang^2)
       XXX     -19.5049    XXY     -18.6547    XYY     -11.9764
       YYY     -89.2198    XXZ      21.5363    XYZ      23.5370
       YYZ       1.9108    XZZ     -20.0559    YZZ     -25.2112
       ZZZ      15.0627
    Hexadecapole Moments (Debye-Ang^3)
      XXXX    -336.1613   XXXY    -178.4530   XXYY    -320.9514
      XYYY     -97.7139   YYYY   -1433.5261   XXXZ      82.2363
      XXYZ     -18.5093   XYYZ       2.1407   YYYZ     -44.2201
      XXZZ     -82.2986   XYZZ     -46.0756   YYZZ    -318.8929
      XZZZ      82.7017   YZZZ      -5.5595   ZZZZ    -283.6597
 -----------------------------------------------------------------
Archival summary:
1\1\nid00536\SP\ProcedureUnspecified\BasisUnspecified\23411\meili\SunSep2617:58:542021SunSep2617:58:542021\0\\#,ProcedureUnspecified,BasisUnspecified,\\0,1\N\H,1,1.02297\C,1,1.3259,2,117.563\N,3,1.29446,1,119.244,2,2.81148,0\H,4,1.00427,3,120.973,1,-179.402,0\H,4,1.02568,3,118.673,1,-1.81235,0\N,3,1.31187,1,122.582,2,179.155,0\H,7,1.00569,3,120.039,1,6.69661,0\H,7,1.01502,3,119.1,1,174.211,0\C,1,1.46487,2,117.85,3,179.747,0\H,10,1.09141,1,111.634,2,155.08,0\H,10,1.0923,1,107.313,2,39.1345,0\H,10,1.1,1,114.587,2,-79.8125,0\O,6,1.84226,4,178.029,3,-76.5422,0\C,14,1.25361,6,122.167,4,74.8423,0\O,15,1.25222,14,122.524,6,3.04005,0\C,15,1.52872,14,119.927,6,-176.22,0\H,17,1.0923,15,109.943,14,-121.3,0\H,17,1.09323,15,107.942,14,122.126,0\H,17,1.1,15,114.434,14,2.83536,0\\\@

 Total job time:  27969.43s(wall), 19523.48s(cpu) 
 Sun Sep 26 17:58:57 2021

        *************************************************************
        *                                                           *
        *  Thank you very much for using Q-Chem.  Have a nice day.  *
        *                                                           *
        *************************************************************


