
Running Job 1 of 1 SSI-099ARG-177ASP-1_PCM_TZVPD.in
qchem SSI-099ARG-177ASP-1_PCM_TZVPD.in_10221.0 /tmp/qchem10221/ 0
/global/common/cori/software/qchem/5.2/exe/qcprog.exe_s SSI-099ARG-177ASP-1_PCM_TZVPD.in_10221.0 /tmp/qchem10221/
                  Welcome to Q-Chem
     A Quantum Leap Into The Future Of Chemistry


 Q-Chem 5.2, Q-Chem, Inc., Pleasanton, CA (2019)

 License issued to: National Energy Research Scientific Computing Center

 Yihan Shao,  Zhengting Gan,  E. Epifanovsky,  A. T. B. Gilbert,  M. Wormit,  
 J. Kussmann,  A. W. Lange,  A. Behn,  Jia Deng,  Xintian Feng,  D. Ghosh,  
 M. Goldey,  P. R. Horn,  L. D. Jacobson,  I. Kaliman,  T. Kus,  A. Landau,  
 Jie Liu,  E. I. Proynov,  R. M. Richard,  R. P. Steele,  E. J. Sundstrom,  
 H. L. Woodcock III,  P. M. Zimmerman,  D. Zuev,  B. Albrecht,  E. Alguire,  
 S. A. Baeppler,  D. Barton,  Z. Benda,  Y. A. Bernard,  E. J. Berquist,  
 K. B. Bravaya,  H. Burton,  D. Casanova,  Chun-Min Chang,  Yunqing Chen,  
 A. Chien,  K. D. Closser,  M. P. Coons,  S. Coriani,  S. Dasgupta,  
 A. L. Dempwolff,  M. Diedenhofen,  Hainam Do,  R. G. Edgar,  Po-Tung Fang,  
 S. Faraji,  S. Fatehi,  Qingguo Feng,  K. D. Fenk,  J. Fosso-Tande,  
 J. Gayvert,  Qinghui Ge,  A. Ghysels,  G. Gidofalvi,  J. Gomes,  
 J. Gonthier,  A. Gunina,  D. Hait,  M. W. D. Hanson-Heine,  
 P. H. P. Harbach,  A. W. Hauser,  M. F. Herbst,  J. E. Herr,  
 E. G. Hohenstein,  Z. C. Holden,  Kerwin Hui,  B. C. Huynh,  T.-C. Jagau,  
 Hyunjun Ji,  B. Kaduk,  K. Khistyaev,  Jaehoon Kim,  P. Klunzinger,  K. Koh,  
 D. Kosenkov,  L. Koulias,  T. Kowalczyk,  C. M. Krauter,  A. Kunitsa,  
 Ka Un Lao,  A. Laurent,  K. V. Lawler,  Joonho Lee,  D. Lefrancois,  
 S. Lehtola,  D. S. Levine,  Yi-Pei Li,  You-Sheng Lin,  Fenglai Liu,  
 E. Livshits,  A. Luenser,  P. Manohar,  E. Mansoor,  S. F. Manzer,  
 Shan-Ping Mao,  Yuezhi Mao,  N. Mardirossian,  A. V. Marenich,  
 T. Markovich,  L. A. Martinez-Martinez,  S. A. Maurer,  N. J. Mayhall,  
 S. C. McKenzie,  J.-M. Mewes,  P. Morgante,  A. F. Morrison,  
 J. W. Mullinax,  K. Nanda,  T. S. Nguyen-Beck,  R. Olivares-Amaya,  
 J. A. Parkhill,  Zheng Pei,  T. M. Perrine,  F. Plasser,  P. Pokhilko,  
 S. Prager,  A. Prociuk,  E. Ramos,  D. R. Rehn,  F. Rob,  M. Scheurer,  
 M. Schneider,  N. Sergueev,  S. M. Sharada,  S. Sharma,  D. W. Small,  
 T. Stauch,  T. Stein,  Yu-Chuan Su,  A. J. W. Thom,  A. Tkatchenko,  
 T. Tsuchimochi,  N. M. Tubman,  L. Vogt,  M. L. Vidal,  O. Vydrov,  
 M. A. Watson,  J. Wenzel,  M. de Wergifosse,  T. A. Wesolowski,  A. White,  
 J. Witte,  A. Yamada,  Jun Yang,  K. Yao,  S. Yeganeh,  S. R. Yost,  
 Zhi-Qiang You,  A. Zech,  Igor Ying Zhang,  Xing Zhang,  Yan Zhao,  
 Ying Zhu,  B. R. Brooks,  G. K. L. Chan,  C. J. Cramer,  M. S. Gordon,  
 W. J. Hehre,  A. Klamt,  M. W. Schmidt,  C. D. Sherrill,  D. G. Truhlar,  
 A. Aspuru-Guzik,  R. Baer,  A. T. Bell,  N. A. Besley,  Jeng-Da Chai,  
 A. E. DePrince, III,  R. A. DiStasio Jr.,  A. Dreuw,  B. D. Dunietz,  
 T. R. Furlani,  Chao-Ping Hsu,  Yousung Jung,  Jing Kong,  D. S. Lambrecht,  
 WanZhen Liang,  C. Ochsenfeld,  V. A. Rassolov,  L. V. Slipchenko,  
 J. E. Subotnik,  T. Van Voorhis,  J. M. Herbert,  A. I. Krylov,  
 P. M. W. Gill,  M. Head-Gordon

 Contributors to earlier versions of Q-Chem not listed above: 
 R. D. Adamson,  B. Austin,  J. Baker,  G. J. O. Beran,  K. Brandhorst,  
 S. T. Brown,  E. F. C. Byrd,  A. K. Chakraborty,  C.-L. Cheng,  
 Siu Hung Chien,  D. M. Chipman,  D. L. Crittenden,  H. Dachsel,  
 R. J. Doerksen,  A. D. Dutoi,  L. Fusti-Molnar,  W. A. Goddard III,  
 A. Golubeva-Zadorozhnaya,  S. R. Gwaltney,  G. Hawkins,  A. Heyden,  
 S. Hirata,  G. Kedziora,  F. J. Keil,  C. Kelley,  Jihan Kim,  R. A. King,  
 R. Z. Khaliullin,  P. P. Korambath,  W. Kurlancheek,  A. M. Lee,  M. S. Lee,  
 S. V. Levchenko,  Ching Yeh Lin,  D. Liotard,  R. C. Lochan,  I. Lotan,  
 P. E. Maslen,  N. Nair,  D. P. O'Neill,  D. Neuhauser,  E. Neuscamman,  
 C. M. Oana,  R. Olson,  B. Peters,  R. Peverati,  P. A. Pieniazek,  
 Y. M. Rhee,  J. Ritchie,  M. A. Rohrdanz,  E. Rosta,  N. J. Russ,  
 H. F. Schaefer III,  N. E. Schultz,  N. Shenvi,  A. C. Simmonett,  A. Sodt,  
 D. Stuck,  K. S. Thanthiriwatte,  V. Vanovschi,  Tao Wang,  A. Warshel,  
 C. F. Williams,  Q. Wu,  X. Xu,  W. Zhang

 Please cite Q-Chem as follows:
 Y. Shao et al., Mol. Phys. 113, 184-215 (2015)
 DOI: 10.1080/00268976.2014.952696

 Q-Chem 5.2.0 for Intel X86 EM64T Linux

 Parts of Q-Chem use Armadillo 8.300.2 (Tropical Shenanigans).
 http://arma.sourceforge.net/

 Q-Chem begins on Sun Sep 26 12:51:17 2021  

Host: cori01
0

     Scratch files written to /tmp/qchem10221//
 May1019 |scratch|qcdevops|jenkins|workspace|build_RNUM -1
Processing $rem in /global/common/cori/software/qchem/5.2/config/preferences:
	 MEM_TOTAL  96000 
NAlpha2: 72
NElect   72
Mult     1
Symmetry turned off for PCM/SM12/SMD calculation

 Q-Chem warning in module libgen/rem_setup.C, line 2803:

 Neither GIA nor STOLL is specified by user. Use STOLL as the default


Checking the input file for inconsistencies... 	...done.

--------------------------------------------------------------
User input:
--------------------------------------------------------------
$comment
SSI-099ARG-177ASP-1.pdb
$end

$molecule
0 1
--
1 1
C   -2.943126509641    1.637927047788   -1.519810299468
C   -1.755126509641    0.264927047788    0.189189700532
N   -0.609126509641    0.364927047788   -0.448810299468
N   -2.857126509641    0.830927047788   -0.297810299468
N   -1.809126509641   -0.401072952212    1.309189700532
H   -0.503126509641    0.922927047788   -1.266810299468
H    0.238873490359   -0.054072952212   -0.036810299468
H   -3.702126509641    0.719927047788    0.253189700532
H   -2.677126509641   -0.833072952212    1.538189700532
H   -0.945126509641   -0.811072952212    1.687189700532
H   -1.999126509641    1.634927047788   -2.064810299468
H   -3.148126509641    2.678927047788   -1.253810299468
H   -3.718496509641    1.259607047788   -2.202220299468
--
-1 1
C    3.896873490359   -1.006072952212    0.250189700532
C    2.419873490359   -0.652072952212    0.191189700532
O    2.073873490359    0.544927047788    0.132189700532
O    1.560873490359   -1.562072952212    0.202189700532
H    4.119873490359   -1.746072952212   -0.520810299468
H    4.116873490359   -1.447072952212    1.223189700532
H    4.558403490359   -0.138772952212    0.108179700532
$end

$rem
JOBTYPE			EDA
EDA2			1
method			wB97X-V
BASIS			def2-TZVPD
XC_GRID			000099000590
NL_GRID			1
UNRESTRICTED		FALSE
MAX_SCF_CYCLES		200
SYMMETRY		FALSE
SYM_IGNORE		TRUE
MEM_STATIC		2000
BASIS_LIN_DEP_THRESH 	6
THRESH 			14
SCF_CONVERGENCE 	8
SCF_PRINT_FRGM 		TRUE
SOLVENT_METHOD          PCM
$end

$PCM
THEORY                  CPCM
METHOD                  SWIG
SOLVER                  INVERSION
RADII                   UFF
HPOINTS                 302
HEAVYPOINTS             302
PRINTLEVEL              0
$END

$SOLVENT
DIELECTRIC              78.390000 ! water
$END
--------------------------------------------------------------
 ----------------------------------------------------------------
             Standard Nuclear Orientation (Angstroms)
    I     Atom           X                Y                Z
 ----------------------------------------------------------------
    1      C      -2.9431265096     1.6379270478    -1.5198102995
    2      C      -1.7551265096     0.2649270478     0.1891897005
    3      N      -0.6091265096     0.3649270478    -0.4488102995
    4      N      -2.8571265096     0.8309270478    -0.2978102995
    5      N      -1.8091265096    -0.4010729522     1.3091897005
    6      H      -0.5031265096     0.9229270478    -1.2668102995
    7      H       0.2388734904    -0.0540729522    -0.0368102995
    8      H      -3.7021265096     0.7199270478     0.2531897005
    9      H      -2.6771265096    -0.8330729522     1.5381897005
   10      H      -0.9451265096    -0.8110729522     1.6871897005
   11      H      -1.9991265096     1.6349270478    -2.0648102995
   12      H      -3.1481265096     2.6789270478    -1.2538102995
   13      H      -3.7184965096     1.2596070478    -2.2022202995
   14      C       3.8968734904    -1.0060729522     0.2501897005
   15      C       2.4198734904    -0.6520729522     0.1911897005
   16      O       2.0738734904     0.5449270478     0.1321897005
   17      O       1.5608734904    -1.5620729522     0.2021897005
   18      H       4.1198734904    -1.7460729522    -0.5208102995
   19      H       4.1168734904    -1.4470729522     1.2231897005
   20      H       4.5584034904    -0.1387729522     0.1081797005
 ----------------------------------------------------------------
 Nuclear Repulsion Energy =         455.26270468 hartrees
 There are       36 alpha and       36 beta electrons
 Requested basis set is def2-TZVPD
 There are 174 shells and 438 basis functions

 Total QAlloc Memory Limit  96000 MB
 Mega-Array Size      1956 MB
 MEM_STATIC part      2000 MB
 Discretize the solute cavity surface with Lebedev spheres
	Using 302 Lebedev grid points for each H atom
	Using 302 Lebedev grid points for other atoms
	Atomic van der Waals radii will be scaled by 1.20
 Remove points where switching function is < 1.0e-08
 Keep 2335 surface tesserae and discard 3705 interior tesserae
 Molecular Surface Area = 236.485 Angst**2
 A cutoff of  1.0D-14 yielded  13348 shell pairs
 There are     85118 function pairs (    106891 Cartesian)
 Smallest overlap matrix eigenvalue = 7.52E-06

 Scale SEOQF with 1.000000e-01/1.000000e-01/1.000000e-01

 Standard Electronic Orientation quadrupole field applied
 Nucleus-field energy     =     0.0000000157 hartrees

 -----------------------------------------------------------------------
  General SCF calculation program by
  Eric Jon Sundstrom, Paul Horn, Yuezhi Mao, Dmitri Zuev, Alec White,
  David Stuck, Shaama M.S., Shane Yost, Joonho Lee, David Small,
  Daniel Levine, Susi Lehtola, Hugh Burton, Evgeny Epifanovsky
 -----------------------------------------------------------------------
================================================================
                 ALMO-EDA with the EDA2 driver                  
================================================================
 The second-generation ALMO-EDA (for DFT):                      
 P. R. Horn, Y. Mao and M. Head-Gordon, PCCP, 18, 23067 (2016)  
 Decomposition of the frozen energy:                            
 P. R. Horn, Y. Mao and M. Head-Gordon, JCP, 144, 114107 (2016) 
 FERF model for polarization:                                   
 P. R. Horn and M. Head-Gordon, JCP, 143, 114111 (2015)         
Using eda2 option set 1
Option set summary: Frozen orbital wavefunction, initial wavefunction decomposition, and nDQ polarization.
--------------------------------
Printing EDA Options
--------------------------------
eda_child_super_basis      0
fragmo_guess_mode          0
child_mp                   1
child_mp_orders            232
cls_elec                   1
cls_disp                   0
scfmi_mode                 1
scfmi_occs                 0
scfmi_virts                0
frz_relax                  0
frz_relax_method           0
dc_pen_start               0
dc_pen_conv                0
dc_pen_increment           0
dc_pen_steps               0
dc_pen_thresh_factor       0
dc_pen_pre_newton_thresh   0
frz_ortho_decomp           1
frz_ortho_decomp_conv      6
frgm_method                2
scfmi_freeze_ss            0
separate_rehyb             0
plot_diff_den              0
eda_nocv                   0
eda_vct_relax              1
disp_free_x                0
disp_free_c                0
eda_bsse                   0
eda_pct_a                  0
eda_covp                   0
--------------------------------
Attempting to make child job directory: /tmp/qchem10221//Frg1/
Attempting to make child job directory: /tmp/qchem10221//Frg2/
Creating input file /tmp/qchem10221/Frg1.input
using default PutDataFrgm: nothing
calling putenv with: QCSCRATCH=/tmp/qchem10221/ 
calling putenv with: QCLOCALSCR=/tmp/qchem10221/ 
Spawning Job For Fragment 0
                  Welcome to Q-Chem
     A Quantum Leap Into The Future Of Chemistry


 Q-Chem 5.2, Q-Chem, Inc., Pleasanton, CA (2019)

 License issued to: National Energy Research Scientific Computing Center

 Yihan Shao,  Zhengting Gan,  E. Epifanovsky,  A. T. B. Gilbert,  M. Wormit,  
 J. Kussmann,  A. W. Lange,  A. Behn,  Jia Deng,  Xintian Feng,  D. Ghosh,  
 M. Goldey,  P. R. Horn,  L. D. Jacobson,  I. Kaliman,  T. Kus,  A. Landau,  
 Jie Liu,  E. I. Proynov,  R. M. Richard,  R. P. Steele,  E. J. Sundstrom,  
 H. L. Woodcock III,  P. M. Zimmerman,  D. Zuev,  B. Albrecht,  E. Alguire,  
 S. A. Baeppler,  D. Barton,  Z. Benda,  Y. A. Bernard,  E. J. Berquist,  
 K. B. Bravaya,  H. Burton,  D. Casanova,  Chun-Min Chang,  Yunqing Chen,  
 A. Chien,  K. D. Closser,  M. P. Coons,  S. Coriani,  S. Dasgupta,  
 A. L. Dempwolff,  M. Diedenhofen,  Hainam Do,  R. G. Edgar,  Po-Tung Fang,  
 S. Faraji,  S. Fatehi,  Qingguo Feng,  K. D. Fenk,  J. Fosso-Tande,  
 J. Gayvert,  Qinghui Ge,  A. Ghysels,  G. Gidofalvi,  J. Gomes,  
 J. Gonthier,  A. Gunina,  D. Hait,  M. W. D. Hanson-Heine,  
 P. H. P. Harbach,  A. W. Hauser,  M. F. Herbst,  J. E. Herr,  
 E. G. Hohenstein,  Z. C. Holden,  Kerwin Hui,  B. C. Huynh,  T.-C. Jagau,  
 Hyunjun Ji,  B. Kaduk,  K. Khistyaev,  Jaehoon Kim,  P. Klunzinger,  K. Koh,  
 D. Kosenkov,  L. Koulias,  T. Kowalczyk,  C. M. Krauter,  A. Kunitsa,  
 Ka Un Lao,  A. Laurent,  K. V. Lawler,  Joonho Lee,  D. Lefrancois,  
 S. Lehtola,  D. S. Levine,  Yi-Pei Li,  You-Sheng Lin,  Fenglai Liu,  
 E. Livshits,  A. Luenser,  P. Manohar,  E. Mansoor,  S. F. Manzer,  
 Shan-Ping Mao,  Yuezhi Mao,  N. Mardirossian,  A. V. Marenich,  
 T. Markovich,  L. A. Martinez-Martinez,  S. A. Maurer,  N. J. Mayhall,  
 S. C. McKenzie,  J.-M. Mewes,  P. Morgante,  A. F. Morrison,  
 J. W. Mullinax,  K. Nanda,  T. S. Nguyen-Beck,  R. Olivares-Amaya,  
 J. A. Parkhill,  Zheng Pei,  T. M. Perrine,  F. Plasser,  P. Pokhilko,  
 S. Prager,  A. Prociuk,  E. Ramos,  D. R. Rehn,  F. Rob,  M. Scheurer,  
 M. Schneider,  N. Sergueev,  S. M. Sharada,  S. Sharma,  D. W. Small,  
 T. Stauch,  T. Stein,  Yu-Chuan Su,  A. J. W. Thom,  A. Tkatchenko,  
 T. Tsuchimochi,  N. M. Tubman,  L. Vogt,  M. L. Vidal,  O. Vydrov,  
 M. A. Watson,  J. Wenzel,  M. de Wergifosse,  T. A. Wesolowski,  A. White,  
 J. Witte,  A. Yamada,  Jun Yang,  K. Yao,  S. Yeganeh,  S. R. Yost,  
 Zhi-Qiang You,  A. Zech,  Igor Ying Zhang,  Xing Zhang,  Yan Zhao,  
 Ying Zhu,  B. R. Brooks,  G. K. L. Chan,  C. J. Cramer,  M. S. Gordon,  
 W. J. Hehre,  A. Klamt,  M. W. Schmidt,  C. D. Sherrill,  D. G. Truhlar,  
 A. Aspuru-Guzik,  R. Baer,  A. T. Bell,  N. A. Besley,  Jeng-Da Chai,  
 A. E. DePrince, III,  R. A. DiStasio Jr.,  A. Dreuw,  B. D. Dunietz,  
 T. R. Furlani,  Chao-Ping Hsu,  Yousung Jung,  Jing Kong,  D. S. Lambrecht,  
 WanZhen Liang,  C. Ochsenfeld,  V. A. Rassolov,  L. V. Slipchenko,  
 J. E. Subotnik,  T. Van Voorhis,  J. M. Herbert,  A. I. Krylov,  
 P. M. W. Gill,  M. Head-Gordon

 Contributors to earlier versions of Q-Chem not listed above: 
 R. D. Adamson,  B. Austin,  J. Baker,  G. J. O. Beran,  K. Brandhorst,  
 S. T. Brown,  E. F. C. Byrd,  A. K. Chakraborty,  C.-L. Cheng,  
 Siu Hung Chien,  D. M. Chipman,  D. L. Crittenden,  H. Dachsel,  
 R. J. Doerksen,  A. D. Dutoi,  L. Fusti-Molnar,  W. A. Goddard III,  
 A. Golubeva-Zadorozhnaya,  S. R. Gwaltney,  G. Hawkins,  A. Heyden,  
 S. Hirata,  G. Kedziora,  F. J. Keil,  C. Kelley,  Jihan Kim,  R. A. King,  
 R. Z. Khaliullin,  P. P. Korambath,  W. Kurlancheek,  A. M. Lee,  M. S. Lee,  
 S. V. Levchenko,  Ching Yeh Lin,  D. Liotard,  R. C. Lochan,  I. Lotan,  
 P. E. Maslen,  N. Nair,  D. P. O'Neill,  D. Neuhauser,  E. Neuscamman,  
 C. M. Oana,  R. Olson,  B. Peters,  R. Peverati,  P. A. Pieniazek,  
 Y. M. Rhee,  J. Ritchie,  M. A. Rohrdanz,  E. Rosta,  N. J. Russ,  
 H. F. Schaefer III,  N. E. Schultz,  N. Shenvi,  A. C. Simmonett,  A. Sodt,  
 D. Stuck,  K. S. Thanthiriwatte,  V. Vanovschi,  Tao Wang,  A. Warshel,  
 C. F. Williams,  Q. Wu,  X. Xu,  W. Zhang

 Please cite Q-Chem as follows:
 Y. Shao et al., Mol. Phys. 113, 184-215 (2015)
 DOI: 10.1080/00268976.2014.952696

 Q-Chem 5.2.0 for Intel X86 EM64T Linux

 Parts of Q-Chem use Armadillo 8.300.2 (Tropical Shenanigans).
 http://arma.sourceforge.net/

 Q-Chem begins on Sun Sep 26 12:51:21 2021  

Host: cori01
0

     Scratch files written to /tmp/qchem10221//Frg1//
 May1019 |scratch|qcdevops|jenkins|workspace|build_RNUM -1
Processing $rem in /global/common/cori/software/qchem/5.2/config/preferences:
	 MEM_TOTAL  96000 
NAlpha2: 40
NElect   40
Mult     1
Symmetry turned off for PCM/SM12/SMD calculation

Checking the input file for inconsistencies... 	...done.

--------------------------------------------------------------
User input:
--------------------------------------------------------------
$molecule
1 1
 6	-2.9431265096	1.6379270478	-1.5198102995
 6	-1.7551265096	0.2649270478	0.1891897005
 7	-0.6091265096	0.3649270478	-0.4488102995
 7	-2.8571265096	0.8309270478	-0.2978102995
 7	-1.8091265096	-0.4010729522	1.3091897005
 1	-0.5031265096	0.9229270478	-1.2668102995
 1	0.2388734904	-0.0540729522	-0.0368102995
 1	-3.7021265096	0.7199270478	0.2531897005
 1	-2.6771265096	-0.8330729522	1.5381897005
 1	-0.9451265096	-0.8110729522	1.6871897005
 1	-1.9991265096	1.6349270478	-2.0648102995
 1	-3.1481265096	2.6789270478	-1.2538102995
 1	-3.7184965096	1.2596070478	-2.2022202995
$end
$rem
EDA2		1
METHOD		WB97X-V
BASIS		DEF2-TZVPD
XC_GRID		000099000590
NL_GRID		1
UNRESTRICTED		FALSE
MAX_SCF_CYCLES		200
SYMMETRY		FALSE
SYM_IGNORE		TRUE
BASIS_LIN_DEP_THRESH		6
THRESH		14
SCF_CONVERGENCE		8
SCF_PRINT_FRGM		TRUE
SOLVENT_METHOD		PCM
!required keywords
JOBTYPE		SP
SYM_IGNORE		TRUE
SUBSYSTEM		TRUE
GEN_SCFMAN		TRUE
CHILD_INSTRUCTION		2
SYM_IGNORE		TRUE
SCFMI		0
RI_K 0		
PARI_K 0		
MIN_PARI_K 0		
IARI_K 0		
OCC_RI_K 0		
PURECART		1111
MEM_STATIC		2000
MEM_TOTAL		96000
GUI		0
CHILD_MP		1
CHILD_MP_ORDERS		232
FRZ_RELAX		0
FRZ_RELAX_METHOD		0
EDA_CLS_ELEC		1
EDA_CLS_DISP		0
FRZ_ORTHO_DECOMP		1
EDA2		FALSE
FRGM_METHOD		FALSE
CIS_N_ROOTS  0
LOCAL_CIS    0
CIS_RLX_DNS  1
$end
$pcm
THEORY                  CPCM
METHOD                  SWIG
SOLVER                  INVERSION
RADII                   UFF
HPOINTS                 302
HEAVYPOINTS             302
PRINTLEVEL              0
$end
$solvent
DIELECTRIC              78.390000 ! water
$end
--------------------------------------------------------------
 ----------------------------------------------------------------
             Standard Nuclear Orientation (Angstroms)
    I     Atom           X                Y                Z
 ----------------------------------------------------------------
    1      C      -2.9431265096     1.6379270478    -1.5198102995
    2      C      -1.7551265096     0.2649270478     0.1891897005
    3      N      -0.6091265096     0.3649270478    -0.4488102995
    4      N      -2.8571265096     0.8309270478    -0.2978102995
    5      N      -1.8091265096    -0.4010729522     1.3091897005
    6      H      -0.5031265096     0.9229270478    -1.2668102995
    7      H       0.2388734904    -0.0540729522    -0.0368102995
    8      H      -3.7021265096     0.7199270478     0.2531897005
    9      H      -2.6771265096    -0.8330729522     1.5381897005
   10      H      -0.9451265096    -0.8110729522     1.6871897005
   11      H      -1.9991265096     1.6349270478    -2.0648102995
   12      H      -3.1481265096     2.6789270478    -1.2538102995
   13      H      -3.7184965096     1.2596070478    -2.2022202995
 ----------------------------------------------------------------
 Nuclear Repulsion Energy =         194.34203360 hartrees
 There are       20 alpha and       20 beta electrons
 Requested basis set is def2-TZVPD
 There are 105 shells and 257 basis functions

 Total QAlloc Memory Limit  96000 MB
 Mega-Array Size      1956 MB
 MEM_STATIC part      2000 MB
 Discretize the solute cavity surface with Lebedev spheres
	Using 302 Lebedev grid points for each H atom
	Using 302 Lebedev grid points for other atoms
	Atomic van der Waals radii will be scaled by 1.20
 Remove points where switching function is < 1.0e-08
 Keep 1568 surface tesserae and discard 2358 interior tesserae
 Molecular Surface Area = 151.954 Angst**2

                       Distance Matrix (Angstroms)
             C (  1)   C (  2)   N (  3)   N (  4)   N (  5)   H (  6)
   C (  2)  2.493422
   N (  3)  2.866204  1.315431
   N (  4)  1.466945  1.331138  2.300752
   N (  5)  3.666977  1.304175  2.262149  2.280039
   H (  6)  2.555158  2.029878  0.995853  2.547301  3.177167
   H (  7)  3.897086  2.031963  1.031702  3.230567  2.475162  1.737237
   H (  8)  2.135962  2.000482  3.191470  1.014863  2.440333  3.547564
   H (  9)  3.940553  1.968626  3.108054  2.484390  0.996237  3.959525
   H ( 10)  4.502716  2.014418  2.461375  3.208135  1.028338  3.453728
   H ( 11)  1.090032  2.648953  2.481221  2.122468  3.945285  1.838957
   H ( 12)  1.093829  3.138486  3.528334  2.100886  4.224724  3.174859
   H ( 13)  1.100004  3.250085  3.680092  2.133659  4.328227  3.365553
             H (  7)   H (  8)   H (  9)   H ( 10)   H ( 11)   H ( 12)
   H (  8)  4.026743
   H (  9)  3.404486  2.261340
   H ( 10)  2.224203  3.464299  1.738536
   H ( 11)  3.460368  3.018370  4.419538  4.601232
   H ( 12)  4.519087  2.532913  4.511236  5.067819  1.751530
   H ( 13)  4.698461  2.514073  4.410717  5.206420  1.765214  1.799798

 
 A cutoff of  1.0D-14 yielded   5441 shell pairs
 There are     33171 function pairs (     41505 Cartesian)
 Smallest overlap matrix eigenvalue = 1.50E-05

 Scale SEOQF with 1.000000e-01/1.000000e-01/1.000000e-01

 Standard Electronic Orientation quadrupole field applied
 Nucleus-field energy     =     0.0000000050 hartrees
 Guess from superposition of atomic densities
 Warning:  Energy on first SCF cycle will be non-variational
 SAD guess density has 40.388232 electrons

 -----------------------------------------------------------------------
  General SCF calculation program by
  Eric Jon Sundstrom, Paul Horn, Yuezhi Mao, Dmitri Zuev, Alec White,
  David Stuck, Shaama M.S., Shane Yost, Joonho Lee, David Small,
  Daniel Levine, Susi Lehtola, Hugh Burton, Evgeny Epifanovsky
 -----------------------------------------------------------------------
 Exchange:     0.1670 Hartree-Fock + 1.0000 wB97X-V + LR-HF
 Correlation:  1.0000 wB97X-V
 Using Euler-Maclaurin-Lebedev (99,590) quadrature formula
 Nonlocal Correlation:  VV10 with C = 0.0100 and b = 6.00 and scale = 1.00000
 Grid used for NLC:  SG-1 standard quadrature
Energy prior to optimization (guess energy) = -244.718797205218
Begin Timing: Total SCF Calculation
begin iterations for algorithm: DIIS         
the SCF tolerance is set to 1.00e-08
    1    -244.7187972052      7.94e-03     00000 
    2    -244.9347403274      6.23e-03     00000 
    3    -245.1746157746      3.09e-04     00000 
    4    -245.1752364328      1.83e-04     00000 
    5    -245.1754623889      3.65e-05     00000 
    6    -245.1754729812      1.35e-05     00000 
    7    -245.1754746452      2.60e-06     00000 
    8    -245.1754747543      8.80e-07     00000 
    9    -245.1754747685      4.04e-07     00000 
   10    -245.1754747708      1.14e-07     00000 
   11    -245.1754747711      4.95e-08     00000 
   12    -245.1754747711      1.08e-08     00000 
   13    -245.1754747711      1.94e-09     00000 Convergence criterion met
Timing for Total SCF: 778.00s (wall), 1538.37s (cpu)

************** Final PCM Free Energy Summary **************
 G_electrostatic  =      -0.08176411 hartree =     -51.30775080 kcal/mol
 G_cavitation     =       0.00000000 hartree =       0.00000000 kcal/mol
 G_dispersion     =       0.00000000 hartree =       0.00000000 kcal/mol
 G_repulsion      =       0.00000000 hartree =       0.00000000 kcal/mol
 --------------------------------------------------
 Non-electrostatic Free Energy =       0.00000000 hartree =       0.00000000 kcal/mol
 Total                         =      -0.08176411 hartree =     -51.30775080 kcal/mol
 --------------------------------------------------
 SCF Energy (H0 + V/2)                       =    -245.17547477 
 Solute Internal Energy (H0)                 =    -245.09371067 
 Total Free Energy (H0 + V/2 + non-elec)     =    -245.17547477 hartree
                                             = -153849.93247578 kcal/mol
***********************************************************

E_pcm = -0.0817641058
Multipole orders to be included
        2
        3
computing dipole RHS
computing quadrupole RHS
total number of RHS in solve_reponses: 8
RHS batch sizes
        8
Beginning Block Conjugate Gradient Iterations. Batch Number: 0
computing hessian-vector products by finite difference
              1      4.54e-01     00000 Conjugate Gradient Iteration
computing hessian-vector products by finite difference
              2      1.80e-01     00000 Conjugate Gradient Iteration
computing hessian-vector products by finite difference
              3      4.82e-02     00000 Conjugate Gradient Iteration
computing hessian-vector products by finite difference
              4      1.23e-02     00000 Conjugate Gradient Iteration
computing hessian-vector products by finite difference
              5      1.79e-03     00000 Conjugate Gradient Iteration
computing hessian-vector products by finite difference
              6      2.65e-04     00000 Conjugate Gradient Iteration
computing hessian-vector products by finite difference
              7      3.83e-05     00000 Conjugate Gradient Iteration
computing hessian-vector products by finite difference
              8      7.24e-06     00000 Conjugate Gradient Iteration
computing hessian-vector products by finite difference
              9      1.85e-06     00000 Conjugate Gradient Iteration
computing hessian-vector products by finite difference
             10      3.35e-07     00000 Conjugate Gradient Iteration
computing hessian-vector products by finite difference
             11      3.82e-08     00000 Conjugate Gradient Iteration
computing hessian-vector products by finite difference
             12      4.24e-09     00000 CG Converged
batch 0 complete
Done Calculating Responses
TESTING ORTHOGONALIZATION OF MULTIPOLE BASIS
Multipole virts passed orthogonality test
Virts Per Order
           60
          100
 
 --------------------------------------------------------------
 
                    Orbital Energies (a.u.)
 --------------------------------------------------------------
 
 Alpha MOs
 -- Occupied --
-14.4830 -14.4775 -14.4737 -10.4486 -10.3318  -1.2040  -1.0831  -1.0735
 -0.8787  -0.7948  -0.7524  -0.7165  -0.6537  -0.6392  -0.6127  -0.5981
 -0.5523  -0.5324  -0.4289  -0.4019
 -- Virtual --
  0.0479   0.0752   0.0772   0.0871   0.1152   0.1170   0.1243   0.1417
  0.1572   0.1705   0.1798   0.1824   0.1890   0.2013   0.2075   0.2172
  0.2315   0.2350   0.2381   0.2528   0.2686   0.2756   0.2912   0.2947
  0.2986   0.2995   0.3047   0.3122   0.3182   0.3356   0.3397   0.3493
  0.3564   0.3579   0.3651   0.3740   0.3971   0.4051   0.4093   0.4188
  0.4273   0.4349   0.4447   0.4578   0.4643   0.4710   0.4773   0.4913
  0.4985   0.5039   0.5098   0.5137   0.5211   0.5258   0.5366   0.5406
  0.5443   0.5541   0.5707   0.5824   0.5855   0.6180   0.6230   0.6369
  0.6439   0.6640   0.6795   0.6880   0.7003   0.7065   0.7287   0.7503
  0.7812   0.7889   0.7929   0.8007   0.8128   0.8202   0.8372   0.8435
  0.8608   0.8645   0.8784   0.9092   0.9195   0.9386   0.9611   0.9751
  0.9958   1.0354   1.0460   1.0672   1.0851   1.0929   1.1017   1.1324
  1.1484   1.1786   1.2079   1.2218   1.2578   1.3177   1.3572   1.4081
  1.4146   1.4166   1.4627   1.4786   1.5419   1.5809   1.6185   1.6290
  1.6683   1.6910   1.7230   1.7342   1.7873   1.8152   1.8500   1.8618
  1.8774   1.8928   1.9249   1.9495   1.9727   1.9938   2.0053   2.0393
  2.0597   2.0738   2.0873   2.1700   2.2034   2.2043   2.2204   2.2480
  2.3034   2.3486   2.3513   2.3863   2.4238   2.4665   2.4833   2.5180
  2.5613   2.5713   2.5790   2.6151   2.6176   2.6489   2.6869   2.7049
  2.7126   2.8066   2.8154   2.8381   2.8632   2.8924   2.9062   2.9378
  3.0283   3.0733   3.1075   3.1237   3.1333   3.1917   3.2039   3.2171
  3.2550   3.2662   3.2730   3.3026   3.3362   3.3483   3.4170   3.4361
  3.4532   3.4744   3.4964   3.5465   3.6166   3.6611   3.6949   3.7087
  3.7463   3.8645   3.8770   3.9062   3.9455   4.0620   4.1099   4.1877
  4.2447   4.2672   4.3260   4.3949   4.4970   4.5331   4.5544   4.6044
  4.6406   4.7962   4.8313   4.8662   4.8910   4.9601   4.9725   5.0209
  5.0688   5.0941   5.1192   5.1588   5.1747   5.2115   5.2539   5.2934
  5.3503   5.3690   5.4420   5.4476   5.4638   5.5279   5.5699   5.6186
  5.6669   5.7141   5.7817   5.8976   6.1172   6.1676   6.3153   6.4742
 22.6176  23.6572  32.3120  32.4225  32.7985
 --------------------------------------------------------------
 
          Ground-State Mulliken Net Atomic Charges

     Atom                 Charge (a.u.)
  ----------------------------------------
      1 C                    -0.709999
      2 C                     0.561067
      3 N                    -0.224133
      4 N                    -0.101525
      5 N                    -0.279341
      6 H                     0.111847
      7 H                     0.213997
      8 H                     0.209598
      9 H                     0.229159
     10 H                     0.228319
     11 H                     0.266402
     12 H                     0.252090
     13 H                     0.242518
  ----------------------------------------
  Sum of atomic charges =     1.000000

 -----------------------------------------------------------------
                    Cartesian Multipole Moments
 -----------------------------------------------------------------
    Charge (ESU x 10^10)
                 4.8032
    Dipole Moment (Debye)
         X      -8.5896      Y       1.2789      Z       0.0860
       Tot       8.6847
    Quadrupole Moments (Debye-Ang)
        XX      -0.7583     XY      -4.8330     YY     -24.9626
        XZ      -0.1219     YZ      -8.0851     ZZ     -21.4817
    Octopole Moments (Debye-Ang^2)
       XXX      79.8014    XXY      -0.3355    XYY      46.9632
       YYY     -45.4455    XXZ       6.8659    XYZ      14.8657
       YYZ       2.2074    XZZ      44.3326    YZZ     -15.7360
       ZZZ      15.5998
    Hexadecapole Moments (Debye-Ang^3)
      XXXX    -556.1120   XXXY      78.6401   XXYY    -145.3693
      XYYY     120.3073   YYYY    -177.6878   XXXZ     -68.7678
      XXYZ     -13.1868   XYYZ     -11.4746   YYYZ      62.0032
      XXZZ    -142.4671   XYZZ      42.0376   YYZZ     -55.4021
      XZZZ     -53.9585   YZZZ      51.6277   ZZZZ    -202.6537
 -----------------------------------------------------------------
Archival summary:
1\1\nid00533\SP\ProcedureUnspecified\BasisUnspecified\328(1+,1)\meili\SunSep2616:46:402021SunSep2616:46:402021\0\\#,ProcedureUnspecified,BasisUnspecified,\\1,1\C\N,1,1.30417\H,2,0.996237,1,117.06\H,2,1.02834,1,118.979,3,153.152,0\N,1,1.31543,2,119.433,3,-151.246,0\H,5,0.995853,1,122.257,2,-174.974,0\H,5,1.0317,1,119.44,2,-2.31455,0\N,1,1.33114,2,119.805,3,28.5242,0\H,8,1.01486,1,116.37,2,0.825098,0\C,8,1.46695,1,125.959,2,178.193,0\H,10,1.09003,8,111.359,1,6.44617,0\H,10,1.09383,8,109.388,1,-111.184,0\H,10,1.1,8,111.648,1,126.513,0\\\@

 Total job time:  14120.34s(wall), 27969.69s(cpu) 
 Sun Sep 26 16:46:41 2021

        *************************************************************
        *                                                           *
        *  Thank you very much for using Q-Chem.  Have a nice day.  *
        *                                                           *
        *************************************************************


Done Job For Fragment 0
calling putenv with: QCSCRATCH=/global/cscratch1/sd/meili 
calling putenv with: QCLOCALSCR=/tmp 
calling putenv with: QCTHREADS=32 
Creating input file /tmp/qchem10221/Frg2.input
using default PutDataFrgm: nothing
calling putenv with: QCSCRATCH=/tmp/qchem10221/ 
calling putenv with: QCLOCALSCR=/tmp/qchem10221/ 
Spawning Job For Fragment 1
                  Welcome to Q-Chem
     A Quantum Leap Into The Future Of Chemistry


 Q-Chem 5.2, Q-Chem, Inc., Pleasanton, CA (2019)

 License issued to: National Energy Research Scientific Computing Center

 Yihan Shao,  Zhengting Gan,  E. Epifanovsky,  A. T. B. Gilbert,  M. Wormit,  
 J. Kussmann,  A. W. Lange,  A. Behn,  Jia Deng,  Xintian Feng,  D. Ghosh,  
 M. Goldey,  P. R. Horn,  L. D. Jacobson,  I. Kaliman,  T. Kus,  A. Landau,  
 Jie Liu,  E. I. Proynov,  R. M. Richard,  R. P. Steele,  E. J. Sundstrom,  
 H. L. Woodcock III,  P. M. Zimmerman,  D. Zuev,  B. Albrecht,  E. Alguire,  
 S. A. Baeppler,  D. Barton,  Z. Benda,  Y. A. Bernard,  E. J. Berquist,  
 K. B. Bravaya,  H. Burton,  D. Casanova,  Chun-Min Chang,  Yunqing Chen,  
 A. Chien,  K. D. Closser,  M. P. Coons,  S. Coriani,  S. Dasgupta,  
 A. L. Dempwolff,  M. Diedenhofen,  Hainam Do,  R. G. Edgar,  Po-Tung Fang,  
 S. Faraji,  S. Fatehi,  Qingguo Feng,  K. D. Fenk,  J. Fosso-Tande,  
 J. Gayvert,  Qinghui Ge,  A. Ghysels,  G. Gidofalvi,  J. Gomes,  
 J. Gonthier,  A. Gunina,  D. Hait,  M. W. D. Hanson-Heine,  
 P. H. P. Harbach,  A. W. Hauser,  M. F. Herbst,  J. E. Herr,  
 E. G. Hohenstein,  Z. C. Holden,  Kerwin Hui,  B. C. Huynh,  T.-C. Jagau,  
 Hyunjun Ji,  B. Kaduk,  K. Khistyaev,  Jaehoon Kim,  P. Klunzinger,  K. Koh,  
 D. Kosenkov,  L. Koulias,  T. Kowalczyk,  C. M. Krauter,  A. Kunitsa,  
 Ka Un Lao,  A. Laurent,  K. V. Lawler,  Joonho Lee,  D. Lefrancois,  
 S. Lehtola,  D. S. Levine,  Yi-Pei Li,  You-Sheng Lin,  Fenglai Liu,  
 E. Livshits,  A. Luenser,  P. Manohar,  E. Mansoor,  S. F. Manzer,  
 Shan-Ping Mao,  Yuezhi Mao,  N. Mardirossian,  A. V. Marenich,  
 T. Markovich,  L. A. Martinez-Martinez,  S. A. Maurer,  N. J. Mayhall,  
 S. C. McKenzie,  J.-M. Mewes,  P. Morgante,  A. F. Morrison,  
 J. W. Mullinax,  K. Nanda,  T. S. Nguyen-Beck,  R. Olivares-Amaya,  
 J. A. Parkhill,  Zheng Pei,  T. M. Perrine,  F. Plasser,  P. Pokhilko,  
 S. Prager,  A. Prociuk,  E. Ramos,  D. R. Rehn,  F. Rob,  M. Scheurer,  
 M. Schneider,  N. Sergueev,  S. M. Sharada,  S. Sharma,  D. W. Small,  
 T. Stauch,  T. Stein,  Yu-Chuan Su,  A. J. W. Thom,  A. Tkatchenko,  
 T. Tsuchimochi,  N. M. Tubman,  L. Vogt,  M. L. Vidal,  O. Vydrov,  
 M. A. Watson,  J. Wenzel,  M. de Wergifosse,  T. A. Wesolowski,  A. White,  
 J. Witte,  A. Yamada,  Jun Yang,  K. Yao,  S. Yeganeh,  S. R. Yost,  
 Zhi-Qiang You,  A. Zech,  Igor Ying Zhang,  Xing Zhang,  Yan Zhao,  
 Ying Zhu,  B. R. Brooks,  G. K. L. Chan,  C. J. Cramer,  M. S. Gordon,  
 W. J. Hehre,  A. Klamt,  M. W. Schmidt,  C. D. Sherrill,  D. G. Truhlar,  
 A. Aspuru-Guzik,  R. Baer,  A. T. Bell,  N. A. Besley,  Jeng-Da Chai,  
 A. E. DePrince, III,  R. A. DiStasio Jr.,  A. Dreuw,  B. D. Dunietz,  
 T. R. Furlani,  Chao-Ping Hsu,  Yousung Jung,  Jing Kong,  D. S. Lambrecht,  
 WanZhen Liang,  C. Ochsenfeld,  V. A. Rassolov,  L. V. Slipchenko,  
 J. E. Subotnik,  T. Van Voorhis,  J. M. Herbert,  A. I. Krylov,  
 P. M. W. Gill,  M. Head-Gordon

 Contributors to earlier versions of Q-Chem not listed above: 
 R. D. Adamson,  B. Austin,  J. Baker,  G. J. O. Beran,  K. Brandhorst,  
 S. T. Brown,  E. F. C. Byrd,  A. K. Chakraborty,  C.-L. Cheng,  
 Siu Hung Chien,  D. M. Chipman,  D. L. Crittenden,  H. Dachsel,  
 R. J. Doerksen,  A. D. Dutoi,  L. Fusti-Molnar,  W. A. Goddard III,  
 A. Golubeva-Zadorozhnaya,  S. R. Gwaltney,  G. Hawkins,  A. Heyden,  
 S. Hirata,  G. Kedziora,  F. J. Keil,  C. Kelley,  Jihan Kim,  R. A. King,  
 R. Z. Khaliullin,  P. P. Korambath,  W. Kurlancheek,  A. M. Lee,  M. S. Lee,  
 S. V. Levchenko,  Ching Yeh Lin,  D. Liotard,  R. C. Lochan,  I. Lotan,  
 P. E. Maslen,  N. Nair,  D. P. O'Neill,  D. Neuhauser,  E. Neuscamman,  
 C. M. Oana,  R. Olson,  B. Peters,  R. Peverati,  P. A. Pieniazek,  
 Y. M. Rhee,  J. Ritchie,  M. A. Rohrdanz,  E. Rosta,  N. J. Russ,  
 H. F. Schaefer III,  N. E. Schultz,  N. Shenvi,  A. C. Simmonett,  A. Sodt,  
 D. Stuck,  K. S. Thanthiriwatte,  V. Vanovschi,  Tao Wang,  A. Warshel,  
 C. F. Williams,  Q. Wu,  X. Xu,  W. Zhang

 Please cite Q-Chem as follows:
 Y. Shao et al., Mol. Phys. 113, 184-215 (2015)
 DOI: 10.1080/00268976.2014.952696

 Q-Chem 5.2.0 for Intel X86 EM64T Linux

 Parts of Q-Chem use Armadillo 8.300.2 (Tropical Shenanigans).
 http://arma.sourceforge.net/

 Q-Chem begins on Sun Sep 26 16:46:43 2021  

Host: cori01
0

     Scratch files written to /tmp/qchem10221//Frg2//
 May1019 |scratch|qcdevops|jenkins|workspace|build_RNUM -1
Processing $rem in /global/common/cori/software/qchem/5.2/config/preferences:
	 MEM_TOTAL  96000 
NAlpha2: 32
NElect   32
Mult     1
Symmetry turned off for PCM/SM12/SMD calculation

Checking the input file for inconsistencies... 	...done.

--------------------------------------------------------------
User input:
--------------------------------------------------------------
$molecule
-1 1
 6	3.8968734904	-1.0060729522	0.2501897005
 6	2.4198734904	-0.6520729522	0.1911897005
 8	2.0738734904	0.5449270478	0.1321897005
 8	1.5608734904	-1.5620729522	0.2021897005
 1	4.1198734904	-1.7460729522	-0.5208102995
 1	4.1168734904	-1.4470729522	1.2231897005
 1	4.5584034904	-0.1387729522	0.1081797005
$end
$rem
EDA2		1
METHOD		WB97X-V
BASIS		DEF2-TZVPD
XC_GRID		000099000590
NL_GRID		1
UNRESTRICTED		FALSE
MAX_SCF_CYCLES		200
SYMMETRY		FALSE
SYM_IGNORE		TRUE
BASIS_LIN_DEP_THRESH		6
THRESH		14
SCF_CONVERGENCE		8
SCF_PRINT_FRGM		TRUE
SOLVENT_METHOD		PCM
!required keywords
JOBTYPE		SP
SYM_IGNORE		TRUE
SUBSYSTEM		TRUE
GEN_SCFMAN		TRUE
CHILD_INSTRUCTION		2
SYM_IGNORE		TRUE
SCFMI		0
RI_K 0		
PARI_K 0		
MIN_PARI_K 0		
IARI_K 0		
OCC_RI_K 0		
PURECART		1111
MEM_STATIC		2000
MEM_TOTAL		96000
GUI		0
CHILD_MP		1
CHILD_MP_ORDERS		232
FRZ_RELAX		0
FRZ_RELAX_METHOD		0
EDA_CLS_ELEC		1
EDA_CLS_DISP		0
FRZ_ORTHO_DECOMP		1
EDA2		FALSE
FRGM_METHOD		FALSE
CIS_N_ROOTS  0
LOCAL_CIS    0
CIS_RLX_DNS  1
$end
$pcm
THEORY                  CPCM
METHOD                  SWIG
SOLVER                  INVERSION
RADII                   UFF
HPOINTS                 302
HEAVYPOINTS             302
PRINTLEVEL              0
$end
$solvent
DIELECTRIC              78.390000 ! water
$end
--------------------------------------------------------------
 ----------------------------------------------------------------
             Standard Nuclear Orientation (Angstroms)
    I     Atom           X                Y                Z
 ----------------------------------------------------------------
    1      C       3.8968734904    -1.0060729522     0.2501897005
    2      C       2.4198734904    -0.6520729522     0.1911897005
    3      O       2.0738734904     0.5449270478     0.1321897005
    4      O       1.5608734904    -1.5620729522     0.2021897005
    5      H       4.1198734904    -1.7460729522    -0.5208102995
    6      H       4.1168734904    -1.4470729522     1.2231897005
    7      H       4.5584034904    -0.1387729522     0.1081797005
 ----------------------------------------------------------------
 Nuclear Repulsion Energy =         112.76307100 hartrees
 There are       16 alpha and       16 beta electrons
 Requested basis set is def2-TZVPD
 There are 69 shells and 181 basis functions

 Total QAlloc Memory Limit  96000 MB
 Mega-Array Size      1956 MB
 MEM_STATIC part      2000 MB
 Discretize the solute cavity surface with Lebedev spheres
	Using 302 Lebedev grid points for each H atom
	Using 302 Lebedev grid points for other atoms
	Atomic van der Waals radii will be scaled by 1.20
 Remove points where switching function is < 1.0e-08
 Keep 1019 surface tesserae and discard 1095 interior tesserae
 Molecular Surface Area = 119.980 Angst**2

                       Distance Matrix (Angstroms)
             C (  1)   C (  2)   O (  3)   O (  4)   H (  5)   H (  6)
   C (  2)  1.519976
   O (  3)  2.396425  1.247400
   O (  4)  2.401736  1.251440  2.169682
   H (  5)  1.091682  2.143311  3.140256  2.665533
   H (  6)  1.090692  2.139359  3.054864  2.754778  1.769448
   H (  7)  1.099999  2.200836  2.576997  3.319609  1.780829  1.774780

 
 A cutoff of  1.0D-14 yielded   2391 shell pairs
 There are     16695 function pairs (     21491 Cartesian)
 Smallest overlap matrix eigenvalue = 1.61E-05

 Scale SEOQF with 1.000000e-01/1.000000e-01/1.000000e-01

 Standard Electronic Orientation quadrupole field applied
 Nucleus-field energy     =     0.0000000106 hartrees
 Guess from superposition of atomic densities
 Warning:  Energy on first SCF cycle will be non-variational
 SAD guess density has 30.625312 electrons

 -----------------------------------------------------------------------
  General SCF calculation program by
  Eric Jon Sundstrom, Paul Horn, Yuezhi Mao, Dmitri Zuev, Alec White,
  David Stuck, Shaama M.S., Shane Yost, Joonho Lee, David Small,
  Daniel Levine, Susi Lehtola, Hugh Burton, Evgeny Epifanovsky
 -----------------------------------------------------------------------
 Exchange:     0.1670 Hartree-Fock + 1.0000 wB97X-V + LR-HF
 Correlation:  1.0000 wB97X-V
 Using Euler-Maclaurin-Lebedev (99,590) quadrature formula
 Nonlocal Correlation:  VV10 with C = 0.0100 and b = 6.00 and scale = 1.00000
 Grid used for NLC:  SG-1 standard quadrature
Energy prior to optimization (guess energy) = -227.754562878490
Begin Timing: Total SCF Calculation
begin iterations for algorithm: DIIS         
the SCF tolerance is set to 1.00e-08
    1    -227.7545628785      1.67e-02     00000 
    2    -225.5132706061      2.58e-02     00000 
    3    -228.5743879621      4.16e-03     00000 
    4    -228.6340247013      1.45e-03     00000 
    5    -228.6404904882      3.54e-04     00000 
    6    -228.6408038707      2.57e-04     00000 
    7    -228.6409892142      4.79e-05     00000 
    8    -228.6410002871      1.46e-05     00000 
    9    -228.6410017162      3.02e-06     00000 
   10    -228.6410018277      4.77e-07     00000 
   11    -228.6410018306      2.26e-07     00000 
   12    -228.6410018311      6.29e-08     00000 
   13    -228.6410018311      1.79e-08     00000 
   14    -228.6410018311      2.90e-09     00000 Convergence criterion met
Timing for Total SCF: 300.00s (wall), 586.90s (cpu)

************** Final PCM Free Energy Summary **************
 G_electrostatic  =      -0.10263406 hartree =     -64.40384261 kcal/mol
 G_cavitation     =       0.00000000 hartree =       0.00000000 kcal/mol
 G_dispersion     =       0.00000000 hartree =       0.00000000 kcal/mol
 G_repulsion      =       0.00000000 hartree =       0.00000000 kcal/mol
 --------------------------------------------------
 Non-electrostatic Free Energy =       0.00000000 hartree =       0.00000000 kcal/mol
 Total                         =      -0.10263406 hartree =     -64.40384261 kcal/mol
 --------------------------------------------------
 SCF Energy (H0 + V/2)                       =    -228.64100183 
 Solute Internal Energy (H0)                 =    -228.53836777 
 Total Free Energy (H0 + V/2 + non-elec)     =    -228.64100183 hartree
                                             = -143474.39410796 kcal/mol
***********************************************************

E_pcm = -0.1026340567
Multipole orders to be included
        2
        3
computing dipole RHS
computing quadrupole RHS
total number of RHS in solve_reponses: 8
RHS batch sizes
        8
Beginning Block Conjugate Gradient Iterations. Batch Number: 0
computing hessian-vector products by finite difference
              1      7.25e-01     00000 Conjugate Gradient Iteration
computing hessian-vector products by finite difference
              2      2.62e-01     00000 Conjugate Gradient Iteration
computing hessian-vector products by finite difference
              3      7.13e-02     00000 Conjugate Gradient Iteration
computing hessian-vector products by finite difference
              4      1.93e-02     00000 Conjugate Gradient Iteration
computing hessian-vector products by finite difference
              5      3.33e-03     00000 Conjugate Gradient Iteration
computing hessian-vector products by finite difference
              6      7.85e-04     00000 Conjugate Gradient Iteration
computing hessian-vector products by finite difference
              7      1.27e-04     00000 Conjugate Gradient Iteration
computing hessian-vector products by finite difference
              8      1.52e-05     00000 Conjugate Gradient Iteration
computing hessian-vector products by finite difference
              9      2.35e-06     00000 Conjugate Gradient Iteration
computing hessian-vector products by finite difference
             10      2.68e-07     00000 Conjugate Gradient Iteration
computing hessian-vector products by finite difference
             11      7.68e-08     00000 Conjugate Gradient Iteration
computing hessian-vector products by finite difference
             12      1.58e-08     00000 Conjugate Gradient Iteration
computing hessian-vector products by finite difference
             13      4.10e-09     00000 CG Converged
batch 0 complete
Done Calculating Responses
TESTING ORTHOGONALIZATION OF MULTIPOLE BASIS
Multipole virts passed orthogonality test
Virts Per Order
        48
        80
 
 --------------------------------------------------------------
 
                    Orbital Energies (a.u.)
 --------------------------------------------------------------
 
 Alpha MOs
 -- Occupied --
-19.1197 -19.1191 -10.3237 -10.2418  -1.1336  -1.0277  -0.8311  -0.5930
 -0.5304  -0.5170  -0.5161  -0.4615  -0.4441  -0.3287  -0.3267  -0.3042
 -- Virtual --
  0.0634   0.0953   0.0955   0.1052   0.1302   0.1403   0.1435   0.1455
  0.1692   0.1903   0.1980   0.2242   0.2296   0.2357   0.2650   0.2676
  0.2989   0.3131   0.3345   0.3481   0.3522   0.3611   0.3706   0.3841
  0.3921   0.4014   0.4259   0.4262   0.4335   0.4609   0.4749   0.4786
  0.4918   0.4973   0.5055   0.5214   0.5586   0.5814   0.6040   0.6160
  0.6226   0.6410   0.6438   0.6660   0.6768   0.6788   0.6946   0.7130
  0.7214   0.7392   0.7760   0.7994   0.8106   0.8192   0.8467   0.8629
  0.8686   0.9823   0.9890   0.9975   1.0047   1.0518   1.0583   1.1329
  1.1772   1.2043   1.2619   1.2900   1.2992   1.3169   1.3448   1.3546
  1.4609   1.5690   1.6102   1.7364   1.8252   1.8642   1.8726   1.9308
  1.9316   1.9599   1.9649   1.9723   2.0185   2.1201   2.1324   2.1643
  2.2204   2.2228   2.3338   2.3510   2.4173   2.4414   2.4929   2.5149
  2.5855   2.5936   2.6172   2.6697   2.8021   2.8132   2.8736   2.9425
  2.9572   3.0088   3.0398   3.1868   3.2065   3.2500   3.2890   3.3129
  3.3415   3.3454   3.3957   3.4215   3.4264   3.5553   3.5690   3.5866
  3.6226   3.6608   3.7067   3.7582   3.7757   3.8900   3.9579   4.0479
  4.0840   4.2064   4.3600   4.5513   4.6152   4.6708   4.8104   4.8358
  4.9916   5.3363   5.3604   5.3718   5.3772   5.4896   5.7125   5.8095
  5.8301   6.0583   6.2186   6.3624   6.3711   6.6123   6.6331   6.7452
  6.7476   6.7660   6.9614   6.9899   7.0391   7.2650   7.3244   7.4072
  7.4180  22.5905  23.7552  44.2250  44.3518
 --------------------------------------------------------------
 
          Ground-State Mulliken Net Atomic Charges

     Atom                 Charge (a.u.)
  ----------------------------------------
      1 C                    -0.399574
      2 C                     0.295635
      3 O                    -0.672583
      4 O                    -0.685127
      5 H                     0.154878
      6 H                     0.141698
      7 H                     0.165073
  ----------------------------------------
  Sum of atomic charges =    -1.000000

 -----------------------------------------------------------------
                    Cartesian Multipole Moments
 -----------------------------------------------------------------
    Charge (ESU x 10^10)
                -4.8032
    Dipole Moment (Debye)
         X      -7.0235      Y       2.0626      Z      -0.7275
       Tot       7.3562
    Quadrupole Moments (Debye-Ang)
        XX     -35.9208     XY       0.4968     YY     -36.4405
        XZ      -0.9309     YZ       0.6461     ZZ     -25.5759
    Octopole Moments (Debye-Ang^2)
       XXX    -214.3170    XXY      13.1459    XYY     -83.3112
       YYY      69.8602    XXZ      -6.1950    XYZ       0.5906
       YYZ      -7.5739    XZZ     -65.1457    YZZ      17.0959
       ZZZ     -14.7584
    Hexadecapole Moments (Debye-Ang^3)
      XXXX   -1240.6367   XXXY     128.8719   XXYY    -263.1654
      XYYY     168.8128   YYYY    -244.0230   XXXZ     -43.5592
      XXYZ       4.3370   XYYZ     -18.6153   YYYZ      17.3826
      XXZZ    -203.2672   XYZZ      43.8920   YYZZ     -41.8369
      XZZZ     -39.4729   YZZZ      11.8669   ZZZZ     -40.4957
 -----------------------------------------------------------------
Archival summary:
1\1\nid00533\SP\ProcedureUnspecified\BasisUnspecified\223(1-,1)\meili\SunSep2618:09:332021SunSep2618:09:332021\0\\#,ProcedureUnspecified,BasisUnspecified,\\-1,1\C\O,1,1.2474\O,1,1.25144,2,120.518\C,1,1.51998,2,119.66,3,-179.997,0\H,4,1.09069,1,108.953,2,113.325,0\H,4,1.09168,1,109.205,2,-128.508,0\H,4,1.1,1,113.313,2,-7.2035,0\\\@

 Total job time:  4971.02s(wall), 9671.35s(cpu) 
 Sun Sep 26 18:09:33 2021

        *************************************************************
        *                                                           *
        *  Thank you very much for using Q-Chem.  Have a nice day.  *
        *                                                           *
        *************************************************************


Done Job For Fragment 1
calling putenv with: QCSCRATCH=/global/cscratch1/sd/meili 
calling putenv with: QCLOCALSCR=/tmp 
calling putenv with: QCTHREADS=32 
Doing General SCFMI
 Exchange:     0.1670 Hartree-Fock + 1.0000 wB97X-V + LR-HF
 Correlation:  1.0000 wB97X-V
 Using Euler-Maclaurin-Lebedev (99,590) quadrature formula
 Nonlocal Correlation:  VV10 with C = 0.0100 and b = 6.00 and scale = 1.00000
 Grid used for NLC:  SG-1 standard quadrature
performing fock build before subrot guess so that all methods have access
Printing subrot_rss_gen Method Specification:
Occupied Subspace Method is 0
Virtual Subspace Method is 0
Energy of the unrelaxed supersystem initial determinant -473.776400737602
performing fock build before subrot guess so that all methods have access
Printing subrot_rss_gen Method Specification:
Occupied Subspace Method is 0
Virtual Subspace Method is 0
Energy of the unrelaxed supersystem initial determinant w/ solvent -473.824081858045
write pseudocanon occs and virts to disk
write pseudocanon orbital energies to disk
Tolerance of ortho_decomp_scf: 1.00e-06
GDM subspace size: 20
Beginning the Orthogonal Decomposition of the Initial Supersystem Wavefunction
    1    -473.5443872124      9.36e-02     ortho_decomp Preconditoned Steepest Descent
    2    -473.5611465639      3.01e-03     ortho_decomp BFGS Step
    3    -473.5612267785      2.29e-04     ortho_decomp BFGS Step
    4    -473.5612269013      1.05e-05     ortho_decomp BFGS Step
    5    -473.5612269018      4.50e-07     ortho_decomp 00000 Convergence criterion met
 Hartree-Fock
 Hartree-Fock
 Hartree-Fock
Doing General SCFMI
 Exchange:     0.1670 Hartree-Fock + 1.0000 wB97X-V + LR-HF
 Correlation:  1.0000 wB97X-V
 Using Euler-Maclaurin-Lebedev (99,590) quadrature formula
 Nonlocal Correlation:  VV10 with C = 0.0100 and b = 6.00 and scale = 1.00000
 Grid used for NLC:  SG-1 standard quadrature
performing fock build at end of subrot_r(subrot) constructor so that all methods have access
<S^2> of initial wavefunction before polarization iterations 0.0000000000
Beginning iterations for the determination of the polarized wavefunction
Energy prior to optimization (guess energy) = -473.824081858044
Begin Timing: Total SCF Calculation
begin iterations for algorithm: DIIS         
the SCF tolerance is set to 1.00e-08
    1    -473.8240818580      3.15e-04     00000 
    2    -473.8290218068      1.33e-04     00000 
    3    -473.8295443617      8.14e-05     00000 
    4    -473.8297475544      2.37e-05     00000 
    5    -473.8297768649      1.12e-05     00000 
    6    -473.8297828403      6.27e-06     00000 
    7    -473.8297847160      2.19e-06     00000 
    8    -473.8297849725      1.01e-06     00000 
    9    -473.8297850183      3.47e-07     00000 
   10    -473.8297850217      1.22e-07     00000 
   11    -473.8297850224      4.84e-08     00000 
   12    -473.8297850225      2.41e-08     00000 
   13    -473.8297850225      9.49e-09     00000 Convergence criterion met
write pseudocanon occs and virts to disk
write pseudocanon orbital energies to disk
Timing for Total SCF: 3098.00s (wall), 6154.37s (cpu)
<S^2> of polarized wavefunction after polarization iterations 0.0000000000
relaxing scfmi constraint to allow all rotations in the entire AO span
Doing General SCFMI
 Exchange:     0.1670 Hartree-Fock + 1.0000 wB97X-V + LR-HF
 Correlation:  1.0000 wB97X-V
 Using Euler-Maclaurin-Lebedev (99,590) quadrature formula
 Nonlocal Correlation:  VV10 with C = 0.0100 and b = 6.00 and scale = 1.00000
 Grid used for NLC:  SG-1 standard quadrature
performing fock build at end of subrot_r(subrot) constructor so that all methods have access
<S^2> of polarized wavefunction before ct-allowed iterations 0.0000000000
Beginning iterations for the determination of the CT-Allowed wavefunction
Energy prior to optimization (guess energy) = -473.829785022541
Begin Timing: Total SCF Calculation
begin iterations for algorithm: DIIS         
the SCF tolerance is set to 1.00e-08
    1    -473.8297850225      2.29e-04     00000 
    2    -473.8365450227      4.05e-05     00000 
    3    -473.8368873499      1.84e-05     00000 
    4    -473.8369138701      8.61e-06     00000 
    5    -473.8369212121      1.78e-06     00000 
    6    -473.8369215954      6.25e-07     00000 
    7    -473.8369216619      2.72e-07     00000 
    8    -473.8369216693      1.01e-07     00000 
    9    -473.8369216706      3.82e-08     00000 
   10    -473.8369216708      1.26e-08     00000 
   11    -473.8369216708      3.76e-09     00000 Convergence criterion met
write pseudocanon occs and virts to disk
write pseudocanon orbital energies to disk
Timing for Total SCF: 2561.00s (wall), 5085.16s (cpu)
<S^2> of ct_allowed wavefunction after ct-allowed iterations 0.0000000000

================================
        Results of EDA2         
================================
Basic EDA Quantities
--------------------
Fragment Energies (Ha):
1 -245.1754747711
2 -228.6410018311
--------------------
  E_prp (kJ/mol) = 0.0000
  E_sol (kJ/mol) = 358.9549
  E_frz (kJ/mol) = -378.9227
  E_pol (kJ/mol) = -14.9738
  E_vct (kJ/mol) = -18.7375
  E_int (kJ/mol) = -53.6792
--------------------


Initial Wavefunction Decomposition
--------------------
  --------------------
  Orthogonal Fragment Subspace Decomposition:
  --------------------
     E_elec   (ELEC)   (kJ/mol) = -511.1717
     E_pauli  (PAULI)  (kJ/mol) = 154.0685
     E_disp   (DISP)   (kJ/mol) = -21.8194
     --------------------
     Terms summing to E_pauli:
     --------------------
        E_kep_pauli       (kJ/mol) = 186.0229
        E_disp_free_pauli (kJ/mol) = -31.9544
  --------------------
  Classical Frozen Decomposition:
  --------------------
     E_cls_elec  (CLS ELEC)  (kJ/mol) = -458.1704
     E_cls_pauli (CLS PAULI) (kJ/mol) = 79.2477
    [E_mod_pauli (MOD PAULI) (kJ/mol) = 101.0671 (CLS PAULI - DISP from orthogonal decomposition) ]
  --------------------
--------------------

Simplified EDA Summary (kJ/mol)
--------------------
 PREPARATION     0.0000
 SOLVATION       358.9549
 FROZEN          -357.1033      (does not include dispersion)
[PAULI           154.0685]     (if this is negligible, then frozen describes electrostatics)
 DISPERSION      -21.8194
 POLARIZATION    -14.9738
 CHARGE TRANSFER -18.7375
 TOTAL           -53.6792     (PRP + SOL + FRZ + DISP + POL + CT)
--------------------
 
 --------------------------------------------------------------
 
                    Orbital Energies (a.u.)
 --------------------------------------------------------------
 
 Alpha MOs
 -- Occupied --
-19.1365 -19.1346 -14.4681 -14.4585 -14.4380 -10.4271 -10.3389 -10.3243
-10.2479  -1.1843  -1.1542  -1.0683  -1.0474  -1.0450  -0.8677  -0.8396
 -0.7729  -0.7325  -0.6996  -0.6355  -0.6218  -0.5980  -0.5930  -0.5863
 -0.5412  -0.5403  -0.5318  -0.5279  -0.5235  -0.4733  -0.4567  -0.4062
 -0.3866  -0.3438  -0.3431  -0.3241
 -- Virtual --
  0.0512   0.0712   0.0760   0.0861   0.0957   0.1001   0.1061   0.1166
  0.1230   0.1293   0.1343   0.1389   0.1462   0.1541   0.1555   0.1621
  0.1741   0.1837   0.1871   0.1902   0.1971   0.2053   0.2105   0.2177
  0.2282   0.2334   0.2399   0.2468   0.2502   0.2615   0.2643   0.2705
  0.2754   0.2798   0.2908   0.2920   0.3000   0.3026   0.3088   0.3124
  0.3183   0.3230   0.3279   0.3319   0.3361   0.3429   0.3460   0.3497
  0.3531   0.3552   0.3594   0.3693   0.3738   0.3800   0.3819   0.3916
  0.3965   0.3969   0.4058   0.4113   0.4134   0.4227   0.4246   0.4343
  0.4371   0.4467   0.4497   0.4578   0.4680   0.4720   0.4771   0.4830
  0.4871   0.4911   0.4938   0.5048   0.5064   0.5089   0.5129   0.5207
  0.5239   0.5259   0.5332   0.5348   0.5457   0.5512   0.5595   0.5643
  0.5774   0.5808   0.5858   0.5924   0.5952   0.5983   0.6185   0.6251
  0.6321   0.6347   0.6408   0.6499   0.6588   0.6687   0.6737   0.6761
  0.6904   0.6957   0.7060   0.7134   0.7200   0.7210   0.7326   0.7433
  0.7474   0.7522   0.7645   0.7703   0.7777   0.7863   0.7929   0.7973
  0.8027   0.8103   0.8209   0.8235   0.8283   0.8385   0.8468   0.8535
  0.8619   0.8649   0.8779   0.8813   0.8909   0.9012   0.9162   0.9270
  0.9366   0.9411   0.9620   0.9669   0.9722   0.9888   1.0047   1.0127
  1.0320   1.0434   1.0503   1.0641   1.0737   1.0774   1.1062   1.1082
  1.1168   1.1189   1.1380   1.1492   1.1640   1.1842   1.1986   1.2046
  1.2178   1.2325   1.2408   1.2480   1.2672   1.2731   1.2864   1.3069
  1.3327   1.3512   1.3536   1.3667   1.3912   1.3999   1.4186   1.4503
  1.4598   1.4804   1.4929   1.4966   1.5296   1.5965   1.6158   1.6430
  1.6591   1.6766   1.7217   1.7300   1.7372   1.7396   1.7609   1.7891
  1.8338   1.8512   1.8669   1.8772   1.8877   1.8974   1.9023   1.9097
  1.9308   1.9495   1.9615   1.9661   1.9777   1.9946   2.0030   2.0257
  2.0270   2.0335   2.0626   2.0782   2.0810   2.1214   2.1258   2.1409
  2.1536   2.1722   2.2259   2.2340   2.2363   2.2466   2.2714   2.2806
  2.2960   2.3095   2.3411   2.3470   2.3678   2.3791   2.4056   2.4445
  2.4565   2.4867   2.4911   2.5152   2.5285   2.5346   2.5433   2.5656
  2.5867   2.5958   2.6154   2.6265   2.6432   2.6467   2.6554   2.6685
  2.6865   2.7189   2.7361   2.7539   2.7756   2.8314   2.8431   2.8533
  2.8662   2.8818   2.8897   2.9184   2.9310   2.9345   2.9629   3.0155
  3.0226   3.0411   3.0729   3.0784   3.1216   3.1524   3.1540   3.1843
  3.2123   3.2305   3.2442   3.2580   3.2645   3.2826   3.2892   3.2946
  3.3099   3.3245   3.3366   3.3489   3.3642   3.3691   3.3828   3.4116
  3.4255   3.4272   3.4367   3.4587   3.4743   3.4874   3.5117   3.5556
  3.5676   3.5792   3.6108   3.6332   3.6401   3.6593   3.6681   3.6987
  3.7227   3.7319   3.7414   3.7647   3.7782   3.7918   3.8983   3.9155
  3.9307   3.9440   3.9585   3.9838   4.0636   4.0907   4.1017   4.1458
  4.2029   4.2316   4.2712   4.2940   4.3685   4.3922   4.4261   4.5234
  4.5521   4.5578   4.5819   4.6205   4.6400   4.6564   4.6788   4.8330
  4.8376   4.8695   4.8862   4.9091   4.9178   4.9948   5.0279   5.0436
  5.0736   5.1166   5.1520   5.1624   5.1941   5.2264   5.2451   5.2878
  5.3272   5.3290   5.3621   5.3648   5.3836   5.4202   5.4607   5.4677
  5.4704   5.4842   5.5048   5.5972   5.6164   5.6798   5.7114   5.7158
  5.7681   5.7968   5.8214   5.8299   5.9253   6.0603   6.1417   6.1984
  6.2157   6.3530   6.3728   6.3784   6.5021   6.6187   6.6724   6.7543
  6.7681   6.8680   6.9981   7.0013   7.0310   7.2625   7.3269   7.4339
  7.4936  22.6124  22.6378  23.7040  23.7763  32.3970  32.5494  32.8871
 44.2605  44.3855
 --------------------------------------------------------------
 
          Ground-State Mulliken Net Atomic Charges

     Atom                 Charge (a.u.)
  ----------------------------------------
      1 C                    -0.670219
      2 C                     0.533070
      3 N                    -0.018258
      4 N                    -0.103014
      5 N                    -0.257155
      6 H                     0.156673
      7 H                    -0.000706
      8 H                     0.212723
      9 H                     0.224321
     10 H                     0.211042
     11 H                     0.241232
     12 H                     0.247161
     13 H                     0.242433
     14 C                    -0.690365
     15 C                     0.588813
     16 O                    -0.734667
     17 O                    -0.729832
     18 H                     0.182709
     19 H                     0.183278
     20 H                     0.180762
  ----------------------------------------
  Sum of atomic charges =     0.000000

 -----------------------------------------------------------------
                    Cartesian Multipole Moments
 -----------------------------------------------------------------
    Charge (ESU x 10^10)
                -0.0000
    Dipole Moment (Debye)
         X     -13.9211      Y       2.9312      Z      -0.5529
       Tot      14.2371
    Quadrupole Moments (Debye-Ang)
        XX     -36.9770     XY      -4.1226     YY     -60.9653
        XZ      -1.0853     YZ      -7.0406     ZZ     -47.6475
    Octopole Moments (Debye-Ang^2)
       XXX    -113.5593    XXY       8.6513    XYY     -31.6370
       YYY      21.1167    XXZ       1.9967    XYZ      14.3032
       YYZ      -4.6301    XZZ     -17.5057    YZZ       0.4747
       ZZZ       1.3281
    Hexadecapole Moments (Debye-Ang^3)
      XXXX   -1784.1250   XXXY     207.8862   XXYY    -406.5776
      XYYY     288.4319   YYYY    -418.0386   XXXZ    -112.8859
      XXYZ      -6.1560   XYYZ     -31.1506   YYYZ      81.0488
      XXZZ    -349.3848   XYZZ      86.9335   YYZZ     -98.0635
      XZZZ     -93.9816   YZZZ      65.3252   ZZZZ    -247.4754
 -----------------------------------------------------------------
Archival summary:
1\1\nid00533\SP\ProcedureUnspecified\BasisUnspecified\23411\meili\SunSep2620:44:022021SunSep2620:44:022021\0\\#,ProcedureUnspecified,BasisUnspecified,\\0,1\N\H,1,0.995853\H,1,1.0317,2,117.911\C,1,1.31543,2,122.257,3,172.766,0\N,4,1.30417,1,119.433,2,-174.974,0\H,5,0.996237,4,117.06,1,-151.246,0\H,5,1.02834,4,118.979,1,1.90567,0\N,4,1.33114,1,120.761,2,5.25807,0\H,8,1.01486,4,116.37,1,-179.408,0\C,8,1.46695,4,125.959,1,-2.04022,0\H,10,1.09003,8,111.359,4,6.44617,0\H,10,1.09383,8,109.388,4,-111.184,0\H,10,1.1,8,111.648,4,126.513,0\O,3,1.93768,1,133.446,2,35.198,0\C,14,1.2474,3,88.2901,1,-154.889,0\O,15,1.25144,14,120.518,3,-4.07872,0\C,15,1.51998,14,119.66,3,175.925,0\H,17,1.09069,15,108.953,14,113.325,0\H,17,1.09168,15,109.205,14,-128.508,0\H,17,1.1,15,113.313,14,-7.2035,0\\\@

 Total job time:  28366.64s(wall), 18435.47s(cpu) 
 Sun Sep 26 20:44:04 2021

        *************************************************************
        *                                                           *
        *  Thank you very much for using Q-Chem.  Have a nice day.  *
        *                                                           *
        *************************************************************


