
Running Job 1 of 1 SSI-126PHE-171TYR-1_SMD_TZVPD.in
qchem SSI-126PHE-171TYR-1_SMD_TZVPD.in_15014.0 /tmp/qchem15014/ 0
/global/common/cori/software/qchem/5.2/exe/qcprog.exe_s SSI-126PHE-171TYR-1_SMD_TZVPD.in_15014.0 /tmp/qchem15014/
                  Welcome to Q-Chem
     A Quantum Leap Into The Future Of Chemistry


 Q-Chem 5.2, Q-Chem, Inc., Pleasanton, CA (2019)

 License issued to: National Energy Research Scientific Computing Center

 Yihan Shao,  Zhengting Gan,  E. Epifanovsky,  A. T. B. Gilbert,  M. Wormit,  
 J. Kussmann,  A. W. Lange,  A. Behn,  Jia Deng,  Xintian Feng,  D. Ghosh,  
 M. Goldey,  P. R. Horn,  L. D. Jacobson,  I. Kaliman,  T. Kus,  A. Landau,  
 Jie Liu,  E. I. Proynov,  R. M. Richard,  R. P. Steele,  E. J. Sundstrom,  
 H. L. Woodcock III,  P. M. Zimmerman,  D. Zuev,  B. Albrecht,  E. Alguire,  
 S. A. Baeppler,  D. Barton,  Z. Benda,  Y. A. Bernard,  E. J. Berquist,  
 K. B. Bravaya,  H. Burton,  D. Casanova,  Chun-Min Chang,  Yunqing Chen,  
 A. Chien,  K. D. Closser,  M. P. Coons,  S. Coriani,  S. Dasgupta,  
 A. L. Dempwolff,  M. Diedenhofen,  Hainam Do,  R. G. Edgar,  Po-Tung Fang,  
 S. Faraji,  S. Fatehi,  Qingguo Feng,  K. D. Fenk,  J. Fosso-Tande,  
 J. Gayvert,  Qinghui Ge,  A. Ghysels,  G. Gidofalvi,  J. Gomes,  
 J. Gonthier,  A. Gunina,  D. Hait,  M. W. D. Hanson-Heine,  
 P. H. P. Harbach,  A. W. Hauser,  M. F. Herbst,  J. E. Herr,  
 E. G. Hohenstein,  Z. C. Holden,  Kerwin Hui,  B. C. Huynh,  T.-C. Jagau,  
 Hyunjun Ji,  B. Kaduk,  K. Khistyaev,  Jaehoon Kim,  P. Klunzinger,  K. Koh,  
 D. Kosenkov,  L. Koulias,  T. Kowalczyk,  C. M. Krauter,  A. Kunitsa,  
 Ka Un Lao,  A. Laurent,  K. V. Lawler,  Joonho Lee,  D. Lefrancois,  
 S. Lehtola,  D. S. Levine,  Yi-Pei Li,  You-Sheng Lin,  Fenglai Liu,  
 E. Livshits,  A. Luenser,  P. Manohar,  E. Mansoor,  S. F. Manzer,  
 Shan-Ping Mao,  Yuezhi Mao,  N. Mardirossian,  A. V. Marenich,  
 T. Markovich,  L. A. Martinez-Martinez,  S. A. Maurer,  N. J. Mayhall,  
 S. C. McKenzie,  J.-M. Mewes,  P. Morgante,  A. F. Morrison,  
 J. W. Mullinax,  K. Nanda,  T. S. Nguyen-Beck,  R. Olivares-Amaya,  
 J. A. Parkhill,  Zheng Pei,  T. M. Perrine,  F. Plasser,  P. Pokhilko,  
 S. Prager,  A. Prociuk,  E. Ramos,  D. R. Rehn,  F. Rob,  M. Scheurer,  
 M. Schneider,  N. Sergueev,  S. M. Sharada,  S. Sharma,  D. W. Small,  
 T. Stauch,  T. Stein,  Yu-Chuan Su,  A. J. W. Thom,  A. Tkatchenko,  
 T. Tsuchimochi,  N. M. Tubman,  L. Vogt,  M. L. Vidal,  O. Vydrov,  
 M. A. Watson,  J. Wenzel,  M. de Wergifosse,  T. A. Wesolowski,  A. White,  
 J. Witte,  A. Yamada,  Jun Yang,  K. Yao,  S. Yeganeh,  S. R. Yost,  
 Zhi-Qiang You,  A. Zech,  Igor Ying Zhang,  Xing Zhang,  Yan Zhao,  
 Ying Zhu,  B. R. Brooks,  G. K. L. Chan,  C. J. Cramer,  M. S. Gordon,  
 W. J. Hehre,  A. Klamt,  M. W. Schmidt,  C. D. Sherrill,  D. G. Truhlar,  
 A. Aspuru-Guzik,  R. Baer,  A. T. Bell,  N. A. Besley,  Jeng-Da Chai,  
 A. E. DePrince, III,  R. A. DiStasio Jr.,  A. Dreuw,  B. D. Dunietz,  
 T. R. Furlani,  Chao-Ping Hsu,  Yousung Jung,  Jing Kong,  D. S. Lambrecht,  
 WanZhen Liang,  C. Ochsenfeld,  V. A. Rassolov,  L. V. Slipchenko,  
 J. E. Subotnik,  T. Van Voorhis,  J. M. Herbert,  A. I. Krylov,  
 P. M. W. Gill,  M. Head-Gordon

 Contributors to earlier versions of Q-Chem not listed above: 
 R. D. Adamson,  B. Austin,  J. Baker,  G. J. O. Beran,  K. Brandhorst,  
 S. T. Brown,  E. F. C. Byrd,  A. K. Chakraborty,  C.-L. Cheng,  
 Siu Hung Chien,  D. M. Chipman,  D. L. Crittenden,  H. Dachsel,  
 R. J. Doerksen,  A. D. Dutoi,  L. Fusti-Molnar,  W. A. Goddard III,  
 A. Golubeva-Zadorozhnaya,  S. R. Gwaltney,  G. Hawkins,  A. Heyden,  
 S. Hirata,  G. Kedziora,  F. J. Keil,  C. Kelley,  Jihan Kim,  R. A. King,  
 R. Z. Khaliullin,  P. P. Korambath,  W. Kurlancheek,  A. M. Lee,  M. S. Lee,  
 S. V. Levchenko,  Ching Yeh Lin,  D. Liotard,  R. C. Lochan,  I. Lotan,  
 P. E. Maslen,  N. Nair,  D. P. O'Neill,  D. Neuhauser,  E. Neuscamman,  
 C. M. Oana,  R. Olson,  B. Peters,  R. Peverati,  P. A. Pieniazek,  
 Y. M. Rhee,  J. Ritchie,  M. A. Rohrdanz,  E. Rosta,  N. J. Russ,  
 H. F. Schaefer III,  N. E. Schultz,  N. Shenvi,  A. C. Simmonett,  A. Sodt,  
 D. Stuck,  K. S. Thanthiriwatte,  V. Vanovschi,  Tao Wang,  A. Warshel,  
 C. F. Williams,  Q. Wu,  X. Xu,  W. Zhang

 Please cite Q-Chem as follows:
 Y. Shao et al., Mol. Phys. 113, 184-215 (2015)
 DOI: 10.1080/00268976.2014.952696

 Q-Chem 5.2.0 for Intel X86 EM64T Linux

 Parts of Q-Chem use Armadillo 8.300.2 (Tropical Shenanigans).
 http://arma.sourceforge.net/

 Q-Chem begins on Sun Sep 26 14:19:01 2021  

Host: cori01
0

     Scratch files written to /tmp/qchem15014//
 May1019 |scratch|qcdevops|jenkins|workspace|build_RNUM -1
Processing $rem in /global/common/cori/software/qchem/5.2/config/preferences:
	 MEM_TOTAL  96000 
NAlpha2: 108
NElect   108
Mult     1
Symmetry turned off for PCM/SM12/SMD calculation

 Q-Chem warning in module libgen/rem_setup.C, line 2803:

 Neither GIA nor STOLL is specified by user. Use STOLL as the default


Checking the input file for inconsistencies... 	...done.

--------------------------------------------------------------
User input:
--------------------------------------------------------------
$comment
SSI-126PHE-171TYR-1.pdb
$end

$molecule
0 1
--
0 1
C    5.014985766516    0.394172136782   -1.804371969147
C    0.782985766516    0.697172136782   -1.035371969147
C    1.241985766516    0.417172136782   -2.322371969147
C    1.695985766516    0.881172136782    0.001628030853
C    2.614985766516    0.325172136782   -2.570371969147
C    3.064985766516    0.784172136782   -0.250371969147
C    3.536985766516    0.509172136782   -1.538371969147
H   -0.279014233484    0.771172136782   -0.841371969147
H    0.534985766516    0.269172136782   -3.127371969147
H    1.329985766516    1.076172136782    0.997628030853
H    2.959985766516    0.106172136782   -3.569371969147
H    3.730985766516    0.887172136782    0.590628030853
H    5.226985766516    0.583172136782   -2.853371969147
H    5.298985766516   -0.640827863218   -1.605371969147
H    5.632405766516    1.045422136782   -1.168241969147
--
0 1
C    0.019985766516   -1.538827863218    2.752628030853
C   -2.424014233484   -0.971827863218   -0.116371969147
C   -3.280014233484   -0.011827863218    0.418628030853
C   -1.344014233484   -1.437827863218    0.634628030853
C   -1.104014233484   -0.956827863218    1.925628030853
C   -3.051014233484    0.485172136782    1.703628030853
C   -1.964014233484    0.011172136782    2.450628030853
O   -4.344014233484    0.418172136782   -0.318371969147
H   -2.603014233484   -1.355827863218   -1.109371969147
H   -0.689014233484   -2.188827863218    0.212628030853
H   -3.712014233484    1.232172136782    2.114628030853
H   -4.857014233484    1.108172136782    0.169628030853
H    0.260985766516   -0.879827863218    3.587628030853
H    0.901985766516   -1.602827863218    2.117628030853
H   -1.785014233484    0.408172136782    3.437628030853
H   -0.231394233484   -2.542887863218    3.125008030853
$end

$rem
JOBTYPE			EDA
EDA2			1
method			wB97X-V
BASIS			def2-TZVPD
XC_GRID			000099000590
NL_GRID			1
UNRESTRICTED		FALSE
MAX_SCF_CYCLES		200
SYMMETRY		FALSE
SYM_IGNORE		TRUE
MEM_STATIC		2000
BASIS_LIN_DEP_THRESH 	6
THRESH 			14
SCF_CONVERGENCE 	8
SCF_PRINT_FRGM 		TRUE
SOLVENT_METHOD          SMD
$end

$SMX
SOLVENT			WATER
$END
--------------------------------------------------------------
 ----------------------------------------------------------------
             Standard Nuclear Orientation (Angstroms)
    I     Atom           X                Y                Z
 ----------------------------------------------------------------
    1      C       5.0149857665     0.3941721368    -1.8043719691
    2      C       0.7829857665     0.6971721368    -1.0353719691
    3      C       1.2419857665     0.4171721368    -2.3223719691
    4      C       1.6959857665     0.8811721368     0.0016280309
    5      C       2.6149857665     0.3251721368    -2.5703719691
    6      C       3.0649857665     0.7841721368    -0.2503719691
    7      C       3.5369857665     0.5091721368    -1.5383719691
    8      H      -0.2790142335     0.7711721368    -0.8413719691
    9      H       0.5349857665     0.2691721368    -3.1273719691
   10      H       1.3299857665     1.0761721368     0.9976280309
   11      H       2.9599857665     0.1061721368    -3.5693719691
   12      H       3.7309857665     0.8871721368     0.5906280309
   13      H       5.2269857665     0.5831721368    -2.8533719691
   14      H       5.2989857665    -0.6408278632    -1.6053719691
   15      H       5.6324057665     1.0454221368    -1.1682419691
   16      C       0.0199857665    -1.5388278632     2.7526280309
   17      C      -2.4240142335    -0.9718278632    -0.1163719691
   18      C      -3.2800142335    -0.0118278632     0.4186280309
   19      C      -1.3440142335    -1.4378278632     0.6346280309
   20      C      -1.1040142335    -0.9568278632     1.9256280309
   21      C      -3.0510142335     0.4851721368     1.7036280309
   22      C      -1.9640142335     0.0111721368     2.4506280309
   23      O      -4.3440142335     0.4181721368    -0.3183719691
   24      H      -2.6030142335    -1.3558278632    -1.1093719691
   25      H      -0.6890142335    -2.1888278632     0.2126280309
   26      H      -3.7120142335     1.2321721368     2.1146280309
   27      H      -4.8570142335     1.1081721368     0.1696280309
   28      H       0.2609857665    -0.8798278632     3.5876280309
   29      H       0.9019857665    -1.6028278632     2.1176280309
   30      H      -1.7850142335     0.4081721368     3.4376280309
   31      H      -0.2313942335    -2.5428878632     3.1250080309
 ----------------------------------------------------------------
 Nuclear Repulsion Energy =         883.29636356 hartrees
 There are       54 alpha and       54 beta electrons
 Requested basis set is def2-TZVPD
 There are 276 shells and 702 basis functions

 Total QAlloc Memory Limit  96000 MB
 Mega-Array Size      1956 MB
 MEM_STATIC part      2000 MB
 
 Citation of the SMD model:
 Marenich, A.V.; Cramer, C.J.; Truhlar, D.G.
 J. Phys. Chem. B 2009, 113, 6378-6396.
 iSolventCode=           1
 Solvent: water                                                           
 
 vradii
            1           2           3           4           5           6
    1   1.8500000   1.8500000   1.8500000   1.8500000   1.8500000   1.8500000
            7           8           9          10          11          12
    1   1.8500000   1.2000000   1.2000000   1.2000000   1.2000000   1.2000000
           13          14          15          16          17          18
    1   1.2000000   1.2000000   1.2000000   1.8500000   1.8500000   1.8500000
           19          20          21          22          23          24
    1   1.8500000   1.8500000   1.8500000   1.8500000   1.5200000   1.2000000
           25          26          27          28          29          30
    1   1.2000000   1.2000000   1.2000000   1.2000000   1.2000000   1.2000000
           31
    1   1.2000000
 Changing PCM_VDW_RADII to SMD_RADIUS
 Discretize the solute cavity surface with Lebedev spheres
	Using 110 Lebedev grid points for each H atom
	Using 194 Lebedev grid points for other atoms
	Atomic van der Waals radii will be scaled by 1.20
 Remove points where switching function is < 1.0e-08
 Keep 2249 surface tesserae and discard 2421 interior tesserae
 Molecular Surface Area = 269.650 Angst**2
 A cutoff of  1.0D-14 yielded  32026 shell pairs
 There are    208220 function pairs (    263118 Cartesian)
 Smallest overlap matrix eigenvalue = 4.64E-07
 Linear dependence detected in AO basis
 Tighter screening thresholds may be required for diffuse basis sets
 Use S2THRESH > 14 and THRESH = 14 in case of SCF convergence issues
 Number of orthogonalized atomic orbitals = 699
 Maximum deviation from orthogonality = 1.980E-10

 Scale SEOQF with 1.000000e-02/1.000000e-01/1.000000e-01

 Standard Electronic Orientation quadrupole field applied
 Nucleus-field energy     =    -0.0000000254 hartrees

 -----------------------------------------------------------------------
  General SCF calculation program by
  Eric Jon Sundstrom, Paul Horn, Yuezhi Mao, Dmitri Zuev, Alec White,
  David Stuck, Shaama M.S., Shane Yost, Joonho Lee, David Small,
  Daniel Levine, Susi Lehtola, Hugh Burton, Evgeny Epifanovsky
 -----------------------------------------------------------------------
================================================================
                 ALMO-EDA with the EDA2 driver                  
================================================================
 The second-generation ALMO-EDA (for DFT):                      
 P. R. Horn, Y. Mao and M. Head-Gordon, PCCP, 18, 23067 (2016)  
 Decomposition of the frozen energy:                            
 P. R. Horn, Y. Mao and M. Head-Gordon, JCP, 144, 114107 (2016) 
 FERF model for polarization:                                   
 P. R. Horn and M. Head-Gordon, JCP, 143, 114111 (2015)         
Using eda2 option set 1
Option set summary: Frozen orbital wavefunction, initial wavefunction decomposition, and nDQ polarization.
--------------------------------
Printing EDA Options
--------------------------------
eda_child_super_basis      0
fragmo_guess_mode          0
child_mp                   1
child_mp_orders            232
cls_elec                   1
cls_disp                   0
scfmi_mode                 1
scfmi_occs                 0
scfmi_virts                0
frz_relax                  0
frz_relax_method           0
dc_pen_start               0
dc_pen_conv                0
dc_pen_increment           0
dc_pen_steps               0
dc_pen_thresh_factor       0
dc_pen_pre_newton_thresh   0
frz_ortho_decomp           1
frz_ortho_decomp_conv      6
frgm_method                2
scfmi_freeze_ss            0
separate_rehyb             0
plot_diff_den              0
eda_nocv                   0
eda_vct_relax              1
disp_free_x                0
disp_free_c                0
eda_bsse                   0
eda_pct_a                  0
eda_covp                   0
--------------------------------
Attempting to make child job directory: /tmp/qchem15014//Frg1/
Attempting to make child job directory: /tmp/qchem15014//Frg2/
Creating input file /tmp/qchem15014/Frg1.input
using default PutDataFrgm: nothing
calling putenv with: QCSCRATCH=/tmp/qchem15014/ 
calling putenv with: QCLOCALSCR=/tmp/qchem15014/ 
Spawning Job For Fragment 0
                  Welcome to Q-Chem
     A Quantum Leap Into The Future Of Chemistry


 Q-Chem 5.2, Q-Chem, Inc., Pleasanton, CA (2019)

 License issued to: National Energy Research Scientific Computing Center

 Yihan Shao,  Zhengting Gan,  E. Epifanovsky,  A. T. B. Gilbert,  M. Wormit,  
 J. Kussmann,  A. W. Lange,  A. Behn,  Jia Deng,  Xintian Feng,  D. Ghosh,  
 M. Goldey,  P. R. Horn,  L. D. Jacobson,  I. Kaliman,  T. Kus,  A. Landau,  
 Jie Liu,  E. I. Proynov,  R. M. Richard,  R. P. Steele,  E. J. Sundstrom,  
 H. L. Woodcock III,  P. M. Zimmerman,  D. Zuev,  B. Albrecht,  E. Alguire,  
 S. A. Baeppler,  D. Barton,  Z. Benda,  Y. A. Bernard,  E. J. Berquist,  
 K. B. Bravaya,  H. Burton,  D. Casanova,  Chun-Min Chang,  Yunqing Chen,  
 A. Chien,  K. D. Closser,  M. P. Coons,  S. Coriani,  S. Dasgupta,  
 A. L. Dempwolff,  M. Diedenhofen,  Hainam Do,  R. G. Edgar,  Po-Tung Fang,  
 S. Faraji,  S. Fatehi,  Qingguo Feng,  K. D. Fenk,  J. Fosso-Tande,  
 J. Gayvert,  Qinghui Ge,  A. Ghysels,  G. Gidofalvi,  J. Gomes,  
 J. Gonthier,  A. Gunina,  D. Hait,  M. W. D. Hanson-Heine,  
 P. H. P. Harbach,  A. W. Hauser,  M. F. Herbst,  J. E. Herr,  
 E. G. Hohenstein,  Z. C. Holden,  Kerwin Hui,  B. C. Huynh,  T.-C. Jagau,  
 Hyunjun Ji,  B. Kaduk,  K. Khistyaev,  Jaehoon Kim,  P. Klunzinger,  K. Koh,  
 D. Kosenkov,  L. Koulias,  T. Kowalczyk,  C. M. Krauter,  A. Kunitsa,  
 Ka Un Lao,  A. Laurent,  K. V. Lawler,  Joonho Lee,  D. Lefrancois,  
 S. Lehtola,  D. S. Levine,  Yi-Pei Li,  You-Sheng Lin,  Fenglai Liu,  
 E. Livshits,  A. Luenser,  P. Manohar,  E. Mansoor,  S. F. Manzer,  
 Shan-Ping Mao,  Yuezhi Mao,  N. Mardirossian,  A. V. Marenich,  
 T. Markovich,  L. A. Martinez-Martinez,  S. A. Maurer,  N. J. Mayhall,  
 S. C. McKenzie,  J.-M. Mewes,  P. Morgante,  A. F. Morrison,  
 J. W. Mullinax,  K. Nanda,  T. S. Nguyen-Beck,  R. Olivares-Amaya,  
 J. A. Parkhill,  Zheng Pei,  T. M. Perrine,  F. Plasser,  P. Pokhilko,  
 S. Prager,  A. Prociuk,  E. Ramos,  D. R. Rehn,  F. Rob,  M. Scheurer,  
 M. Schneider,  N. Sergueev,  S. M. Sharada,  S. Sharma,  D. W. Small,  
 T. Stauch,  T. Stein,  Yu-Chuan Su,  A. J. W. Thom,  A. Tkatchenko,  
 T. Tsuchimochi,  N. M. Tubman,  L. Vogt,  M. L. Vidal,  O. Vydrov,  
 M. A. Watson,  J. Wenzel,  M. de Wergifosse,  T. A. Wesolowski,  A. White,  
 J. Witte,  A. Yamada,  Jun Yang,  K. Yao,  S. Yeganeh,  S. R. Yost,  
 Zhi-Qiang You,  A. Zech,  Igor Ying Zhang,  Xing Zhang,  Yan Zhao,  
 Ying Zhu,  B. R. Brooks,  G. K. L. Chan,  C. J. Cramer,  M. S. Gordon,  
 W. J. Hehre,  A. Klamt,  M. W. Schmidt,  C. D. Sherrill,  D. G. Truhlar,  
 A. Aspuru-Guzik,  R. Baer,  A. T. Bell,  N. A. Besley,  Jeng-Da Chai,  
 A. E. DePrince, III,  R. A. DiStasio Jr.,  A. Dreuw,  B. D. Dunietz,  
 T. R. Furlani,  Chao-Ping Hsu,  Yousung Jung,  Jing Kong,  D. S. Lambrecht,  
 WanZhen Liang,  C. Ochsenfeld,  V. A. Rassolov,  L. V. Slipchenko,  
 J. E. Subotnik,  T. Van Voorhis,  J. M. Herbert,  A. I. Krylov,  
 P. M. W. Gill,  M. Head-Gordon

 Contributors to earlier versions of Q-Chem not listed above: 
 R. D. Adamson,  B. Austin,  J. Baker,  G. J. O. Beran,  K. Brandhorst,  
 S. T. Brown,  E. F. C. Byrd,  A. K. Chakraborty,  C.-L. Cheng,  
 Siu Hung Chien,  D. M. Chipman,  D. L. Crittenden,  H. Dachsel,  
 R. J. Doerksen,  A. D. Dutoi,  L. Fusti-Molnar,  W. A. Goddard III,  
 A. Golubeva-Zadorozhnaya,  S. R. Gwaltney,  G. Hawkins,  A. Heyden,  
 S. Hirata,  G. Kedziora,  F. J. Keil,  C. Kelley,  Jihan Kim,  R. A. King,  
 R. Z. Khaliullin,  P. P. Korambath,  W. Kurlancheek,  A. M. Lee,  M. S. Lee,  
 S. V. Levchenko,  Ching Yeh Lin,  D. Liotard,  R. C. Lochan,  I. Lotan,  
 P. E. Maslen,  N. Nair,  D. P. O'Neill,  D. Neuhauser,  E. Neuscamman,  
 C. M. Oana,  R. Olson,  B. Peters,  R. Peverati,  P. A. Pieniazek,  
 Y. M. Rhee,  J. Ritchie,  M. A. Rohrdanz,  E. Rosta,  N. J. Russ,  
 H. F. Schaefer III,  N. E. Schultz,  N. Shenvi,  A. C. Simmonett,  A. Sodt,  
 D. Stuck,  K. S. Thanthiriwatte,  V. Vanovschi,  Tao Wang,  A. Warshel,  
 C. F. Williams,  Q. Wu,  X. Xu,  W. Zhang

 Please cite Q-Chem as follows:
 Y. Shao et al., Mol. Phys. 113, 184-215 (2015)
 DOI: 10.1080/00268976.2014.952696

 Q-Chem 5.2.0 for Intel X86 EM64T Linux

 Parts of Q-Chem use Armadillo 8.300.2 (Tropical Shenanigans).
 http://arma.sourceforge.net/

 Q-Chem begins on Sun Sep 26 14:19:09 2021  

Host: cori01
0

     Scratch files written to /tmp/qchem15014//Frg1//
 May1019 |scratch|qcdevops|jenkins|workspace|build_RNUM -1
Processing $rem in /global/common/cori/software/qchem/5.2/config/preferences:
	 MEM_TOTAL  96000 
NAlpha2: 50
NElect   50
Mult     1
Symmetry turned off for PCM/SM12/SMD calculation

Checking the input file for inconsistencies... 	...done.

--------------------------------------------------------------
User input:
--------------------------------------------------------------
$molecule
0 1
 6	5.0149857665	0.3941721368	-1.8043719691
 6	0.7829857665	0.6971721368	-1.0353719691
 6	1.2419857665	0.4171721368	-2.3223719691
 6	1.6959857665	0.8811721368	0.0016280309
 6	2.6149857665	0.3251721368	-2.5703719691
 6	3.0649857665	0.7841721368	-0.2503719691
 6	3.5369857665	0.5091721368	-1.5383719691
 1	-0.2790142335	0.7711721368	-0.8413719691
 1	0.5349857665	0.2691721368	-3.1273719691
 1	1.3299857665	1.0761721368	0.9976280309
 1	2.9599857665	0.1061721368	-3.5693719691
 1	3.7309857665	0.8871721368	0.5906280309
 1	5.2269857665	0.5831721368	-2.8533719691
 1	5.2989857665	-0.6408278632	-1.6053719691
 1	5.6324057665	1.0454221368	-1.1682419691
$end
$rem
EDA2		1
METHOD		WB97X-V
BASIS		DEF2-TZVPD
XC_GRID		000099000590
NL_GRID		1
UNRESTRICTED		FALSE
MAX_SCF_CYCLES		200
SYMMETRY		FALSE
SYM_IGNORE		TRUE
BASIS_LIN_DEP_THRESH		6
THRESH		14
SCF_CONVERGENCE		8
SCF_PRINT_FRGM		TRUE
SOLVENT_METHOD		SMD
!required keywords
JOBTYPE		SP
SYM_IGNORE		TRUE
SUBSYSTEM		TRUE
GEN_SCFMAN		TRUE
CHILD_INSTRUCTION		2
SYM_IGNORE		TRUE
SCFMI		0
RI_K 0		
PARI_K 0		
MIN_PARI_K 0		
IARI_K 0		
OCC_RI_K 0		
PURECART		1111
MEM_STATIC		2000
MEM_TOTAL		96000
GUI		0
CHILD_MP		1
CHILD_MP_ORDERS		232
FRZ_RELAX		0
FRZ_RELAX_METHOD		0
EDA_CLS_ELEC		1
EDA_CLS_DISP		0
FRZ_ORTHO_DECOMP		1
EDA2		FALSE
FRGM_METHOD		FALSE
CIS_N_ROOTS  0
LOCAL_CIS    0
CIS_RLX_DNS  1
$end
$smx
SOLVENT			WATER
$end
--------------------------------------------------------------
 ----------------------------------------------------------------
             Standard Nuclear Orientation (Angstroms)
    I     Atom           X                Y                Z
 ----------------------------------------------------------------
    1      C       5.0149857665     0.3941721368    -1.8043719691
    2      C       0.7829857665     0.6971721368    -1.0353719691
    3      C       1.2419857665     0.4171721368    -2.3223719691
    4      C       1.6959857665     0.8811721368     0.0016280309
    5      C       2.6149857665     0.3251721368    -2.5703719691
    6      C       3.0649857665     0.7841721368    -0.2503719691
    7      C       3.5369857665     0.5091721368    -1.5383719691
    8      H      -0.2790142335     0.7711721368    -0.8413719691
    9      H       0.5349857665     0.2691721368    -3.1273719691
   10      H       1.3299857665     1.0761721368     0.9976280309
   11      H       2.9599857665     0.1061721368    -3.5693719691
   12      H       3.7309857665     0.8871721368     0.5906280309
   13      H       5.2269857665     0.5831721368    -2.8533719691
   14      H       5.2989857665    -0.6408278632    -1.6053719691
   15      H       5.6324057665     1.0454221368    -1.1682419691
 ----------------------------------------------------------------
 Nuclear Repulsion Energy =         269.31143400 hartrees
 There are       25 alpha and       25 beta electrons
 Requested basis set is def2-TZVPD
 There are 131 shells and 331 basis functions

 Total QAlloc Memory Limit  96000 MB
 Mega-Array Size      1956 MB
 MEM_STATIC part      2000 MB
 
 Citation of the SMD model:
 Marenich, A.V.; Cramer, C.J.; Truhlar, D.G.
 J. Phys. Chem. B 2009, 113, 6378-6396.
 iSolventCode=           1
 Solvent: water                                                           
 
 vradii
            1           2           3           4           5           6
    1   1.8500000   1.8500000   1.8500000   1.8500000   1.8500000   1.8500000
            7           8           9          10          11          12
    1   1.8500000   1.2000000   1.2000000   1.2000000   1.2000000   1.2000000
           13          14          15
    1   1.2000000   1.2000000   1.2000000
 Changing PCM_VDW_RADII to SMD_RADIUS
 Discretize the solute cavity surface with Lebedev spheres
	Using 110 Lebedev grid points for each H atom
	Using 194 Lebedev grid points for other atoms
	Atomic van der Waals radii will be scaled by 1.20
 Remove points where switching function is < 1.0e-08
 Keep 1075 surface tesserae and discard 1163 interior tesserae
 Molecular Surface Area = 132.351 Angst**2

                       Distance Matrix (Angstroms)
             C (  1)   C (  2)   C (  3)   C (  4)   C (  5)   C (  6)
   C (  2)  4.311959
   C (  3)  3.808462  1.394794
   C (  4)  3.809799  1.393841  2.412962
   C (  5)  2.520222  2.418850  1.398248  2.787271
   C (  6)  2.523790  2.414812  2.784098  1.395376  2.407401
   C (  7)  1.506142  2.805863  2.426962  2.428840  1.396053  1.399054
   H (  8)  5.394065  1.082107  2.152236  2.150203  3.400528  3.395848
   H (  9)  4.672938  2.149686  1.081563  3.393097  2.154016  3.865651
   H ( 10)  4.679268  2.139144  3.385916  1.078887  3.865986  2.157080
   H ( 11)  2.724187  3.392605  2.145520  3.866570  1.079346  3.389170
   H ( 12)  2.761835  3.372044  3.860258  2.118533  3.399003  1.077704
   H ( 13)  1.086769  4.802838  4.023648  4.550581  2.639924  3.389728
   H ( 14)  1.091550  4.744407  4.253552  4.228539  3.011351  2.976139
   H ( 15)  1.099998  4.863724  4.582849  4.109863  3.404343  2.739048
             C (  7)   H (  8)   H (  9)   H ( 10)   H ( 11)   H ( 12)
   H (  8)  3.887970
   H (  9)  3.405073  2.477982
   H ( 10)  3.409345  2.462484  4.277721
   H ( 11)  2.149488  4.286646  2.470336  4.945229
   H ( 12)  2.170982  4.259599  4.941646  2.442575  4.302325
   H ( 13)  2.142615  5.865111  4.710471  5.500896  2.424763  3.767170
   H ( 14)  2.105144  5.804440  5.083334  5.047441  3.144237  3.100939
   H ( 15)  2.194389  5.926799  5.515836  4.816924  3.713414  2.595008
             H ( 13)   H ( 14)
   H ( 14)  1.749533
   H ( 15)  1.793796  1.773609
 
 A cutoff of  1.0D-14 yielded   8359 shell pairs
 There are     54473 function pairs (     69417 Cartesian)
 Smallest overlap matrix eigenvalue = 5.78E-07
 Linear dependence detected in AO basis
 Tighter screening thresholds may be required for diffuse basis sets
 Use S2THRESH > 14 and THRESH = 14 in case of SCF convergence issues
 Number of orthogonalized atomic orbitals = 330
 Maximum deviation from orthogonality = 1.345E-10

 Scale SEOQF with 1.000000e-02/1.000000e-01/1.000000e-01

 Standard Electronic Orientation quadrupole field applied
 Nucleus-field energy     =    -0.0000000129 hartrees
 Guess from superposition of atomic densities
 Warning:  Energy on first SCF cycle will be non-variational
 SAD guess density has 49.913408 electrons

 -----------------------------------------------------------------------
  General SCF calculation program by
  Eric Jon Sundstrom, Paul Horn, Yuezhi Mao, Dmitri Zuev, Alec White,
  David Stuck, Shaama M.S., Shane Yost, Joonho Lee, David Small,
  Daniel Levine, Susi Lehtola, Hugh Burton, Evgeny Epifanovsky
 -----------------------------------------------------------------------
 Exchange:     0.1670 Hartree-Fock + 1.0000 wB97X-V + LR-HF
 Correlation:  1.0000 wB97X-V
 Using Euler-Maclaurin-Lebedev (99,590) quadrature formula
 Nonlocal Correlation:  VV10 with C = 0.0100 and b = 6.00 and scale = 1.00000
 Grid used for NLC:  SG-1 standard quadrature
Energy prior to optimization (guess energy) = -271.520537260013
Begin Timing: Total SCF Calculation
begin iterations for algorithm: DIIS         
the SCF tolerance is set to 1.00e-08
    1    -271.5205372600      1.95e-03     00000 
    2    -271.5613764927      1.26e-03     00000 
    3    -271.5848018197      1.55e-04     00000 
    4    -271.5855068879      4.57e-05     00000 
    5    -271.5855576819      2.10e-05     00000 
    6    -271.5855651662      5.37e-06     00000 
    7    -271.5855658878      1.47e-06     00000 
    8    -271.5855659280      4.34e-07     00000 
    9    -271.5855659332      1.05e-07     00000 
   10    -271.5855659335      3.52e-08     00000 
   11    -271.5855659335      1.53e-08     00000 
   12    -271.5855659336      5.01e-09     00000 Convergence criterion met
Timing for Total SCF: 1297.00s (wall), 2550.23s (cpu)
(3)  G-ENP(liq) elect-nuc-pol free energy of system     -271.585565934 a.u.
(4)  G-CDS(liq) cavity-dispersion-solvent structure 
     free energy                                                3.1992 kcal/mol
(6)  G-S(liq) free energy of system                     -271.580467662 a.u.
E_pcm = -0.0076264429
E_cds = 0.0050982713
Multipole orders to be included
        2
        3
computing dipole RHS
computing quadrupole RHS
total number of RHS in solve_reponses: 8
RHS batch sizes
        8
Beginning Block Conjugate Gradient Iterations. Batch Number: 0
computing hessian-vector products by finite difference
              1      6.30e-01     00000 Conjugate Gradient Iteration
computing hessian-vector products by finite difference
              2      1.97e-01     00000 Conjugate Gradient Iteration
computing hessian-vector products by finite difference
              3      4.67e-02     00000 Conjugate Gradient Iteration
computing hessian-vector products by finite difference
              4      1.20e-02     00000 Conjugate Gradient Iteration
computing hessian-vector products by finite difference
              5      2.33e-03     00000 Conjugate Gradient Iteration
computing hessian-vector products by finite difference
              6      6.75e-04     00000 Conjugate Gradient Iteration
computing hessian-vector products by finite difference
              7      1.76e-04     00000 Conjugate Gradient Iteration
computing hessian-vector products by finite difference
              8      2.81e-05     00000 Conjugate Gradient Iteration
computing hessian-vector products by finite difference
              9      3.49e-06     00000 Conjugate Gradient Iteration
computing hessian-vector products by finite difference
             10      6.57e-07     00000 Conjugate Gradient Iteration
computing hessian-vector products by finite difference
             11      1.13e-07     00000 Conjugate Gradient Iteration
computing hessian-vector products by finite difference
             12      1.71e-08     00000 Conjugate Gradient Iteration
computing hessian-vector products by finite difference
             13      3.17e-09     00000 CG Converged
batch 0 complete
Done Calculating Responses
TESTING ORTHOGONALIZATION OF MULTIPOLE BASIS
Multipole virts passed orthogonality test
Virts Per Order
           75
          125
 
 --------------------------------------------------------------
 
                    Orbital Energies (a.u.)
 --------------------------------------------------------------
 
 Alpha MOs
 -- Occupied --
-10.2798 -10.2692 -10.2679 -10.2654 -10.2652 -10.2649 -10.2541  -0.9915
 -0.9011  -0.8736  -0.8072  -0.7243  -0.7004  -0.6231  -0.5682  -0.5612
 -0.5271  -0.5235  -0.5080  -0.4832  -0.4677  -0.4363  -0.4344  -0.3457
 -0.3334
 -- Virtual --
  0.0664   0.0683   0.0719   0.0841   0.0898   0.1095   0.1156   0.1183
  0.1412   0.1604   0.1712   0.1733   0.1921   0.1947   0.2002   0.2065
  0.2288   0.2324   0.2413   0.2430   0.2520   0.2636   0.2654   0.2740
  0.2826   0.2862   0.2880   0.2971   0.2988   0.3075   0.3094   0.3175
  0.3262   0.3298   0.3362   0.3398   0.3526   0.3565   0.3717   0.3746
  0.3812   0.3870   0.3896   0.3925   0.3957   0.4069   0.4091   0.4135
  0.4147   0.4296   0.4334   0.4401   0.4477   0.4524   0.4576   0.4589
  0.4661   0.4739   0.4806   0.4833   0.4955   0.5009   0.5123   0.5201
  0.5233   0.5300   0.5355   0.5417   0.5463   0.5500   0.5564   0.5707
  0.5858   0.5923   0.5960   0.6043   0.6103   0.6238   0.6496   0.6526
  0.6651   0.6766   0.6873   0.6905   0.6935   0.6996   0.7222   0.7268
  0.7272   0.7334   0.7485   0.7655   0.7677   0.7690   0.7836   0.7909
  0.7931   0.7963   0.8046   0.8066   0.8132   0.8265   0.8274   0.8369
  0.8413   0.8464   0.8503   0.8588   0.8650   0.8773   0.8895   0.8985
  0.9210   0.9264   0.9337   0.9497   0.9546   1.0076   1.0193   1.0453
  1.0506   1.0674   1.0734   1.0776   1.0850   1.0937   1.1076   1.1438
  1.1681   1.1808   1.2436   1.2832   1.2957   1.3201   1.3486   1.3509
  1.3859   1.4394   1.4601   1.4612   1.4736   1.4752   1.5262   1.5378
  1.6011   1.6044   1.6231   1.6251   1.6511   1.6771   1.7417   1.7838
  1.7904   1.7972   1.8090   1.8263   1.8353   1.8631   1.8945   1.9150
  1.9258   1.9310   1.9581   1.9770   1.9883   2.0010   2.0250   2.0291
  2.0378   2.0543   2.0729   2.0964   2.1175   2.1286   2.1690   2.1801
  2.2031   2.2309   2.2561   2.2588   2.2953   2.3146   2.3955   2.4038
  2.4096   2.4108   2.4811   2.5128   2.5349   2.5508   2.5696   2.6055
  2.6356   2.6496   2.6508   2.6764   2.7039   2.7287   2.7624   2.7638
  2.7855   2.8115   2.8304   2.8527   2.8587   2.9059   2.9101   2.9142
  2.9337   2.9428   2.9632   2.9848   2.9933   3.0209   3.0255   3.0542
  3.0713   3.0887   3.1031   3.1699   3.1763   3.1938   3.2074   3.2265
  3.2335   3.2460   3.2899   3.3036   3.3318   3.3585   3.3625   3.3789
  3.4092   3.4440   3.4452   3.4557   3.4619   3.4761   3.4943   3.5028
  3.5134   3.5231   3.5412   3.5483   3.5630   3.5650   3.5829   3.6072
  3.6077   3.6390   3.6550   3.6887   3.7040   3.7532   3.7772   3.8294
  3.8367   3.8949   3.9005   3.9427   3.9605   3.9795   4.0304   4.0648
  4.1236   4.2043   4.2693   4.2747   4.2887   4.3125   4.3254   4.3307
  4.3491   4.3682   4.3735   4.4142   4.4369   4.4409   4.4781   4.5397
  4.5932   4.6688   4.7322   4.7681   4.8160   4.8772   4.9094   4.9509
  5.0236   5.0376   5.1548   5.2782   5.3689   5.3795   5.4895   5.5265
  5.6790   5.8504  22.5811  22.6701  22.8870  22.8973  23.0031  23.0632
 23.4077
 --------------------------------------------------------------
 
          Ground-State Mulliken Net Atomic Charges

     Atom                 Charge (a.u.)
  ----------------------------------------
      1 C                    -1.122597
      2 C                    -0.538509
      3 C                    -0.552483
      4 C                    -0.548435
      5 C                    -0.431624
      6 C                    -0.399123
      7 C                     0.814246
      8 H                     0.396394
      9 H                     0.373130
     10 H                     0.372062
     11 H                     0.389154
     12 H                     0.400067
     13 H                     0.307651
     14 H                     0.235039
     15 H                     0.305027
  ----------------------------------------
  Sum of atomic charges =     0.000000

 -----------------------------------------------------------------
                    Cartesian Multipole Moments
 -----------------------------------------------------------------
    Charge (ESU x 10^10)
                 0.0000
    Dipole Moment (Debye)
         X       0.5638      Y      -0.1975      Z      -0.0707
       Tot       0.6015
    Quadrupole Moments (Debye-Ang)
        XX     -34.3225     XY      -0.5932     YY     -46.4955
        XZ      -0.9750     YZ       1.9792     ZZ     -37.5082
    Octopole Moments (Debye-Ang^2)
       XXX    -288.1682    XXY     -22.1688    XYY    -119.0355
       YYY     -80.1328    XXZ      47.1259    XYZ       4.3510
       YYZ      65.5937    XZZ     -98.9358    YZZ     -25.8397
       ZZZ     155.3461
    Hexadecapole Moments (Debye-Ang^3)
      XXXX   -2150.7281   XXXY    -153.1775   XXYY    -435.4896
      XYYY    -191.0731   YYYY    -167.3488   XXXZ     428.4862
      XXYZ      33.1586   XYYZ     176.6333   YYYZ      81.3377
      XXZZ    -474.7853   XYZZ     -60.9455   YYZZ    -173.1320
      XZZZ     437.0325   YZZZ      78.6043   ZZZZ    -708.7495
 -----------------------------------------------------------------
Archival summary:
1\1\nid00558\SP\ProcedureUnspecified\BasisUnspecified\78\meili\SunSep2621:46:212021SunSep2621:46:212021\0\\#,ProcedureUnspecified,BasisUnspecified,\\0,1\C\C,1,1.39605\H,2,1.07935,1,119.99\C,2,1.39825,1,120.579,3,179.772,0\H,4,1.08156,2,120.057,1,-179.754,0\C,4,1.39479,2,120,1,0.107979,0\H,6,1.08211,4,120.14,2,179.857,0\C,6,1.39384,4,119.83,2,-0.167699,0\H,8,1.07889,6,119.241,4,-178.687,0\C,8,1.39538,6,119.941,4,-0.0317903,0\H,10,1.0777,8,117.305,6,-177.148,0\C,1,1.50614,2,120.496,3,-0.470654,0\H,12,1.08677,1,110.403,2,23.8404,0\H,12,1.09155,1,107.189,2,-92.2041,0\H,12,1.1,1,113.795,2,148.394,0\\\@

 Total job time:  26835.40s(wall), 53022.25s(cpu) 
 Sun Sep 26 21:46:24 2021

        *************************************************************
        *                                                           *
        *  Thank you very much for using Q-Chem.  Have a nice day.  *
        *                                                           *
        *************************************************************


Done Job For Fragment 0
calling putenv with: QCSCRATCH=/global/cscratch1/sd/meili 
calling putenv with: QCLOCALSCR=/tmp 
calling putenv with: QCTHREADS=32 
Creating input file /tmp/qchem15014/Frg2.input
using default PutDataFrgm: nothing
calling putenv with: QCSCRATCH=/tmp/qchem15014/ 
calling putenv with: QCLOCALSCR=/tmp/qchem15014/ 
Spawning Job For Fragment 1
                  Welcome to Q-Chem
     A Quantum Leap Into The Future Of Chemistry


 Q-Chem 5.2, Q-Chem, Inc., Pleasanton, CA (2019)

 License issued to: National Energy Research Scientific Computing Center

 Yihan Shao,  Zhengting Gan,  E. Epifanovsky,  A. T. B. Gilbert,  M. Wormit,  
 J. Kussmann,  A. W. Lange,  A. Behn,  Jia Deng,  Xintian Feng,  D. Ghosh,  
 M. Goldey,  P. R. Horn,  L. D. Jacobson,  I. Kaliman,  T. Kus,  A. Landau,  
 Jie Liu,  E. I. Proynov,  R. M. Richard,  R. P. Steele,  E. J. Sundstrom,  
 H. L. Woodcock III,  P. M. Zimmerman,  D. Zuev,  B. Albrecht,  E. Alguire,  
 S. A. Baeppler,  D. Barton,  Z. Benda,  Y. A. Bernard,  E. J. Berquist,  
 K. B. Bravaya,  H. Burton,  D. Casanova,  Chun-Min Chang,  Yunqing Chen,  
 A. Chien,  K. D. Closser,  M. P. Coons,  S. Coriani,  S. Dasgupta,  
 A. L. Dempwolff,  M. Diedenhofen,  Hainam Do,  R. G. Edgar,  Po-Tung Fang,  
 S. Faraji,  S. Fatehi,  Qingguo Feng,  K. D. Fenk,  J. Fosso-Tande,  
 J. Gayvert,  Qinghui Ge,  A. Ghysels,  G. Gidofalvi,  J. Gomes,  
 J. Gonthier,  A. Gunina,  D. Hait,  M. W. D. Hanson-Heine,  
 P. H. P. Harbach,  A. W. Hauser,  M. F. Herbst,  J. E. Herr,  
 E. G. Hohenstein,  Z. C. Holden,  Kerwin Hui,  B. C. Huynh,  T.-C. Jagau,  
 Hyunjun Ji,  B. Kaduk,  K. Khistyaev,  Jaehoon Kim,  P. Klunzinger,  K. Koh,  
 D. Kosenkov,  L. Koulias,  T. Kowalczyk,  C. M. Krauter,  A. Kunitsa,  
 Ka Un Lao,  A. Laurent,  K. V. Lawler,  Joonho Lee,  D. Lefrancois,  
 S. Lehtola,  D. S. Levine,  Yi-Pei Li,  You-Sheng Lin,  Fenglai Liu,  
 E. Livshits,  A. Luenser,  P. Manohar,  E. Mansoor,  S. F. Manzer,  
 Shan-Ping Mao,  Yuezhi Mao,  N. Mardirossian,  A. V. Marenich,  
 T. Markovich,  L. A. Martinez-Martinez,  S. A. Maurer,  N. J. Mayhall,  
 S. C. McKenzie,  J.-M. Mewes,  P. Morgante,  A. F. Morrison,  
 J. W. Mullinax,  K. Nanda,  T. S. Nguyen-Beck,  R. Olivares-Amaya,  
 J. A. Parkhill,  Zheng Pei,  T. M. Perrine,  F. Plasser,  P. Pokhilko,  
 S. Prager,  A. Prociuk,  E. Ramos,  D. R. Rehn,  F. Rob,  M. Scheurer,  
 M. Schneider,  N. Sergueev,  S. M. Sharada,  S. Sharma,  D. W. Small,  
 T. Stauch,  T. Stein,  Yu-Chuan Su,  A. J. W. Thom,  A. Tkatchenko,  
 T. Tsuchimochi,  N. M. Tubman,  L. Vogt,  M. L. Vidal,  O. Vydrov,  
 M. A. Watson,  J. Wenzel,  M. de Wergifosse,  T. A. Wesolowski,  A. White,  
 J. Witte,  A. Yamada,  Jun Yang,  K. Yao,  S. Yeganeh,  S. R. Yost,  
 Zhi-Qiang You,  A. Zech,  Igor Ying Zhang,  Xing Zhang,  Yan Zhao,  
 Ying Zhu,  B. R. Brooks,  G. K. L. Chan,  C. J. Cramer,  M. S. Gordon,  
 W. J. Hehre,  A. Klamt,  M. W. Schmidt,  C. D. Sherrill,  D. G. Truhlar,  
 A. Aspuru-Guzik,  R. Baer,  A. T. Bell,  N. A. Besley,  Jeng-Da Chai,  
 A. E. DePrince, III,  R. A. DiStasio Jr.,  A. Dreuw,  B. D. Dunietz,  
 T. R. Furlani,  Chao-Ping Hsu,  Yousung Jung,  Jing Kong,  D. S. Lambrecht,  
 WanZhen Liang,  C. Ochsenfeld,  V. A. Rassolov,  L. V. Slipchenko,  
 J. E. Subotnik,  T. Van Voorhis,  J. M. Herbert,  A. I. Krylov,  
 P. M. W. Gill,  M. Head-Gordon

 Contributors to earlier versions of Q-Chem not listed above: 
 R. D. Adamson,  B. Austin,  J. Baker,  G. J. O. Beran,  K. Brandhorst,  
 S. T. Brown,  E. F. C. Byrd,  A. K. Chakraborty,  C.-L. Cheng,  
 Siu Hung Chien,  D. M. Chipman,  D. L. Crittenden,  H. Dachsel,  
 R. J. Doerksen,  A. D. Dutoi,  L. Fusti-Molnar,  W. A. Goddard III,  
 A. Golubeva-Zadorozhnaya,  S. R. Gwaltney,  G. Hawkins,  A. Heyden,  
 S. Hirata,  G. Kedziora,  F. J. Keil,  C. Kelley,  Jihan Kim,  R. A. King,  
 R. Z. Khaliullin,  P. P. Korambath,  W. Kurlancheek,  A. M. Lee,  M. S. Lee,  
 S. V. Levchenko,  Ching Yeh Lin,  D. Liotard,  R. C. Lochan,  I. Lotan,  
 P. E. Maslen,  N. Nair,  D. P. O'Neill,  D. Neuhauser,  E. Neuscamman,  
 C. M. Oana,  R. Olson,  B. Peters,  R. Peverati,  P. A. Pieniazek,  
 Y. M. Rhee,  J. Ritchie,  M. A. Rohrdanz,  E. Rosta,  N. J. Russ,  
 H. F. Schaefer III,  N. E. Schultz,  N. Shenvi,  A. C. Simmonett,  A. Sodt,  
 D. Stuck,  K. S. Thanthiriwatte,  V. Vanovschi,  Tao Wang,  A. Warshel,  
 C. F. Williams,  Q. Wu,  X. Xu,  W. Zhang

 Please cite Q-Chem as follows:
 Y. Shao et al., Mol. Phys. 113, 184-215 (2015)
 DOI: 10.1080/00268976.2014.952696

 Q-Chem 5.2.0 for Intel X86 EM64T Linux

 Parts of Q-Chem use Armadillo 8.300.2 (Tropical Shenanigans).
 http://arma.sourceforge.net/

 Q-Chem begins on Sun Sep 26 21:46:30 2021  

Host: cori01
0

     Scratch files written to /tmp/qchem15014//Frg2//
 May1019 |scratch|qcdevops|jenkins|workspace|build_RNUM -1
Processing $rem in /global/common/cori/software/qchem/5.2/config/preferences:
	 MEM_TOTAL  96000 
NAlpha2: 58
NElect   58
Mult     1
Symmetry turned off for PCM/SM12/SMD calculation

Checking the input file for inconsistencies... 	...done.

--------------------------------------------------------------
User input:
--------------------------------------------------------------
$molecule
0 1
 6	0.0199857665	-1.5388278632	2.7526280309
 6	-2.4240142335	-0.9718278632	-0.1163719691
 6	-3.2800142335	-0.0118278632	0.4186280309
 6	-1.3440142335	-1.4378278632	0.6346280309
 6	-1.1040142335	-0.9568278632	1.9256280309
 6	-3.0510142335	0.4851721368	1.7036280309
 6	-1.9640142335	0.0111721368	2.4506280309
 8	-4.3440142335	0.4181721368	-0.3183719691
 1	-2.6030142335	-1.3558278632	-1.1093719691
 1	-0.6890142335	-2.1888278632	0.2126280309
 1	-3.7120142335	1.2321721368	2.1146280309
 1	-4.8570142335	1.1081721368	0.1696280309
 1	0.2609857665	-0.8798278632	3.5876280309
 1	0.9019857665	-1.6028278632	2.1176280309
 1	-1.7850142335	0.4081721368	3.4376280309
 1	-0.2313942335	-2.5428878632	3.1250080309
$end
$rem
EDA2		1
METHOD		WB97X-V
BASIS		DEF2-TZVPD
XC_GRID		000099000590
NL_GRID		1
UNRESTRICTED		FALSE
MAX_SCF_CYCLES		200
SYMMETRY		FALSE
SYM_IGNORE		TRUE
BASIS_LIN_DEP_THRESH		6
THRESH		14
SCF_CONVERGENCE		8
SCF_PRINT_FRGM		TRUE
SOLVENT_METHOD		SMD
!required keywords
JOBTYPE		SP
SYM_IGNORE		TRUE
SUBSYSTEM		TRUE
GEN_SCFMAN		TRUE
CHILD_INSTRUCTION		2
SYM_IGNORE		TRUE
SCFMI		0
RI_K 0		
PARI_K 0		
MIN_PARI_K 0		
IARI_K 0		
OCC_RI_K 0		
PURECART		1111
MEM_STATIC		2000
MEM_TOTAL		96000
GUI		0
CHILD_MP		1
CHILD_MP_ORDERS		232
FRZ_RELAX		0
FRZ_RELAX_METHOD		0
EDA_CLS_ELEC		1
EDA_CLS_DISP		0
FRZ_ORTHO_DECOMP		1
EDA2		FALSE
FRGM_METHOD		FALSE
CIS_N_ROOTS  0
LOCAL_CIS    0
CIS_RLX_DNS  1
$end
$smx
SOLVENT			WATER
$end
--------------------------------------------------------------
 ----------------------------------------------------------------
             Standard Nuclear Orientation (Angstroms)
    I     Atom           X                Y                Z
 ----------------------------------------------------------------
    1      C       0.0199857665    -1.5388278632     2.7526280309
    2      C      -2.4240142335    -0.9718278632    -0.1163719691
    3      C      -3.2800142335    -0.0118278632     0.4186280309
    4      C      -1.3440142335    -1.4378278632     0.6346280309
    5      C      -1.1040142335    -0.9568278632     1.9256280309
    6      C      -3.0510142335     0.4851721368     1.7036280309
    7      C      -1.9640142335     0.0111721368     2.4506280309
    8      O      -4.3440142335     0.4181721368    -0.3183719691
    9      H      -2.6030142335    -1.3558278632    -1.1093719691
   10      H      -0.6890142335    -2.1888278632     0.2126280309
   11      H      -3.7120142335     1.2321721368     2.1146280309
   12      H      -4.8570142335     1.1081721368     0.1696280309
   13      H       0.2609857665    -0.8798278632     3.5876280309
   14      H       0.9019857665    -1.6028278632     2.1176280309
   15      H      -1.7850142335     0.4081721368     3.4376280309
   16      H      -0.2313942335    -2.5428878632     3.1250080309
 ----------------------------------------------------------------
 Nuclear Repulsion Energy =         342.23371421 hartrees
 There are       29 alpha and       29 beta electrons
 Requested basis set is def2-TZVPD
 There are 145 shells and 371 basis functions

 Total QAlloc Memory Limit  96000 MB
 Mega-Array Size      1956 MB
 MEM_STATIC part      2000 MB
 
 Citation of the SMD model:
 Marenich, A.V.; Cramer, C.J.; Truhlar, D.G.
 J. Phys. Chem. B 2009, 113, 6378-6396.
 iSolventCode=           1
 Solvent: water                                                           
 
 vradii
            1           2           3           4           5           6
    1   1.8500000   1.8500000   1.8500000   1.8500000   1.8500000   1.8500000
            7           8           9          10          11          12
    1   1.8500000   1.5200000   1.2000000   1.2000000   1.2000000   1.2000000
           13          14          15          16
    1   1.2000000   1.2000000   1.2000000   1.2000000
 Changing PCM_VDW_RADII to SMD_RADIUS
 Discretize the solute cavity surface with Lebedev spheres
	Using 110 Lebedev grid points for each H atom
	Using 194 Lebedev grid points for other atoms
	Atomic van der Waals radii will be scaled by 1.20
 Remove points where switching function is < 1.0e-08
 Keep 1174 surface tesserae and discard 1258 interior tesserae
 Molecular Surface Area = 142.001 Angst**2
 A cutoff of  1.0D-14 yielded  10041 shell pairs
 There are     67079 function pairs (     85780 Cartesian)
 Smallest overlap matrix eigenvalue = 5.72E-07
 Linear dependence detected in AO basis
 Tighter screening thresholds may be required for diffuse basis sets
 Use S2THRESH > 14 and THRESH = 14 in case of SCF convergence issues
 Number of orthogonalized atomic orbitals = 370
 Maximum deviation from orthogonality = 2.317E-10

 Scale SEOQF with 1.000000e-01/1.000000e-01/1.000000e-01

 Standard Electronic Orientation quadrupole field applied
 Nucleus-field energy     =     0.0000000002 hartrees
 Guess from superposition of atomic densities
 Warning:  Energy on first SCF cycle will be non-variational
 SAD guess density has 57.738434 electrons

 -----------------------------------------------------------------------
  General SCF calculation program by
  Eric Jon Sundstrom, Paul Horn, Yuezhi Mao, Dmitri Zuev, Alec White,
  David Stuck, Shaama M.S., Shane Yost, Joonho Lee, David Small,
  Daniel Levine, Susi Lehtola, Hugh Burton, Evgeny Epifanovsky
 -----------------------------------------------------------------------
 Exchange:     0.1670 Hartree-Fock + 1.0000 wB97X-V + LR-HF
 Correlation:  1.0000 wB97X-V
 Using Euler-Maclaurin-Lebedev (99,590) quadrature formula
 Nonlocal Correlation:  VV10 with C = 0.0100 and b = 6.00 and scale = 1.00000
 Grid used for NLC:  SG-1 standard quadrature
Energy prior to optimization (guess energy) = -346.495096133687
Begin Timing: Total SCF Calculation
begin iterations for algorithm: DIIS         
the SCF tolerance is set to 1.00e-08
    1    -346.4950961337      5.17e-03     00000 
    2    -346.4253030613      5.65e-03     00000 
    3    -346.8206072534      5.37e-04     00000 
    4    -346.8256185284      1.76e-04     00000 
    5    -346.8263299412      3.84e-05     00000 
    6    -346.8263828127      1.31e-05     00000 
    7    -346.8263876138      4.94e-06     00000 
    8    -346.8263883155      1.46e-06     00000 
    9    -346.8263883963      4.76e-07     00000 
   10    -346.8263884057      2.25e-07     00000 
   11    -346.8263884080      5.64e-08     00000 
   12    -346.8263884084      2.98e-08     00000 
   13    -346.8263884084      1.16e-08     00000 
   14    -346.8263884085      3.59e-09     00000 Convergence criterion met
Timing for Total SCF: 2103.00s (wall), 4182.37s (cpu)
(3)  G-ENP(liq) elect-nuc-pol free energy of system     -346.826388408 a.u.
(4)  G-CDS(liq) cavity-dispersion-solvent structure 
     free energy                                                3.8139 kcal/mol
(6)  G-S(liq) free energy of system                     -346.820310574 a.u.
E_pcm = -0.0177079210
E_cds = 0.0060778349
Multipole orders to be included
        2
        3
computing dipole RHS
computing quadrupole RHS
total number of RHS in solve_reponses: 8
RHS batch sizes
        8
Beginning Block Conjugate Gradient Iterations. Batch Number: 0
computing hessian-vector products by finite difference
              1      6.40e-01     00000 Conjugate Gradient Iteration
computing hessian-vector products by finite difference
              2      1.94e-01     00000 Conjugate Gradient Iteration
computing hessian-vector products by finite difference
              3      5.00e-02     00000 Conjugate Gradient Iteration
computing hessian-vector products by finite difference
              4      1.56e-02     00000 Conjugate Gradient Iteration
computing hessian-vector products by finite difference
              5      5.49e-03     00000 Conjugate Gradient Iteration
computing hessian-vector products by finite difference
              6      1.73e-03     00000 Conjugate Gradient Iteration
computing hessian-vector products by finite difference
              7      3.63e-04     00000 Conjugate Gradient Iteration
computing hessian-vector products by finite difference
              8      6.53e-05     00000 Conjugate Gradient Iteration
computing hessian-vector products by finite difference
              9      1.09e-05     00000 Conjugate Gradient Iteration
computing hessian-vector products by finite difference
             10      1.73e-06     00000 Conjugate Gradient Iteration
computing hessian-vector products by finite difference
             11      2.74e-07     00000 Conjugate Gradient Iteration
computing hessian-vector products by finite difference
             12      3.73e-08     00000 Conjugate Gradient Iteration
computing hessian-vector products by finite difference
             13      6.80e-09     00000 CG Converged
batch 0 complete
Done Calculating Responses
TESTING ORTHOGONALIZATION OF MULTIPOLE BASIS
Multipole virts passed orthogonality test
Virts Per Order
           87
          145
 
 --------------------------------------------------------------
 
                    Orbital Energies (a.u.)
 --------------------------------------------------------------
 
 Alpha MOs
 -- Occupied --
-19.2422 -10.3313 -10.2722 -10.2695 -10.2693 -10.2671 -10.2667 -10.2533
 -1.1860  -0.9886  -0.8947  -0.8774  -0.8027  -0.7420  -0.7062  -0.6561
 -0.5964  -0.5733  -0.5429  -0.5361  -0.5261  -0.5162  -0.5063  -0.4720
 -0.4488  -0.4384  -0.4346  -0.3484  -0.3092
 -- Virtual --
  0.0625   0.0633   0.0740   0.0821   0.0888   0.0998   0.1140   0.1156
  0.1188   0.1366   0.1507   0.1551   0.1600   0.1784   0.1818   0.1979
  0.2024   0.2132   0.2216   0.2306   0.2404   0.2445   0.2535   0.2602
  0.2673   0.2729   0.2781   0.2800   0.2875   0.2993   0.3008   0.3085
  0.3090   0.3141   0.3205   0.3295   0.3390   0.3456   0.3481   0.3522
  0.3577   0.3626   0.3644   0.3762   0.3796   0.3839   0.3885   0.3983
  0.3991   0.4002   0.4079   0.4112   0.4161   0.4232   0.4306   0.4356
  0.4382   0.4597   0.4608   0.4665   0.4743   0.4754   0.4823   0.4874
  0.4888   0.4982   0.5040   0.5079   0.5170   0.5223   0.5329   0.5396
  0.5452   0.5500   0.5528   0.5627   0.5664   0.5733   0.5855   0.5933
  0.6041   0.6074   0.6200   0.6354   0.6370   0.6642   0.6645   0.6751
  0.6829   0.6873   0.6913   0.6960   0.7036   0.7063   0.7172   0.7318
  0.7340   0.7459   0.7506   0.7562   0.7617   0.7776   0.7878   0.7891
  0.7927   0.7942   0.7998   0.8097   0.8118   0.8200   0.8343   0.8373
  0.8444   0.8534   0.8575   0.8619   0.8672   0.8738   0.8903   0.8953
  0.9020   0.9186   0.9351   0.9539   0.9634   0.9797   0.9924   1.0039
  1.0354   1.0397   1.0470   1.0517   1.0567   1.0700   1.0777   1.0903
  1.1001   1.1214   1.1487   1.1749   1.2046   1.2434   1.2532   1.2986
  1.3095   1.3155   1.3284   1.3617   1.3664   1.3893   1.3954   1.4390
  1.4578   1.4660   1.4783   1.4933   1.5321   1.5674   1.6130   1.6215
  1.6374   1.6414   1.6752   1.6844   1.7021   1.7278   1.7893   1.8009
  1.8265   1.8334   1.8339   1.8623   1.8719   1.8814   1.9227   1.9281
  1.9422   1.9582   1.9796   1.9891   2.0082   2.0344   2.0436   2.0582
  2.0600   2.0816   2.0946   2.1094   2.1192   2.1640   2.2021   2.2096
  2.2256   2.2436   2.2671   2.2786   2.3020   2.3133   2.3565   2.3680
  2.4032   2.4107   2.4266   2.4553   2.4987   2.5135   2.5250   2.5589
  2.5767   2.6037   2.6268   2.6428   2.6708   2.6767   2.6830   2.7356
  2.7554   2.7628   2.7856   2.8139   2.8255   2.8359   2.8689   2.8776
  2.9054   2.9296   2.9402   2.9530   2.9603   2.9767   2.9815   3.0045
  3.0242   3.0468   3.0711   3.0788   3.1147   3.1397   3.1523   3.1651
  3.1762   3.2049   3.2164   3.2377   3.2471   3.2634   3.2805   3.2964
  3.3135   3.3622   3.3909   3.3927   3.3955   3.4277   3.4477   3.4616
  3.4653   3.4766   3.4958   3.5160   3.5173   3.5298   3.5348   3.5483
  3.5623   3.5714   3.5776   3.6005   3.6088   3.6204   3.6499   3.6537
  3.6878   3.7108   3.7444   3.7577   3.7845   3.8246   3.8481   3.9047
  3.9335   3.9647   3.9805   3.9976   4.0363   4.0765   4.1285   4.1502
  4.2482   4.2752   4.2866   4.3034   4.3162   4.3295   4.3362   4.3538
  4.3717   4.3857   4.4159   4.4513   4.4936   4.5549   4.6056   4.6126
  4.7381   4.7411   4.7824   4.7993   4.8670   4.9220   5.0230   5.0634
  5.0935   5.1324   5.1528   5.2981   5.3295   5.3932   5.4410   5.5394
  5.5973   5.6396   5.7059   5.7663   5.9467   6.1741   6.4731   6.5556
  6.6287   6.8736   7.0015   7.3007   7.4410  22.6725  22.6829  22.9350
 22.9823  23.0226  23.1718  23.4949  44.4181
 --------------------------------------------------------------
 
          Ground-State Mulliken Net Atomic Charges

     Atom                 Charge (a.u.)
  ----------------------------------------
      1 C                    -1.067111
      2 C                    -0.768595
      3 C                     0.669996
      4 C                    -0.454267
      5 C                     0.494468
      6 C                    -0.408154
      7 C                    -0.626990
      8 O                    -0.556956
      9 H                     0.403555
     10 H                     0.398257
     11 H                     0.368274
     12 H                     0.343077
     13 H                     0.300142
     14 H                     0.281359
     15 H                     0.379345
     16 H                     0.243599
  ----------------------------------------
  Sum of atomic charges =     0.000000

 -----------------------------------------------------------------
                    Cartesian Multipole Moments
 -----------------------------------------------------------------
    Charge (ESU x 10^10)
                 0.0000
    Dipole Moment (Debye)
         X      -0.0664      Y       0.9553      Z       1.7631
       Tot       2.0064
    Quadrupole Moments (Debye-Ang)
        XX     -43.3939     XY      -9.7183     YY     -44.8393
        XZ      -5.5654     YZ       3.3294     ZZ     -44.1690
    Octopole Moments (Debye-Ang^2)
       XXX     266.1936    XXY      74.3745    XYY      92.4186
       YYY      76.2340    XXZ     -32.3291    XYZ     -14.8572
       YYZ     -58.5850    XZZ      99.6865    YZZ      28.8571
       ZZZ    -162.0385
    Hexadecapole Moments (Debye-Ang^3)
      XXXX   -1646.7278   XXXY    -258.7746   XXYY    -325.0817
      XYYY     -41.2532   YYYY    -336.9156   XXXZ      81.9916
      XXYZ      96.7635   XYYZ      69.4275   YYYZ     117.7489
      XXZZ    -474.5102   XYZZ     -22.4042   YYZZ    -201.4480
      XZZZ     202.7184   YZZZ     136.8912   ZZZZ    -844.4803
 -----------------------------------------------------------------
Archival summary:
1\1\nid00558\SP\ProcedureUnspecified\BasisUnspecified\178\meili\MonSep2707:45:492021MonSep2707:45:492021\0\\#,ProcedureUnspecified,BasisUnspecified,\\0,1\C\O,1,1.36388\H,2,0.988642,1,110.984\C,1,1.39304,2,119.282,3,-178.941,0\H,4,1.0796,1,119.767,2,0.742259,0\C,4,1.39555,1,119.933,2,-178.932,0\H,6,1.08218,4,119.359,1,179.568,0\C,1,1.39667,2,120.856,3,1.87796,0\H,8,1.07882,1,119.765,2,-1.1259,0\C,6,1.39844,4,120.981,1,0.100237,0\C,10,1.39723,6,118.655,4,-0.43871,0\H,11,1.0788,10,119.775,6,-178.868,0\C,10,1.51196,6,120.009,4,176.167,0\H,13,1.08869,10,107.81,6,46.0094,0\H,13,1.09068,10,110.514,6,163.4,0\H,13,1.1,10,111.508,6,-73.8553,0\\\@

 Total job time:  35962.16s(wall), 71512.20s(cpu) 
 Mon Sep 27 07:45:52 2021

        *************************************************************
        *                                                           *
        *  Thank you very much for using Q-Chem.  Have a nice day.  *
        *                                                           *
        *************************************************************


Done Job For Fragment 1
calling putenv with: QCSCRATCH=/global/cscratch1/sd/meili 
calling putenv with: QCLOCALSCR=/tmp 
calling putenv with: QCTHREADS=32 
Doing General SCFMI
 Exchange:     0.1670 Hartree-Fock + 1.0000 wB97X-V + LR-HF
 Correlation:  1.0000 wB97X-V
 Using Euler-Maclaurin-Lebedev (99,590) quadrature formula
 Nonlocal Correlation:  VV10 with C = 0.0100 and b = 6.00 and scale = 1.00000
 Grid used for NLC:  SG-1 standard quadrature
performing fock build before subrot guess so that all methods have access
Printing subrot_rss_gen Method Specification:
Occupied Subspace Method is 0
Virtual Subspace Method is 0
Energy of the unrelaxed supersystem initial determinant -618.390107677300
performing fock build before subrot guess so that all methods have access
Printing subrot_rss_gen Method Specification:
Occupied Subspace Method is 0
Virtual Subspace Method is 0
Energy of the unrelaxed supersystem initial determinant w/ solvent -618.414044235193
write pseudocanon occs and virts to disk
write pseudocanon orbital energies to disk
Tolerance of ortho_decomp_scf: 1.00e-06
GDM subspace size: 20
Beginning the Orthogonal Decomposition of the Initial Supersystem Wavefunction
    1    -618.3708203246      1.77e-02     ortho_decomp Preconditoned Steepest Descent
    2    -618.3724170001      4.47e-04     ortho_decomp BFGS Step
    3    -618.3724222709      3.64e-05     ortho_decomp BFGS Step
    4    -618.3724222827      1.58e-06     ortho_decomp BFGS Step
    5    -618.3724222828      5.92e-08     ortho_decomp 00000 Convergence criterion met
 Hartree-Fock
 Hartree-Fock
 Hartree-Fock
Doing General SCFMI
 Exchange:     0.1670 Hartree-Fock + 1.0000 wB97X-V + LR-HF
 Correlation:  1.0000 wB97X-V
 Using Euler-Maclaurin-Lebedev (99,590) quadrature formula
 Nonlocal Correlation:  VV10 with C = 0.0100 and b = 6.00 and scale = 1.00000
 Grid used for NLC:  SG-1 standard quadrature
performing fock build at end of subrot_r(subrot) constructor so that all methods have access
<S^2> of initial wavefunction before polarization iterations 0.0000000000
Beginning iterations for the determination of the polarized wavefunction
Energy prior to optimization (guess energy) = -618.414044235193
Begin Timing: Total SCF Calculation
begin iterations for algorithm: DIIS         
the SCF tolerance is set to 1.00e-08
    1    -618.4140442352      3.56e-05     00000 
    2    -618.4141851812      1.72e-05     00000 
    3    -618.4142062345      8.07e-06     00000 
    4    -618.4142127038      2.30e-06     00000 
    5    -618.4142134202      1.11e-06     00000 
    6    -618.4142135971      3.77e-07     00000 
    7    -618.4142136139      1.84e-07     00000 
    8    -618.4142136170      6.66e-08     00000 
    9    -618.4142136175      2.54e-08     00000 
   10    -618.4142136175      1.00e-08     00000 
   11    -618.4142136176      3.39e-09     00000 Convergence criterion met
write pseudocanon occs and virts to disk
write pseudocanon orbital energies to disk
Timing for Total SCF: 9948.00s (wall), 19812.25s (cpu)
<S^2> of polarized wavefunction after polarization iterations 0.0000000000
relaxing scfmi constraint to allow all rotations in the entire AO span
Doing General SCFMI
 Exchange:     0.1670 Hartree-Fock + 1.0000 wB97X-V + LR-HF
 Correlation:  1.0000 wB97X-V
 Using Euler-Maclaurin-Lebedev (99,590) quadrature formula
 Nonlocal Correlation:  VV10 with C = 0.0100 and b = 6.00 and scale = 1.00000
 Grid used for NLC:  SG-1 standard quadrature
performing fock build at end of subrot_r(subrot) constructor so that all methods have access
<S^2> of polarized wavefunction before ct-allowed iterations 0.0000000000
Beginning iterations for the determination of the CT-Allowed wavefunction
Energy prior to optimization (guess energy) = -618.414213617560
Begin Timing: Total SCF Calculation
begin iterations for algorithm: DIIS         
the SCF tolerance is set to 1.00e-08
    1    -618.4142136176      5.26e-05     00000 
    2    -618.4149229172      5.50e-06     00000 
    3    -618.4149477654      1.00e-06     00000 
    4    -618.4149488485      3.42e-07     00000 
    5    -618.4149488920      1.40e-07     00000 
    6    -618.4149489013      2.86e-08     00000 
    7    -618.4149489017      1.18e-08     00000 
    8    -618.4149489018      3.14e-09     00000 Convergence criterion met
write pseudocanon occs and virts to disk
write pseudocanon orbital energies to disk
Timing for Total SCF: 7371.00s (wall), 14681.37s (cpu)
<S^2> of ct_allowed wavefunction after ct-allowed iterations 0.0000000000

================================
        Results of EDA2         
================================
Basic EDA Quantities
--------------------
Fragment Energies (Ha):
1 -271.5804676623
2 -346.8203105736
--------------------
  E_prp (kJ/mol) = -0.0000
  E_sol (kJ/mol) = 1.6445
  E_frz (kJ/mol) = -9.1571
  E_pol (kJ/mol) = -0.4447
  E_vct (kJ/mol) = -1.9305
  E_int (kJ/mol) = -9.8878
--------------------


Initial Wavefunction Decomposition
--------------------
  --------------------
  Orthogonal Fragment Subspace Decomposition:
  --------------------
     E_elec   (ELEC)   (kJ/mol) = -20.6674
     E_pauli  (PAULI)  (kJ/mol) = 28.8919
     E_disp   (DISP)   (kJ/mol) = -17.3815
     --------------------
     Terms summing to E_pauli:
     --------------------
        E_kep_pauli       (kJ/mol) = 37.2765
        E_disp_free_pauli (kJ/mol) = -8.3846
  --------------------
  Classical Frozen Decomposition:
  --------------------
     E_cls_elec  (CLS ELEC)  (kJ/mol) = -8.7436
     E_cls_pauli (CLS PAULI) (kJ/mol) = -0.4135
    [E_mod_pauli (MOD PAULI) (kJ/mol) = 16.9681 (CLS PAULI - DISP from orthogonal decomposition) ]
  --------------------
--------------------

Simplified EDA Summary (kJ/mol)
--------------------
 PREPARATION     -0.0000
 SOLVATION       1.6445
 FROZEN          8.2245      (does not include dispersion)
[PAULI           28.8919]     (if this is negligible, then frozen describes electrostatics)
 DISPERSION      -17.3815
 POLARIZATION    -0.4447
 CHARGE TRANSFER -1.9305
 TOTAL           -9.8878     (PRP + SOL + FRZ + DISP + POL + CT)
--------------------
 
 --------------------------------------------------------------
 
                    Orbital Energies (a.u.)
 --------------------------------------------------------------
 
 Alpha MOs
 -- Occupied --
-19.2422 -10.3312 -10.2793 -10.2717 -10.2696 -10.2688 -10.2686 -10.2675
-10.2670 -10.2659 -10.2651 -10.2647 -10.2640 -10.2540 -10.2533  -1.1860
 -0.9913  -0.9883  -0.9008  -0.8945  -0.8772  -0.8732  -0.8069  -0.8026
 -0.7418  -0.7240  -0.7060  -0.7000  -0.6560  -0.6231  -0.5963  -0.5731
 -0.5679  -0.5610  -0.5429  -0.5370  -0.5271  -0.5258  -0.5234  -0.5158
 -0.5072  -0.5062  -0.4830  -0.4719  -0.4674  -0.4486  -0.4402  -0.4358
 -0.4346  -0.4314  -0.3490  -0.3453  -0.3312  -0.3088
 -- Virtual --
  0.0577   0.0617   0.0659   0.0676   0.0721   0.0761   0.0804   0.0841
  0.0929   0.0985   0.1052   0.1074   0.1108   0.1146   0.1228   0.1275
  0.1371   0.1422   0.1468   0.1537   0.1547   0.1651   0.1688   0.1758
  0.1795   0.1813   0.1818   0.1909   0.1969   0.2044   0.2154   0.2167
  0.2190   0.2252   0.2292   0.2342   0.2363   0.2397   0.2433   0.2487
  0.2523   0.2560   0.2613   0.2653   0.2672   0.2699   0.2713   0.2783
  0.2816   0.2860   0.2873   0.2895   0.2931   0.2969   0.3008   0.3023
  0.3104   0.3113   0.3155   0.3180   0.3214   0.3246   0.3269   0.3319
  0.3337   0.3373   0.3408   0.3449   0.3469   0.3501   0.3514   0.3557
  0.3574   0.3633   0.3679   0.3707   0.3717   0.3767   0.3777   0.3803
  0.3826   0.3864   0.3883   0.3907   0.3931   0.3978   0.4000   0.4049
  0.4079   0.4100   0.4143   0.4168   0.4186   0.4197   0.4282   0.4321
  0.4335   0.4360   0.4363   0.4385   0.4451   0.4485   0.4509   0.4542
  0.4593   0.4626   0.4647   0.4686   0.4703   0.4724   0.4782   0.4799
  0.4845   0.4847   0.4875   0.4910   0.4949   0.4991   0.5037   0.5064
  0.5090   0.5113   0.5134   0.5190   0.5226   0.5248   0.5319   0.5329
  0.5350   0.5423   0.5469   0.5487   0.5507   0.5582   0.5642   0.5675
  0.5699   0.5713   0.5775   0.5831   0.5859   0.5898   0.5948   0.5990
  0.6046   0.6089   0.6110   0.6174   0.6229   0.6257   0.6310   0.6328
  0.6378   0.6419   0.6444   0.6528   0.6601   0.6642   0.6680   0.6727
  0.6801   0.6825   0.6846   0.6897   0.6928   0.6945   0.6992   0.7011
  0.7068   0.7111   0.7186   0.7204   0.7216   0.7278   0.7382   0.7407
  0.7419   0.7475   0.7500   0.7550   0.7570   0.7640   0.7652   0.7664
  0.7706   0.7721   0.7792   0.7832   0.7847   0.7877   0.7954   0.8002
  0.8002   0.8035   0.8047   0.8078   0.8102   0.8178   0.8209   0.8213
  0.8251   0.8281   0.8338   0.8345   0.8399   0.8440   0.8467   0.8486
  0.8509   0.8542   0.8617   0.8653   0.8721   0.8746   0.8768   0.8858
  0.8870   0.8901   0.8979   0.9007   0.9045   0.9069   0.9078   0.9113
  0.9253   0.9275   0.9343   0.9431   0.9455   0.9516   0.9578   0.9612
  0.9641   0.9840   0.9900   0.9927   0.9990   1.0018   1.0126   1.0204
  1.0271   1.0355   1.0427   1.0444   1.0520   1.0661   1.0685   1.0797
  1.0846   1.0883   1.0921   1.0971   1.1024   1.1045   1.1193   1.1223
  1.1340   1.1418   1.1452   1.1631   1.1685   1.1761   1.1893   1.1961
  1.2039   1.2110   1.2219   1.2395   1.2488   1.2552   1.2917   1.2949
  1.3206   1.3322   1.3355   1.3417   1.3480   1.3596   1.3638   1.3763
  1.3824   1.3949   1.4069   1.4193   1.4323   1.4437   1.4515   1.4623
  1.4719   1.4824   1.4857   1.4954   1.5015   1.5052   1.5258   1.5364
  1.5432   1.5553   1.5647   1.5745   1.5796   1.6135   1.6230   1.6352
  1.6457   1.6495   1.6584   1.6692   1.6734   1.6872   1.7050   1.7243
  1.7364   1.7526   1.7739   1.7909   1.8038   1.8133   1.8169   1.8227
  1.8271   1.8346   1.8428   1.8526   1.8627   1.8797   1.8948   1.9043
  1.9088   1.9239   1.9344   1.9420   1.9472   1.9517   1.9709   1.9764
  1.9818   1.9895   1.9930   2.0047   2.0071   2.0182   2.0288   2.0408
  2.0476   2.0520   2.0671   2.0692   2.0733   2.0849   2.0871   2.0946
  2.0994   2.1038   2.1108   2.1149   2.1190   2.1376   2.1441   2.1700
  2.1849   2.1899   2.1943   2.2065   2.2279   2.2379   2.2430   2.2510
  2.2638   2.2685   2.2778   2.2801   2.2915   2.3070   2.3154   2.3347
  2.3368   2.3482   2.3676   2.3810   2.4054   2.4127   2.4209   2.4292
  2.4327   2.4449   2.4490   2.4701   2.4777   2.5008   2.5221   2.5279
  2.5364   2.5552   2.5602   2.5848   2.5876   2.5967   2.6099   2.6141
  2.6311   2.6497   2.6609   2.6633   2.6861   2.6892   2.6967   2.7039
  2.7146   2.7290   2.7342   2.7483   2.7522   2.7630   2.7775   2.7857
  2.8001   2.8060   2.8110   2.8229   2.8308   2.8408   2.8453   2.8639
  2.8683   2.8707   2.8854   2.9146   2.9204   2.9263   2.9344   2.9437
  2.9468   2.9605   2.9664   2.9693   2.9746   2.9847   2.9896   3.0025
  3.0054   3.0108   3.0205   3.0267   3.0382   3.0533   3.0635   3.0728
  3.0855   3.0916   3.0947   3.1006   3.1057   3.1367   3.1394   3.1662
  3.1792   3.1806   3.1875   3.1985   3.2050   3.2192   3.2270   3.2387
  3.2466   3.2633   3.2659   3.2789   3.2891   3.2953   3.3004   3.3076
  3.3219   3.3345   3.3428   3.3481   3.3686   3.3779   3.3870   3.3958
  3.4078   3.4186   3.4260   3.4309   3.4382   3.4503   3.4573   3.4626
  3.4735   3.4823   3.4890   3.4952   3.5027   3.5073   3.5097   3.5124
  3.5147   3.5181   3.5299   3.5361   3.5420   3.5473   3.5510   3.5596
  3.5708   3.5760   3.5841   3.5857   3.5890   3.5932   3.6001   3.6024
  3.6114   3.6127   3.6246   3.6339   3.6501   3.6579   3.6629   3.6719
  3.6767   3.6853   3.6993   3.7095   3.7223   3.7283   3.7383   3.7597
  3.7753   3.7962   3.8087   3.8335   3.8417   3.8553   3.8659   3.9005
  3.9130   3.9246   3.9483   3.9527   3.9760   3.9790   3.9957   3.9989
  4.0273   4.0466   4.0537   4.0881   4.0972   4.1354   4.1412   4.1623
  4.2350   4.2636   4.2805   4.2839   4.2921   4.2966   4.3093   4.3191
  4.3256   4.3324   4.3359   4.3414   4.3432   4.3544   4.3600   4.3666
  4.3740   4.3788   4.3886   4.4015   4.4276   4.4455   4.4491   4.4528
  4.4698   4.4936   4.5023   4.5636   4.5677   4.6054   4.6275   4.6418
  4.6755   4.7364   4.7454   4.7543   4.7779   4.7933   4.8127   4.8215
  4.8790   4.8851   4.9226   4.9440   4.9761   5.0318   5.0526   5.0564
  5.0701   5.1089   5.1417   5.1582   5.1713   5.2986   5.3062   5.3348
  5.3818   5.3858   5.3985   5.4465   5.4949   5.5288   5.5475   5.5998
  5.6452   5.7020   5.7148   5.7712   5.8285   5.9495   6.1767   6.4753
  6.5591   6.6512   6.8821   7.0064   7.3077   7.4481  22.6329  22.6770
 22.7089  22.7380  22.9221  22.9477  22.9753  23.0176  23.0269  23.0604
 23.0859  23.1964  23.4309  23.5025  44.4532
 --------------------------------------------------------------
 
          Ground-State Mulliken Net Atomic Charges

     Atom                 Charge (a.u.)
  ----------------------------------------
      1 C                    -1.190554
      2 C                    -0.437518
      3 C                    -0.557420
      4 C                    -0.477446
      5 C                    -0.393782
      6 C                    -0.572304
      7 C                     0.571213
      8 H                     0.491318
      9 H                     0.395872
     10 H                     0.447852
     11 H                     0.418579
     12 H                     0.416198
     13 H                     0.313914
     14 H                     0.239735
     15 H                     0.313956
     16 C                    -1.285949
     17 C                    -0.781602
     18 C                     0.642545
     19 C                    -0.332264
     20 C                     0.611361
     21 C                    -0.429067
     22 C                    -0.666129
     23 O                    -0.565205
     24 H                     0.403741
     25 H                     0.422290
     26 H                     0.378008
     27 H                     0.350694
     28 H                     0.304180
     29 H                     0.293927
     30 H                     0.375677
     31 H                     0.298185
  ----------------------------------------
  Sum of atomic charges =     0.000000

 -----------------------------------------------------------------
                    Cartesian Multipole Moments
 -----------------------------------------------------------------
    Charge (ESU x 10^10)
                -0.0000
    Dipole Moment (Debye)
         X       0.4578      Y       0.7373      Z       1.6870
       Tot       1.8972
    Quadrupole Moments (Debye-Ang)
        XX     -78.1188     XY     -10.3809     YY     -91.5128
        XZ      -6.4302     YZ       5.3357     ZZ     -81.8558
    Octopole Moments (Debye-Ang^2)
       XXX     -22.4311    XXY      52.2927    XYY     -26.4878
       YYY      -3.9128    XXZ      14.9745    XYZ     -10.5088
       YYZ       6.9755    XZZ       0.5742    YZZ       2.9649
       ZZZ      -6.5286
    Hexadecapole Moments (Debye-Ang^3)
      XXXX   -3804.6530   XXXY    -412.8032   XXYY    -761.7510
      XYYY    -232.9293   YYYY    -505.7425   XXXZ     512.1113
      XXYZ     130.1309   XYYZ     246.3357   YYYZ     199.3339
      XXZZ    -950.6546   XYZZ     -83.5073   YYZZ    -375.0755
      XZZZ     640.5148   YZZZ     215.6868   ZZZZ   -1555.0271
 -----------------------------------------------------------------
Archival summary:
1\1\nid00558\SP\ProcedureUnspecified\BasisUnspecified\11416\meili\MonSep2716:52:102021MonSep2716:52:102021\0\\#,ProcedureUnspecified,BasisUnspecified,\\0,1\C\C,1,1.39723\H,2,1.0788,1,119.775\C,1,1.39844,2,118.655,3,-178.868,0\H,4,1.08218,1,119.657,2,-179.905,0\C,4,1.39555,1,120.981,2,-0.43871,0\H,6,1.0796,4,120.299,1,-179.572,0\C,6,1.39304,4,119.933,1,0.100237,0\O,8,1.36388,6,119.282,4,-178.932,0\H,9,0.988642,8,110.984,6,-178.941,0\C,8,1.39667,6,119.856,4,0.256933,0\H,11,1.07882,8,119.765,6,179.698,0\C,1,1.51196,2,121.247,3,4.5696,0\H,13,1.08869,1,107.81,2,-137.475,0\H,13,1.09068,1,110.514,2,-20.0842,0\H,13,1.1,1,111.508,2,102.661,0\H,6,2.85739,4,76.0712,1,91.3429,0\C,17,1.08211,6,137.775,4,38.9032,0\C,18,1.39384,17,120.029,6,-91.2693,0\H,19,1.07889,18,119.241,17,1.28874,0\C,18,1.39479,17,120.14,6,88.7061,0\H,21,1.08156,18,119.942,17,-0.281192,0\C,19,1.39538,18,119.941,17,179.944,0\H,23,1.0777,19,117.305,18,-177.148,0\C,21,1.39825,18,120,17,179.857,0\H,25,1.07935,21,119.431,18,179.881,0\C,25,1.39605,21,120.579,18,0.107979,0\C,27,1.50614,25,120.496,21,179.301,0\H,28,1.08677,27,110.403,25,23.8404,0\H,28,1.09155,27,107.189,25,-92.2041,0\H,28,1.1,27,113.795,25,148.394,0\\\@

 Total job time:  95590.69s(wall), 65339.67s(cpu) 
 Mon Sep 27 16:52:12 2021

        *************************************************************
        *                                                           *
        *  Thank you very much for using Q-Chem.  Have a nice day.  *
        *                                                           *
        *************************************************************


