
Running Job 1 of 1 SSI-110PHE-128PHE-1_PCM_TZVPD.in
qchem SSI-110PHE-128PHE-1_PCM_TZVPD.in_34913.0 /tmp/qchem34913/ 0
/global/common/cori/software/qchem/5.2/exe/qcprog.exe_s SSI-110PHE-128PHE-1_PCM_TZVPD.in_34913.0 /tmp/qchem34913/
                  Welcome to Q-Chem
     A Quantum Leap Into The Future Of Chemistry


 Q-Chem 5.2, Q-Chem, Inc., Pleasanton, CA (2019)

 License issued to: National Energy Research Scientific Computing Center

 Yihan Shao,  Zhengting Gan,  E. Epifanovsky,  A. T. B. Gilbert,  M. Wormit,  
 J. Kussmann,  A. W. Lange,  A. Behn,  Jia Deng,  Xintian Feng,  D. Ghosh,  
 M. Goldey,  P. R. Horn,  L. D. Jacobson,  I. Kaliman,  T. Kus,  A. Landau,  
 Jie Liu,  E. I. Proynov,  R. M. Richard,  R. P. Steele,  E. J. Sundstrom,  
 H. L. Woodcock III,  P. M. Zimmerman,  D. Zuev,  B. Albrecht,  E. Alguire,  
 S. A. Baeppler,  D. Barton,  Z. Benda,  Y. A. Bernard,  E. J. Berquist,  
 K. B. Bravaya,  H. Burton,  D. Casanova,  Chun-Min Chang,  Yunqing Chen,  
 A. Chien,  K. D. Closser,  M. P. Coons,  S. Coriani,  S. Dasgupta,  
 A. L. Dempwolff,  M. Diedenhofen,  Hainam Do,  R. G. Edgar,  Po-Tung Fang,  
 S. Faraji,  S. Fatehi,  Qingguo Feng,  K. D. Fenk,  J. Fosso-Tande,  
 J. Gayvert,  Qinghui Ge,  A. Ghysels,  G. Gidofalvi,  J. Gomes,  
 J. Gonthier,  A. Gunina,  D. Hait,  M. W. D. Hanson-Heine,  
 P. H. P. Harbach,  A. W. Hauser,  M. F. Herbst,  J. E. Herr,  
 E. G. Hohenstein,  Z. C. Holden,  Kerwin Hui,  B. C. Huynh,  T.-C. Jagau,  
 Hyunjun Ji,  B. Kaduk,  K. Khistyaev,  Jaehoon Kim,  P. Klunzinger,  K. Koh,  
 D. Kosenkov,  L. Koulias,  T. Kowalczyk,  C. M. Krauter,  A. Kunitsa,  
 Ka Un Lao,  A. Laurent,  K. V. Lawler,  Joonho Lee,  D. Lefrancois,  
 S. Lehtola,  D. S. Levine,  Yi-Pei Li,  You-Sheng Lin,  Fenglai Liu,  
 E. Livshits,  A. Luenser,  P. Manohar,  E. Mansoor,  S. F. Manzer,  
 Shan-Ping Mao,  Yuezhi Mao,  N. Mardirossian,  A. V. Marenich,  
 T. Markovich,  L. A. Martinez-Martinez,  S. A. Maurer,  N. J. Mayhall,  
 S. C. McKenzie,  J.-M. Mewes,  P. Morgante,  A. F. Morrison,  
 J. W. Mullinax,  K. Nanda,  T. S. Nguyen-Beck,  R. Olivares-Amaya,  
 J. A. Parkhill,  Zheng Pei,  T. M. Perrine,  F. Plasser,  P. Pokhilko,  
 S. Prager,  A. Prociuk,  E. Ramos,  D. R. Rehn,  F. Rob,  M. Scheurer,  
 M. Schneider,  N. Sergueev,  S. M. Sharada,  S. Sharma,  D. W. Small,  
 T. Stauch,  T. Stein,  Yu-Chuan Su,  A. J. W. Thom,  A. Tkatchenko,  
 T. Tsuchimochi,  N. M. Tubman,  L. Vogt,  M. L. Vidal,  O. Vydrov,  
 M. A. Watson,  J. Wenzel,  M. de Wergifosse,  T. A. Wesolowski,  A. White,  
 J. Witte,  A. Yamada,  Jun Yang,  K. Yao,  S. Yeganeh,  S. R. Yost,  
 Zhi-Qiang You,  A. Zech,  Igor Ying Zhang,  Xing Zhang,  Yan Zhao,  
 Ying Zhu,  B. R. Brooks,  G. K. L. Chan,  C. J. Cramer,  M. S. Gordon,  
 W. J. Hehre,  A. Klamt,  M. W. Schmidt,  C. D. Sherrill,  D. G. Truhlar,  
 A. Aspuru-Guzik,  R. Baer,  A. T. Bell,  N. A. Besley,  Jeng-Da Chai,  
 A. E. DePrince, III,  R. A. DiStasio Jr.,  A. Dreuw,  B. D. Dunietz,  
 T. R. Furlani,  Chao-Ping Hsu,  Yousung Jung,  Jing Kong,  D. S. Lambrecht,  
 WanZhen Liang,  C. Ochsenfeld,  V. A. Rassolov,  L. V. Slipchenko,  
 J. E. Subotnik,  T. Van Voorhis,  J. M. Herbert,  A. I. Krylov,  
 P. M. W. Gill,  M. Head-Gordon

 Contributors to earlier versions of Q-Chem not listed above: 
 R. D. Adamson,  B. Austin,  J. Baker,  G. J. O. Beran,  K. Brandhorst,  
 S. T. Brown,  E. F. C. Byrd,  A. K. Chakraborty,  C.-L. Cheng,  
 Siu Hung Chien,  D. M. Chipman,  D. L. Crittenden,  H. Dachsel,  
 R. J. Doerksen,  A. D. Dutoi,  L. Fusti-Molnar,  W. A. Goddard III,  
 A. Golubeva-Zadorozhnaya,  S. R. Gwaltney,  G. Hawkins,  A. Heyden,  
 S. Hirata,  G. Kedziora,  F. J. Keil,  C. Kelley,  Jihan Kim,  R. A. King,  
 R. Z. Khaliullin,  P. P. Korambath,  W. Kurlancheek,  A. M. Lee,  M. S. Lee,  
 S. V. Levchenko,  Ching Yeh Lin,  D. Liotard,  R. C. Lochan,  I. Lotan,  
 P. E. Maslen,  N. Nair,  D. P. O'Neill,  D. Neuhauser,  E. Neuscamman,  
 C. M. Oana,  R. Olson,  B. Peters,  R. Peverati,  P. A. Pieniazek,  
 Y. M. Rhee,  J. Ritchie,  M. A. Rohrdanz,  E. Rosta,  N. J. Russ,  
 H. F. Schaefer III,  N. E. Schultz,  N. Shenvi,  A. C. Simmonett,  A. Sodt,  
 D. Stuck,  K. S. Thanthiriwatte,  V. Vanovschi,  Tao Wang,  A. Warshel,  
 C. F. Williams,  Q. Wu,  X. Xu,  W. Zhang

 Please cite Q-Chem as follows:
 Y. Shao et al., Mol. Phys. 113, 184-215 (2015)
 DOI: 10.1080/00268976.2014.952696

 Q-Chem 5.2.0 for Intel X86 EM64T Linux

 Parts of Q-Chem use Armadillo 8.300.2 (Tropical Shenanigans).
 http://arma.sourceforge.net/

 Q-Chem begins on Sun Sep 26 13:31:27 2021  

Host: cori01
0

     Scratch files written to /tmp/qchem34913//
 May1019 |scratch|qcdevops|jenkins|workspace|build_RNUM -1
Processing $rem in /global/common/cori/software/qchem/5.2/config/preferences:
	 MEM_TOTAL  96000 
NAlpha2: 100
NElect   100
Mult     1
Symmetry turned off for PCM/SM12/SMD calculation

 Q-Chem warning in module libgen/rem_setup.C, line 2803:

 Neither GIA nor STOLL is specified by user. Use STOLL as the default


Checking the input file for inconsistencies... 	...done.

--------------------------------------------------------------
User input:
--------------------------------------------------------------
$comment
SSI-110PHE-128PHE-1.pdb
$end

$molecule
0 1
--
0 1
C   -1.127557391308    1.176168413505   -4.651331733821
C   -0.621557391308   -0.093831586495   -1.058331733821
C   -1.780557391308    0.341168413505   -0.408331733821
C   -0.448557391308    0.160168413505   -2.432331733821
C   -1.410557391308    0.855168413505   -3.176331733821
C   -2.768557391308    1.035168413505   -1.135331733821
C   -2.572557391308    1.288168413505   -2.519331733821
H    0.140442608692   -0.619831586495   -0.503331733821
H   -1.910557391308    0.143168413505    0.647668266179
H    0.445442608692   -0.183831586495   -2.936331733821
H   -3.667557391308    1.373168413505   -0.630331733821
H   -0.310557391308    0.527168413505   -4.973331733821
H   -0.780557391308    2.211168413505   -4.691331733821
H   -3.320557391308    1.825168413505   -3.087331733821
H   -1.966027391308    1.006668413505   -5.342871733821
--
0 1
C    1.367442608692   -2.783831586495    0.927668266179
C    1.497442608692   -1.497831586495    1.739668266179
C    2.223442608692   -0.396831586495    1.254668266179
C    0.842442608692   -1.381831586495    2.965668266179
C    2.274442608692    0.807168413505    2.006668266179
C    0.893442608692   -0.198831586495    3.713668266179
C    1.600442608692    0.887168413505    3.239668266179
H    1.199442608692   -2.483831586495   -0.104331733821
H    0.477442608692   -3.305831586495    1.286668266179
H    2.737442608692   -0.473831586495    0.304668266179
H    0.283442608692   -2.228831586495    3.339668266179
H    2.815442608692    1.671168413505    1.648668266179
H    0.383442608692   -0.123831586495    4.662668266179
H    1.627442608692    1.796168413505    3.823668266179
H    2.212602608692   -3.483931586495    1.002698266179
$end

$rem
JOBTYPE			EDA
EDA2			1
method			wB97X-V
BASIS			def2-TZVPD
XC_GRID			000099000590
NL_GRID			1
UNRESTRICTED		FALSE
MAX_SCF_CYCLES		200
SYMMETRY		FALSE
SYM_IGNORE		TRUE
MEM_STATIC		2000
BASIS_LIN_DEP_THRESH 	6
THRESH 			14
SCF_CONVERGENCE 	8
SCF_PRINT_FRGM 		TRUE
SOLVENT_METHOD          PCM
$end

$PCM
THEORY                  CPCM
METHOD                  SWIG
SOLVER                  INVERSION
RADII                   UFF
HPOINTS                 302
HEAVYPOINTS             302
PRINTLEVEL              0
$END

$SOLVENT
DIELECTRIC              78.390000 ! water
$END
--------------------------------------------------------------
 ----------------------------------------------------------------
             Standard Nuclear Orientation (Angstroms)
    I     Atom           X                Y                Z
 ----------------------------------------------------------------
    1      C      -1.1275573913     1.1761684135    -4.6513317338
    2      C      -0.6215573913    -0.0938315865    -1.0583317338
    3      C      -1.7805573913     0.3411684135    -0.4083317338
    4      C      -0.4485573913     0.1601684135    -2.4323317338
    5      C      -1.4105573913     0.8551684135    -3.1763317338
    6      C      -2.7685573913     1.0351684135    -1.1353317338
    7      C      -2.5725573913     1.2881684135    -2.5193317338
    8      H       0.1404426087    -0.6198315865    -0.5033317338
    9      H      -1.9105573913     0.1431684135     0.6476682662
   10      H       0.4454426087    -0.1838315865    -2.9363317338
   11      H      -3.6675573913     1.3731684135    -0.6303317338
   12      H      -0.3105573913     0.5271684135    -4.9733317338
   13      H      -0.7805573913     2.2111684135    -4.6913317338
   14      H      -3.3205573913     1.8251684135    -3.0873317338
   15      H      -1.9660273913     1.0066684135    -5.3428717338
   16      C       1.3674426087    -2.7838315865     0.9276682662
   17      C       1.4974426087    -1.4978315865     1.7396682662
   18      C       2.2234426087    -0.3968315865     1.2546682662
   19      C       0.8424426087    -1.3818315865     2.9656682662
   20      C       2.2744426087     0.8071684135     2.0066682662
   21      C       0.8934426087    -0.1988315865     3.7136682662
   22      C       1.6004426087     0.8871684135     3.2396682662
   23      H       1.1994426087    -2.4838315865    -0.1043317338
   24      H       0.4774426087    -3.3058315865     1.2866682662
   25      H       2.7374426087    -0.4738315865     0.3046682662
   26      H       0.2834426087    -2.2288315865     3.3396682662
   27      H       2.8154426087     1.6711684135     1.6486682662
   28      H       0.3834426087    -0.1238315865     4.6626682662
   29      H       1.6274426087     1.7961684135     3.8236682662
   30      H       2.2126026087    -3.4839315865     1.0026982662
 ----------------------------------------------------------------
 Nuclear Repulsion Energy =         766.91878588 hartrees
 There are       50 alpha and       50 beta electrons
 Requested basis set is def2-TZVPD
 There are 262 shells and 662 basis functions

 Total QAlloc Memory Limit  96000 MB
 Mega-Array Size      1956 MB
 MEM_STATIC part      2000 MB
 Discretize the solute cavity surface with Lebedev spheres
	Using 302 Lebedev grid points for each H atom
	Using 302 Lebedev grid points for other atoms
	Atomic van der Waals radii will be scaled by 1.20
 Remove points where switching function is < 1.0e-08
 Keep 3433 surface tesserae and discard 5627 interior tesserae
 Molecular Surface Area = 330.609 Angst**2
 A cutoff of  1.0D-14 yielded  29076 shell pairs
 There are    186124 function pairs (    234510 Cartesian)
 Smallest overlap matrix eigenvalue = 5.30E-07
 Linear dependence detected in AO basis
 Tighter screening thresholds may be required for diffuse basis sets
 Use S2THRESH > 14 and THRESH = 14 in case of SCF convergence issues
 Number of orthogonalized atomic orbitals = 659
 Maximum deviation from orthogonality = 4.632E-10

 Scale SEOQF with 1.000000e-01/1.000000e-01/1.000000e-02

 Standard Electronic Orientation quadrupole field applied
 Nucleus-field energy     =     0.0000000149 hartrees

 -----------------------------------------------------------------------
  General SCF calculation program by
  Eric Jon Sundstrom, Paul Horn, Yuezhi Mao, Dmitri Zuev, Alec White,
  David Stuck, Shaama M.S., Shane Yost, Joonho Lee, David Small,
  Daniel Levine, Susi Lehtola, Hugh Burton, Evgeny Epifanovsky
 -----------------------------------------------------------------------
================================================================
                 ALMO-EDA with the EDA2 driver                  
================================================================
 The second-generation ALMO-EDA (for DFT):                      
 P. R. Horn, Y. Mao and M. Head-Gordon, PCCP, 18, 23067 (2016)  
 Decomposition of the frozen energy:                            
 P. R. Horn, Y. Mao and M. Head-Gordon, JCP, 144, 114107 (2016) 
 FERF model for polarization:                                   
 P. R. Horn and M. Head-Gordon, JCP, 143, 114111 (2015)         
Using eda2 option set 1
Option set summary: Frozen orbital wavefunction, initial wavefunction decomposition, and nDQ polarization.
--------------------------------
Printing EDA Options
--------------------------------
eda_child_super_basis      0
fragmo_guess_mode          0
child_mp                   1
child_mp_orders            232
cls_elec                   1
cls_disp                   0
scfmi_mode                 1
scfmi_occs                 0
scfmi_virts                0
frz_relax                  0
frz_relax_method           0
dc_pen_start               0
dc_pen_conv                0
dc_pen_increment           0
dc_pen_steps               0
dc_pen_thresh_factor       0
dc_pen_pre_newton_thresh   0
frz_ortho_decomp           1
frz_ortho_decomp_conv      6
frgm_method                2
scfmi_freeze_ss            0
separate_rehyb             0
plot_diff_den              0
eda_nocv                   0
eda_vct_relax              1
disp_free_x                0
disp_free_c                0
eda_bsse                   0
eda_pct_a                  0
eda_covp                   0
--------------------------------
Attempting to make child job directory: /tmp/qchem34913//Frg1/
Attempting to make child job directory: /tmp/qchem34913//Frg2/
Creating input file /tmp/qchem34913/Frg1.input
using default PutDataFrgm: nothing
calling putenv with: QCSCRATCH=/tmp/qchem34913/ 
calling putenv with: QCLOCALSCR=/tmp/qchem34913/ 
Spawning Job For Fragment 0
                  Welcome to Q-Chem
     A Quantum Leap Into The Future Of Chemistry


 Q-Chem 5.2, Q-Chem, Inc., Pleasanton, CA (2019)

 License issued to: National Energy Research Scientific Computing Center

 Yihan Shao,  Zhengting Gan,  E. Epifanovsky,  A. T. B. Gilbert,  M. Wormit,  
 J. Kussmann,  A. W. Lange,  A. Behn,  Jia Deng,  Xintian Feng,  D. Ghosh,  
 M. Goldey,  P. R. Horn,  L. D. Jacobson,  I. Kaliman,  T. Kus,  A. Landau,  
 Jie Liu,  E. I. Proynov,  R. M. Richard,  R. P. Steele,  E. J. Sundstrom,  
 H. L. Woodcock III,  P. M. Zimmerman,  D. Zuev,  B. Albrecht,  E. Alguire,  
 S. A. Baeppler,  D. Barton,  Z. Benda,  Y. A. Bernard,  E. J. Berquist,  
 K. B. Bravaya,  H. Burton,  D. Casanova,  Chun-Min Chang,  Yunqing Chen,  
 A. Chien,  K. D. Closser,  M. P. Coons,  S. Coriani,  S. Dasgupta,  
 A. L. Dempwolff,  M. Diedenhofen,  Hainam Do,  R. G. Edgar,  Po-Tung Fang,  
 S. Faraji,  S. Fatehi,  Qingguo Feng,  K. D. Fenk,  J. Fosso-Tande,  
 J. Gayvert,  Qinghui Ge,  A. Ghysels,  G. Gidofalvi,  J. Gomes,  
 J. Gonthier,  A. Gunina,  D. Hait,  M. W. D. Hanson-Heine,  
 P. H. P. Harbach,  A. W. Hauser,  M. F. Herbst,  J. E. Herr,  
 E. G. Hohenstein,  Z. C. Holden,  Kerwin Hui,  B. C. Huynh,  T.-C. Jagau,  
 Hyunjun Ji,  B. Kaduk,  K. Khistyaev,  Jaehoon Kim,  P. Klunzinger,  K. Koh,  
 D. Kosenkov,  L. Koulias,  T. Kowalczyk,  C. M. Krauter,  A. Kunitsa,  
 Ka Un Lao,  A. Laurent,  K. V. Lawler,  Joonho Lee,  D. Lefrancois,  
 S. Lehtola,  D. S. Levine,  Yi-Pei Li,  You-Sheng Lin,  Fenglai Liu,  
 E. Livshits,  A. Luenser,  P. Manohar,  E. Mansoor,  S. F. Manzer,  
 Shan-Ping Mao,  Yuezhi Mao,  N. Mardirossian,  A. V. Marenich,  
 T. Markovich,  L. A. Martinez-Martinez,  S. A. Maurer,  N. J. Mayhall,  
 S. C. McKenzie,  J.-M. Mewes,  P. Morgante,  A. F. Morrison,  
 J. W. Mullinax,  K. Nanda,  T. S. Nguyen-Beck,  R. Olivares-Amaya,  
 J. A. Parkhill,  Zheng Pei,  T. M. Perrine,  F. Plasser,  P. Pokhilko,  
 S. Prager,  A. Prociuk,  E. Ramos,  D. R. Rehn,  F. Rob,  M. Scheurer,  
 M. Schneider,  N. Sergueev,  S. M. Sharada,  S. Sharma,  D. W. Small,  
 T. Stauch,  T. Stein,  Yu-Chuan Su,  A. J. W. Thom,  A. Tkatchenko,  
 T. Tsuchimochi,  N. M. Tubman,  L. Vogt,  M. L. Vidal,  O. Vydrov,  
 M. A. Watson,  J. Wenzel,  M. de Wergifosse,  T. A. Wesolowski,  A. White,  
 J. Witte,  A. Yamada,  Jun Yang,  K. Yao,  S. Yeganeh,  S. R. Yost,  
 Zhi-Qiang You,  A. Zech,  Igor Ying Zhang,  Xing Zhang,  Yan Zhao,  
 Ying Zhu,  B. R. Brooks,  G. K. L. Chan,  C. J. Cramer,  M. S. Gordon,  
 W. J. Hehre,  A. Klamt,  M. W. Schmidt,  C. D. Sherrill,  D. G. Truhlar,  
 A. Aspuru-Guzik,  R. Baer,  A. T. Bell,  N. A. Besley,  Jeng-Da Chai,  
 A. E. DePrince, III,  R. A. DiStasio Jr.,  A. Dreuw,  B. D. Dunietz,  
 T. R. Furlani,  Chao-Ping Hsu,  Yousung Jung,  Jing Kong,  D. S. Lambrecht,  
 WanZhen Liang,  C. Ochsenfeld,  V. A. Rassolov,  L. V. Slipchenko,  
 J. E. Subotnik,  T. Van Voorhis,  J. M. Herbert,  A. I. Krylov,  
 P. M. W. Gill,  M. Head-Gordon

 Contributors to earlier versions of Q-Chem not listed above: 
 R. D. Adamson,  B. Austin,  J. Baker,  G. J. O. Beran,  K. Brandhorst,  
 S. T. Brown,  E. F. C. Byrd,  A. K. Chakraborty,  C.-L. Cheng,  
 Siu Hung Chien,  D. M. Chipman,  D. L. Crittenden,  H. Dachsel,  
 R. J. Doerksen,  A. D. Dutoi,  L. Fusti-Molnar,  W. A. Goddard III,  
 A. Golubeva-Zadorozhnaya,  S. R. Gwaltney,  G. Hawkins,  A. Heyden,  
 S. Hirata,  G. Kedziora,  F. J. Keil,  C. Kelley,  Jihan Kim,  R. A. King,  
 R. Z. Khaliullin,  P. P. Korambath,  W. Kurlancheek,  A. M. Lee,  M. S. Lee,  
 S. V. Levchenko,  Ching Yeh Lin,  D. Liotard,  R. C. Lochan,  I. Lotan,  
 P. E. Maslen,  N. Nair,  D. P. O'Neill,  D. Neuhauser,  E. Neuscamman,  
 C. M. Oana,  R. Olson,  B. Peters,  R. Peverati,  P. A. Pieniazek,  
 Y. M. Rhee,  J. Ritchie,  M. A. Rohrdanz,  E. Rosta,  N. J. Russ,  
 H. F. Schaefer III,  N. E. Schultz,  N. Shenvi,  A. C. Simmonett,  A. Sodt,  
 D. Stuck,  K. S. Thanthiriwatte,  V. Vanovschi,  Tao Wang,  A. Warshel,  
 C. F. Williams,  Q. Wu,  X. Xu,  W. Zhang

 Please cite Q-Chem as follows:
 Y. Shao et al., Mol. Phys. 113, 184-215 (2015)
 DOI: 10.1080/00268976.2014.952696

 Q-Chem 5.2.0 for Intel X86 EM64T Linux

 Parts of Q-Chem use Armadillo 8.300.2 (Tropical Shenanigans).
 http://arma.sourceforge.net/

 Q-Chem begins on Sun Sep 26 13:31:35 2021  

Host: cori01
0

     Scratch files written to /tmp/qchem34913//Frg1//
 May1019 |scratch|qcdevops|jenkins|workspace|build_RNUM -1
Processing $rem in /global/common/cori/software/qchem/5.2/config/preferences:
	 MEM_TOTAL  96000 
NAlpha2: 50
NElect   50
Mult     1
Symmetry turned off for PCM/SM12/SMD calculation

Checking the input file for inconsistencies... 	...done.

--------------------------------------------------------------
User input:
--------------------------------------------------------------
$molecule
0 1
 6	-1.1275573913	1.1761684135	-4.6513317338
 6	-0.6215573913	-0.0938315865	-1.0583317338
 6	-1.7805573913	0.3411684135	-0.4083317338
 6	-0.4485573913	0.1601684135	-2.4323317338
 6	-1.4105573913	0.8551684135	-3.1763317338
 6	-2.7685573913	1.0351684135	-1.1353317338
 6	-2.5725573913	1.2881684135	-2.5193317338
 1	0.1404426087	-0.6198315865	-0.5033317338
 1	-1.9105573913	0.1431684135	0.6476682662
 1	0.4454426087	-0.1838315865	-2.9363317338
 1	-3.6675573913	1.3731684135	-0.6303317338
 1	-0.3105573913	0.5271684135	-4.9733317338
 1	-0.7805573913	2.2111684135	-4.6913317338
 1	-3.3205573913	1.8251684135	-3.0873317338
 1	-1.9660273913	1.0066684135	-5.3428717338
$end
$rem
EDA2		1
METHOD		WB97X-V
BASIS		DEF2-TZVPD
XC_GRID		000099000590
NL_GRID		1
UNRESTRICTED		FALSE
MAX_SCF_CYCLES		200
SYMMETRY		FALSE
SYM_IGNORE		TRUE
BASIS_LIN_DEP_THRESH		6
THRESH		14
SCF_CONVERGENCE		8
SCF_PRINT_FRGM		TRUE
SOLVENT_METHOD		PCM
!required keywords
JOBTYPE		SP
SYM_IGNORE		TRUE
SUBSYSTEM		TRUE
GEN_SCFMAN		TRUE
CHILD_INSTRUCTION		2
SYM_IGNORE		TRUE
SCFMI		0
RI_K 0		
PARI_K 0		
MIN_PARI_K 0		
IARI_K 0		
OCC_RI_K 0		
PURECART		1111
MEM_STATIC		2000
MEM_TOTAL		96000
GUI		0
CHILD_MP		1
CHILD_MP_ORDERS		232
FRZ_RELAX		0
FRZ_RELAX_METHOD		0
EDA_CLS_ELEC		1
EDA_CLS_DISP		0
FRZ_ORTHO_DECOMP		1
EDA2		FALSE
FRGM_METHOD		FALSE
CIS_N_ROOTS  0
LOCAL_CIS    0
CIS_RLX_DNS  1
$end
$pcm
THEORY                  CPCM
METHOD                  SWIG
SOLVER                  INVERSION
RADII                   UFF
HPOINTS                 302
HEAVYPOINTS             302
PRINTLEVEL              0
$end
$solvent
DIELECTRIC              78.390000 ! water
$end
--------------------------------------------------------------
 ----------------------------------------------------------------
             Standard Nuclear Orientation (Angstroms)
    I     Atom           X                Y                Z
 ----------------------------------------------------------------
    1      C      -1.1275573913     1.1761684135    -4.6513317338
    2      C      -0.6215573913    -0.0938315865    -1.0583317338
    3      C      -1.7805573913     0.3411684135    -0.4083317338
    4      C      -0.4485573913     0.1601684135    -2.4323317338
    5      C      -1.4105573913     0.8551684135    -3.1763317338
    6      C      -2.7685573913     1.0351684135    -1.1353317338
    7      C      -2.5725573913     1.2881684135    -2.5193317338
    8      H       0.1404426087    -0.6198315865    -0.5033317338
    9      H      -1.9105573913     0.1431684135     0.6476682662
   10      H       0.4454426087    -0.1838315865    -2.9363317338
   11      H      -3.6675573913     1.3731684135    -0.6303317338
   12      H      -0.3105573913     0.5271684135    -4.9733317338
   13      H      -0.7805573913     2.2111684135    -4.6913317338
   14      H      -3.3205573913     1.8251684135    -3.0873317338
   15      H      -1.9660273913     1.0066684135    -5.3428717338
 ----------------------------------------------------------------
 Nuclear Repulsion Energy =         267.17056985 hartrees
 There are       25 alpha and       25 beta electrons
 Requested basis set is def2-TZVPD
 There are 131 shells and 331 basis functions

 Total QAlloc Memory Limit  96000 MB
 Mega-Array Size      1956 MB
 MEM_STATIC part      2000 MB
 Discretize the solute cavity surface with Lebedev spheres
	Using 302 Lebedev grid points for each H atom
	Using 302 Lebedev grid points for other atoms
	Atomic van der Waals radii will be scaled by 1.20
 Remove points where switching function is < 1.0e-08
 Keep 1823 surface tesserae and discard 2707 interior tesserae
 Molecular Surface Area = 179.629 Angst**2

                       Distance Matrix (Angstroms)
             C (  1)   C (  2)   C (  3)   C (  4)   C (  5)   C (  6)
   C (  2)  3.844293
   C (  3)  4.373406  1.398215
   C (  4)  2.533231  1.407949  2.429724
   C (  5)  1.535824  2.451336  2.839528  1.400716
   C (  6)  3.882656  2.426969  1.409365  2.798256  2.458098
   C (  7)  2.577982  2.801936  2.445484  2.406518  1.403347  1.420521
   H (  8)  4.694608  1.079511  2.150067  2.162490  3.424347  3.405984
   H (  9)  5.455234  2.151308  1.082238  3.409418  3.921724  2.170465
   H ( 10)  2.695395  2.161822  3.409030  1.082399  2.140527  3.880639
   H ( 11)  4.760131  3.407842  2.162193  3.883366  3.441582  1.085113
   H ( 12)  1.091959  3.976127  4.799450  2.571073  2.132321  4.585856
   H ( 13)  1.092353  4.305461  4.779225  3.069187  2.128582  4.240313
   H ( 14)  2.770658  3.883813  3.427958  3.383731  2.144043  2.176949
   H ( 15)  1.099995  4.623417  4.982667  3.389767  2.241739  4.283487
             C (  7)   H (  8)   H (  9)   H ( 10)   H ( 11)   H ( 12)
   H (  8)  3.881377
   H (  9)  3.432078  2.472564
   H ( 10)  3.383637  2.490504  4.301479
   H ( 11)  2.185079  4.299889  2.496644  4.965748
   H ( 12)  3.423139  4.636800  5.856885  2.286138  5.553991
   H ( 13)  2.963238  5.138302  5.835961  3.212340  5.052597  1.770955
   H ( 14)  1.081895  4.963225  4.332141  4.271023  2.522214  3.781785
   H ( 15)  2.901637  5.523030  6.052708  3.608866  5.023700  1.762686
             H ( 13)   H ( 14)
   H ( 14)  3.028764
   H ( 15)  1.811260  2.755386
 
 A cutoff of  1.0D-14 yielded   8354 shell pairs
 There are     54470 function pairs (     69418 Cartesian)
 Smallest overlap matrix eigenvalue = 6.44E-07
 Linear dependence detected in AO basis
 Tighter screening thresholds may be required for diffuse basis sets
 Use S2THRESH > 14 and THRESH = 14 in case of SCF convergence issues
 Number of orthogonalized atomic orbitals = 330
 Maximum deviation from orthogonality = 1.213E-10

 Scale SEOQF with 1.000000e-01/1.000000e-01/1.000000e-02

 Standard Electronic Orientation quadrupole field applied
 Nucleus-field energy     =     0.0000000047 hartrees
 Guess from superposition of atomic densities
 Warning:  Energy on first SCF cycle will be non-variational
 SAD guess density has 49.913408 electrons

 -----------------------------------------------------------------------
  General SCF calculation program by
  Eric Jon Sundstrom, Paul Horn, Yuezhi Mao, Dmitri Zuev, Alec White,
  David Stuck, Shaama M.S., Shane Yost, Joonho Lee, David Small,
  Daniel Levine, Susi Lehtola, Hugh Burton, Evgeny Epifanovsky
 -----------------------------------------------------------------------
 Exchange:     0.1670 Hartree-Fock + 1.0000 wB97X-V + LR-HF
 Correlation:  1.0000 wB97X-V
 Using Euler-Maclaurin-Lebedev (99,590) quadrature formula
 Nonlocal Correlation:  VV10 with C = 0.0100 and b = 6.00 and scale = 1.00000
 Grid used for NLC:  SG-1 standard quadrature
Energy prior to optimization (guess energy) = -271.521831061800
Begin Timing: Total SCF Calculation
begin iterations for algorithm: DIIS         
the SCF tolerance is set to 1.00e-08
    1    -271.5218310618      1.87e-03     00000 
    2    -271.5591151815      1.18e-03     00000 
    3    -271.5786852050      1.37e-04     00000 
    4    -271.5791085689      4.71e-05     00000 
    5    -271.5791418473      1.75e-05     00000 
    6    -271.5791470899      4.43e-06     00000 
    7    -271.5791474695      1.93e-06     00000 
    8    -271.5791475355      3.29e-07     00000 
    9    -271.5791475385      7.79e-08     00000 
   10    -271.5791475387      4.56e-08     00000 
   11    -271.5791475388      1.04e-08     00000 
   12    -271.5791475388      5.22e-09     00000 Convergence criterion met
Timing for Total SCF: 1537.00s (wall), 3051.62s (cpu)

************** Final PCM Free Energy Summary **************
 G_electrostatic  =      -0.00266891 hartree =      -1.67476423 kcal/mol
 G_cavitation     =       0.00000000 hartree =       0.00000000 kcal/mol
 G_dispersion     =       0.00000000 hartree =       0.00000000 kcal/mol
 G_repulsion      =       0.00000000 hartree =       0.00000000 kcal/mol
 --------------------------------------------------
 Non-electrostatic Free Energy =       0.00000000 hartree =       0.00000000 kcal/mol
 Total                         =      -0.00266891 hartree =      -1.67476423 kcal/mol
 --------------------------------------------------
 SCF Energy (H0 + V/2)                       =    -271.57914754 
 Solute Internal Energy (H0)                 =    -271.57647863 
 Total Free Energy (H0 + V/2 + non-elec)     =    -271.57914754 hartree
                                             = -170418.48720669 kcal/mol
***********************************************************

E_pcm = -0.0026689067
Multipole orders to be included
        2
        3
computing dipole RHS
computing quadrupole RHS
total number of RHS in solve_reponses: 8
RHS batch sizes
        8
Beginning Block Conjugate Gradient Iterations. Batch Number: 0
computing hessian-vector products by finite difference
              1      5.86e-01     00000 Conjugate Gradient Iteration
computing hessian-vector products by finite difference
              2      1.87e-01     00000 Conjugate Gradient Iteration
computing hessian-vector products by finite difference
              3      4.45e-02     00000 Conjugate Gradient Iteration
computing hessian-vector products by finite difference
              4      1.07e-02     00000 Conjugate Gradient Iteration
computing hessian-vector products by finite difference
              5      2.29e-03     00000 Conjugate Gradient Iteration
computing hessian-vector products by finite difference
              6      6.51e-04     00000 Conjugate Gradient Iteration
computing hessian-vector products by finite difference
              7      1.50e-04     00000 Conjugate Gradient Iteration
computing hessian-vector products by finite difference
              8      2.46e-05     00000 Conjugate Gradient Iteration
computing hessian-vector products by finite difference
              9      4.06e-06     00000 Conjugate Gradient Iteration
computing hessian-vector products by finite difference
             10      6.04e-07     00000 Conjugate Gradient Iteration
computing hessian-vector products by finite difference
             11      7.66e-08     00000 Conjugate Gradient Iteration
computing hessian-vector products by finite difference
             12      1.08e-08     00000 Conjugate Gradient Iteration
computing hessian-vector products by finite difference
             13      3.38e-09     00000 CG Converged
batch 0 complete
Done Calculating Responses
TESTING ORTHOGONALIZATION OF MULTIPOLE BASIS
Multipole virts passed orthogonality test
Virts Per Order
           75
          125
 
 --------------------------------------------------------------
 
                    Orbital Energies (a.u.)
 --------------------------------------------------------------
 
 Alpha MOs
 -- Occupied --
-10.2877 -10.2810 -10.2770 -10.2762 -10.2753 -10.2735 -10.2672  -0.9911
 -0.9037  -0.8743  -0.8132  -0.7308  -0.7040  -0.6281  -0.5704  -0.5687
 -0.5364  -0.5271  -0.5141  -0.4874  -0.4717  -0.4428  -0.4406  -0.3461
 -0.3397
 -- Virtual --
  0.0586   0.0627   0.0663   0.0788   0.0845   0.1040   0.1100   0.1138
  0.1349   0.1519   0.1636   0.1697   0.1848   0.1900   0.1945   0.1978
  0.2206   0.2273   0.2330   0.2365   0.2406   0.2563   0.2595   0.2663
  0.2762   0.2778   0.2826   0.2891   0.2926   0.3010   0.3062   0.3097
  0.3191   0.3253   0.3290   0.3347   0.3463   0.3479   0.3665   0.3672
  0.3720   0.3786   0.3813   0.3855   0.3902   0.3968   0.4031   0.4044
  0.4107   0.4230   0.4297   0.4313   0.4388   0.4431   0.4474   0.4566
  0.4638   0.4678   0.4724   0.4810   0.4830   0.4925   0.5061   0.5102
  0.5148   0.5215   0.5290   0.5335   0.5399   0.5475   0.5486   0.5679
  0.5740   0.5802   0.5862   0.5937   0.5991   0.6166   0.6360   0.6446
  0.6652   0.6705   0.6777   0.6838   0.6863   0.6980   0.7166   0.7195
  0.7258   0.7312   0.7442   0.7594   0.7621   0.7626   0.7751   0.7783
  0.7796   0.7894   0.7925   0.8001   0.8048   0.8189   0.8240   0.8290
  0.8325   0.8339   0.8462   0.8554   0.8609   0.8673   0.8729   0.8873
  0.9113   0.9211   0.9289   0.9402   0.9489   0.9924   1.0092   1.0383
  1.0438   1.0564   1.0645   1.0709   1.0810   1.0847   1.0972   1.1410
  1.1578   1.1669   1.2353   1.2728   1.2854   1.3065   1.3387   1.3459
  1.3747   1.4311   1.4348   1.4516   1.4575   1.4640   1.5148   1.5177
  1.5921   1.5954   1.6105   1.6182   1.6371   1.6656   1.7389   1.7722
  1.7827   1.7852   1.7971   1.8097   1.8256   1.8444   1.8739   1.9012
  1.9124   1.9254   1.9466   1.9676   1.9730   1.9902   2.0174   2.0199
  2.0282   2.0500   2.0608   2.0857   2.1015   2.1119   2.1631   2.1742
  2.1940   2.2122   2.2378   2.2645   2.2874   2.3022   2.3781   2.3796
  2.3954   2.3986   2.4682   2.4909   2.5359   2.5401   2.5515   2.5791
  2.6234   2.6349   2.6555   2.6743   2.6851   2.6989   2.7370   2.7523
  2.7724   2.7909   2.8199   2.8265   2.8433   2.8849   2.8942   2.9071
  2.9138   2.9359   2.9441   2.9736   2.9822   3.0133   3.0173   3.0347
  3.0549   3.0594   3.0823   3.1151   3.1491   3.1862   3.1967   3.2161
  3.2211   3.2494   3.2759   3.2936   3.3318   3.3442   3.3468   3.3635
  3.3935   3.4180   3.4250   3.4509   3.4542   3.4690   3.4810   3.4818
  3.4992   3.5167   3.5196   3.5414   3.5449   3.5519   3.5634   3.5925
  3.6027   3.6186   3.6431   3.6718   3.6941   3.7481   3.7514   3.8018
  3.8103   3.8818   3.8941   3.9147   3.9352   3.9390   4.0035   4.0419
  4.1210   4.1813   4.2369   4.2480   4.2514   4.2801   4.2932   4.3071
  4.3205   4.3420   4.3439   4.3822   4.3992   4.4094   4.4443   4.5032
  4.5718   4.6019   4.7192   4.7367   4.7791   4.8266   4.9108   4.9337
  4.9869   5.0140   5.1463   5.2462   5.3071   5.3308   5.4460   5.5168
  5.6454   5.8214  22.5861  22.6262  22.8416  22.8485  22.9535  23.0110
 23.3511
 --------------------------------------------------------------
 
          Ground-State Mulliken Net Atomic Charges

     Atom                 Charge (a.u.)
  ----------------------------------------
      1 C                    -1.009838
      2 C                    -0.534874
      3 C                    -0.481631
      4 C                    -0.335299
      5 C                     0.785694
      6 C                    -0.455533
      7 C                    -0.321904
      8 H                     0.318218
      9 H                     0.335440
     10 H                     0.285443
     11 H                     0.317221
     12 H                     0.269236
     13 H                     0.207984
     14 H                     0.349590
     15 H                     0.270255
  ----------------------------------------
  Sum of atomic charges =     0.000000

 -----------------------------------------------------------------
                    Cartesian Multipole Moments
 -----------------------------------------------------------------
    Charge (ESU x 10^10)
                 0.0000
    Dipole Moment (Debye)
         X       0.1420      Y       0.1583      Z      -0.4685
       Tot       0.5145
    Quadrupole Moments (Debye-Ang)
        XX     -40.5109     XY      -3.2664     YY     -44.2817
        XZ      -0.4734     YZ      -2.3796     ZZ     -35.9046
    Octopole Moments (Debye-Ang^2)
       XXX     182.9404    XXY     -18.0477    XYY      64.7073
       YYY     -90.5342    XXZ      94.0046    XYZ       8.0990
       YYZ      95.9411    XZZ      57.2787    YZZ     -19.1333
       ZZZ     255.1750
    Hexadecapole Moments (Debye-Ang^3)
      XXXX    -815.0031   XXXY     133.5220   XXYY    -177.4833
      XYYY     182.9329   YYYY    -265.8860   XXXZ    -387.1206
      XXYZ      62.8237   XYYZ    -127.6354   YYYZ     253.0013
      XXZZ    -438.2911   XYZZ      31.2786   YYZZ    -355.8290
      XZZZ    -351.5159   YZZZ     216.2177   ZZZZ   -1769.4061
 -----------------------------------------------------------------
Archival summary:
1\1\nid00539\SP\ProcedureUnspecified\BasisUnspecified\78\meili\SunSep2621:38:592021SunSep2621:38:592021\0\\#,ProcedureUnspecified,BasisUnspecified,\\0,1\C\C,1,1.40072\H,2,1.0824,1,118.53\C,1,1.40335,2,118.236,3,179.454,0\H,4,1.0819,1,118.675,2,-179.966,0\C,2,1.40795,1,121.565,3,179.927,0\H,6,1.07951,2,120.192,1,-179.158,0\C,6,1.39822,2,119.96,1,0.557173,0\H,8,1.08224,6,119.753,2,179.933,0\C,8,1.40936,6,119.636,2,-0.130688,0\H,10,1.08511,8,119.611,6,-179.958,0\C,1,1.53582,2,119.162,3,-3.60606,0\H,12,1.09196,1,107.268,2,17.1588,0\H,12,1.09235,1,106.962,2,-98.9018,0\H,12,1.1,1,115.538,2,136.432,0\\\@

 Total job time:  29246.95s(wall), 57912.08s(cpu) 
 Sun Sep 26 21:39:02 2021

        *************************************************************
        *                                                           *
        *  Thank you very much for using Q-Chem.  Have a nice day.  *
        *                                                           *
        *************************************************************


Done Job For Fragment 0
calling putenv with: QCSCRATCH=/global/cscratch1/sd/meili 
calling putenv with: QCLOCALSCR=/tmp 
calling putenv with: QCTHREADS=32 
Creating input file /tmp/qchem34913/Frg2.input
using default PutDataFrgm: nothing
calling putenv with: QCSCRATCH=/tmp/qchem34913/ 
calling putenv with: QCLOCALSCR=/tmp/qchem34913/ 
Spawning Job For Fragment 1
                  Welcome to Q-Chem
     A Quantum Leap Into The Future Of Chemistry


 Q-Chem 5.2, Q-Chem, Inc., Pleasanton, CA (2019)

 License issued to: National Energy Research Scientific Computing Center

 Yihan Shao,  Zhengting Gan,  E. Epifanovsky,  A. T. B. Gilbert,  M. Wormit,  
 J. Kussmann,  A. W. Lange,  A. Behn,  Jia Deng,  Xintian Feng,  D. Ghosh,  
 M. Goldey,  P. R. Horn,  L. D. Jacobson,  I. Kaliman,  T. Kus,  A. Landau,  
 Jie Liu,  E. I. Proynov,  R. M. Richard,  R. P. Steele,  E. J. Sundstrom,  
 H. L. Woodcock III,  P. M. Zimmerman,  D. Zuev,  B. Albrecht,  E. Alguire,  
 S. A. Baeppler,  D. Barton,  Z. Benda,  Y. A. Bernard,  E. J. Berquist,  
 K. B. Bravaya,  H. Burton,  D. Casanova,  Chun-Min Chang,  Yunqing Chen,  
 A. Chien,  K. D. Closser,  M. P. Coons,  S. Coriani,  S. Dasgupta,  
 A. L. Dempwolff,  M. Diedenhofen,  Hainam Do,  R. G. Edgar,  Po-Tung Fang,  
 S. Faraji,  S. Fatehi,  Qingguo Feng,  K. D. Fenk,  J. Fosso-Tande,  
 J. Gayvert,  Qinghui Ge,  A. Ghysels,  G. Gidofalvi,  J. Gomes,  
 J. Gonthier,  A. Gunina,  D. Hait,  M. W. D. Hanson-Heine,  
 P. H. P. Harbach,  A. W. Hauser,  M. F. Herbst,  J. E. Herr,  
 E. G. Hohenstein,  Z. C. Holden,  Kerwin Hui,  B. C. Huynh,  T.-C. Jagau,  
 Hyunjun Ji,  B. Kaduk,  K. Khistyaev,  Jaehoon Kim,  P. Klunzinger,  K. Koh,  
 D. Kosenkov,  L. Koulias,  T. Kowalczyk,  C. M. Krauter,  A. Kunitsa,  
 Ka Un Lao,  A. Laurent,  K. V. Lawler,  Joonho Lee,  D. Lefrancois,  
 S. Lehtola,  D. S. Levine,  Yi-Pei Li,  You-Sheng Lin,  Fenglai Liu,  
 E. Livshits,  A. Luenser,  P. Manohar,  E. Mansoor,  S. F. Manzer,  
 Shan-Ping Mao,  Yuezhi Mao,  N. Mardirossian,  A. V. Marenich,  
 T. Markovich,  L. A. Martinez-Martinez,  S. A. Maurer,  N. J. Mayhall,  
 S. C. McKenzie,  J.-M. Mewes,  P. Morgante,  A. F. Morrison,  
 J. W. Mullinax,  K. Nanda,  T. S. Nguyen-Beck,  R. Olivares-Amaya,  
 J. A. Parkhill,  Zheng Pei,  T. M. Perrine,  F. Plasser,  P. Pokhilko,  
 S. Prager,  A. Prociuk,  E. Ramos,  D. R. Rehn,  F. Rob,  M. Scheurer,  
 M. Schneider,  N. Sergueev,  S. M. Sharada,  S. Sharma,  D. W. Small,  
 T. Stauch,  T. Stein,  Yu-Chuan Su,  A. J. W. Thom,  A. Tkatchenko,  
 T. Tsuchimochi,  N. M. Tubman,  L. Vogt,  M. L. Vidal,  O. Vydrov,  
 M. A. Watson,  J. Wenzel,  M. de Wergifosse,  T. A. Wesolowski,  A. White,  
 J. Witte,  A. Yamada,  Jun Yang,  K. Yao,  S. Yeganeh,  S. R. Yost,  
 Zhi-Qiang You,  A. Zech,  Igor Ying Zhang,  Xing Zhang,  Yan Zhao,  
 Ying Zhu,  B. R. Brooks,  G. K. L. Chan,  C. J. Cramer,  M. S. Gordon,  
 W. J. Hehre,  A. Klamt,  M. W. Schmidt,  C. D. Sherrill,  D. G. Truhlar,  
 A. Aspuru-Guzik,  R. Baer,  A. T. Bell,  N. A. Besley,  Jeng-Da Chai,  
 A. E. DePrince, III,  R. A. DiStasio Jr.,  A. Dreuw,  B. D. Dunietz,  
 T. R. Furlani,  Chao-Ping Hsu,  Yousung Jung,  Jing Kong,  D. S. Lambrecht,  
 WanZhen Liang,  C. Ochsenfeld,  V. A. Rassolov,  L. V. Slipchenko,  
 J. E. Subotnik,  T. Van Voorhis,  J. M. Herbert,  A. I. Krylov,  
 P. M. W. Gill,  M. Head-Gordon

 Contributors to earlier versions of Q-Chem not listed above: 
 R. D. Adamson,  B. Austin,  J. Baker,  G. J. O. Beran,  K. Brandhorst,  
 S. T. Brown,  E. F. C. Byrd,  A. K. Chakraborty,  C.-L. Cheng,  
 Siu Hung Chien,  D. M. Chipman,  D. L. Crittenden,  H. Dachsel,  
 R. J. Doerksen,  A. D. Dutoi,  L. Fusti-Molnar,  W. A. Goddard III,  
 A. Golubeva-Zadorozhnaya,  S. R. Gwaltney,  G. Hawkins,  A. Heyden,  
 S. Hirata,  G. Kedziora,  F. J. Keil,  C. Kelley,  Jihan Kim,  R. A. King,  
 R. Z. Khaliullin,  P. P. Korambath,  W. Kurlancheek,  A. M. Lee,  M. S. Lee,  
 S. V. Levchenko,  Ching Yeh Lin,  D. Liotard,  R. C. Lochan,  I. Lotan,  
 P. E. Maslen,  N. Nair,  D. P. O'Neill,  D. Neuhauser,  E. Neuscamman,  
 C. M. Oana,  R. Olson,  B. Peters,  R. Peverati,  P. A. Pieniazek,  
 Y. M. Rhee,  J. Ritchie,  M. A. Rohrdanz,  E. Rosta,  N. J. Russ,  
 H. F. Schaefer III,  N. E. Schultz,  N. Shenvi,  A. C. Simmonett,  A. Sodt,  
 D. Stuck,  K. S. Thanthiriwatte,  V. Vanovschi,  Tao Wang,  A. Warshel,  
 C. F. Williams,  Q. Wu,  X. Xu,  W. Zhang

 Please cite Q-Chem as follows:
 Y. Shao et al., Mol. Phys. 113, 184-215 (2015)
 DOI: 10.1080/00268976.2014.952696

 Q-Chem 5.2.0 for Intel X86 EM64T Linux

 Parts of Q-Chem use Armadillo 8.300.2 (Tropical Shenanigans).
 http://arma.sourceforge.net/

 Q-Chem begins on Sun Sep 26 21:39:05 2021  

Host: cori01
0

     Scratch files written to /tmp/qchem34913//Frg2//
 May1019 |scratch|qcdevops|jenkins|workspace|build_RNUM -1
Processing $rem in /global/common/cori/software/qchem/5.2/config/preferences:
	 MEM_TOTAL  96000 
NAlpha2: 50
NElect   50
Mult     1
Symmetry turned off for PCM/SM12/SMD calculation

Checking the input file for inconsistencies... 	...done.

--------------------------------------------------------------
User input:
--------------------------------------------------------------
$molecule
0 1
 6	1.3674426087	-2.7838315865	0.9276682662
 6	1.4974426087	-1.4978315865	1.7396682662
 6	2.2234426087	-0.3968315865	1.2546682662
 6	0.8424426087	-1.3818315865	2.9656682662
 6	2.2744426087	0.8071684135	2.0066682662
 6	0.8934426087	-0.1988315865	3.7136682662
 6	1.6004426087	0.8871684135	3.2396682662
 1	1.1994426087	-2.4838315865	-0.1043317338
 1	0.4774426087	-3.3058315865	1.2866682662
 1	2.7374426087	-0.4738315865	0.3046682662
 1	0.2834426087	-2.2288315865	3.3396682662
 1	2.8154426087	1.6711684135	1.6486682662
 1	0.3834426087	-0.1238315865	4.6626682662
 1	1.6274426087	1.7961684135	3.8236682662
 1	2.2126026087	-3.4839315865	1.0026982662
$end
$rem
EDA2		1
METHOD		WB97X-V
BASIS		DEF2-TZVPD
XC_GRID		000099000590
NL_GRID		1
UNRESTRICTED		FALSE
MAX_SCF_CYCLES		200
SYMMETRY		FALSE
SYM_IGNORE		TRUE
BASIS_LIN_DEP_THRESH		6
THRESH		14
SCF_CONVERGENCE		8
SCF_PRINT_FRGM		TRUE
SOLVENT_METHOD		PCM
!required keywords
JOBTYPE		SP
SYM_IGNORE		TRUE
SUBSYSTEM		TRUE
GEN_SCFMAN		TRUE
CHILD_INSTRUCTION		2
SYM_IGNORE		TRUE
SCFMI		0
RI_K 0		
PARI_K 0		
MIN_PARI_K 0		
IARI_K 0		
OCC_RI_K 0		
PURECART		1111
MEM_STATIC		2000
MEM_TOTAL		96000
GUI		0
CHILD_MP		1
CHILD_MP_ORDERS		232
FRZ_RELAX		0
FRZ_RELAX_METHOD		0
EDA_CLS_ELEC		1
EDA_CLS_DISP		0
FRZ_ORTHO_DECOMP		1
EDA2		FALSE
FRGM_METHOD		FALSE
CIS_N_ROOTS  0
LOCAL_CIS    0
CIS_RLX_DNS  1
$end
$pcm
THEORY                  CPCM
METHOD                  SWIG
SOLVER                  INVERSION
RADII                   UFF
HPOINTS                 302
HEAVYPOINTS             302
PRINTLEVEL              0
$end
$solvent
DIELECTRIC              78.390000 ! water
$end
--------------------------------------------------------------
 ----------------------------------------------------------------
             Standard Nuclear Orientation (Angstroms)
    I     Atom           X                Y                Z
 ----------------------------------------------------------------
    1      C       1.3674426087    -2.7838315865     0.9276682662
    2      C       1.4974426087    -1.4978315865     1.7396682662
    3      C       2.2234426087    -0.3968315865     1.2546682662
    4      C       0.8424426087    -1.3818315865     2.9656682662
    5      C       2.2744426087     0.8071684135     2.0066682662
    6      C       0.8934426087    -0.1988315865     3.7136682662
    7      C       1.6004426087     0.8871684135     3.2396682662
    8      H       1.1994426087    -2.4838315865    -0.1043317338
    9      H       0.4774426087    -3.3058315865     1.2866682662
   10      H       2.7374426087    -0.4738315865     0.3046682662
   11      H       0.2834426087    -2.2288315865     3.3396682662
   12      H       2.8154426087     1.6711684135     1.6486682662
   13      H       0.3834426087    -0.1238315865     4.6626682662
   14      H       1.6274426087     1.7961684135     3.8236682662
   15      H       2.2126026087    -3.4839315865     1.0026982662
 ----------------------------------------------------------------
 Nuclear Repulsion Energy =         268.17892873 hartrees
 There are       25 alpha and       25 beta electrons
 Requested basis set is def2-TZVPD
 There are 131 shells and 331 basis functions

 Total QAlloc Memory Limit  96000 MB
 Mega-Array Size      1956 MB
 MEM_STATIC part      2000 MB
 Discretize the solute cavity surface with Lebedev spheres
	Using 302 Lebedev grid points for each H atom
	Using 302 Lebedev grid points for other atoms
	Atomic van der Waals radii will be scaled by 1.20
 Remove points where switching function is < 1.0e-08
 Keep 1795 surface tesserae and discard 2735 interior tesserae
 Molecular Surface Area = 178.822 Angst**2

                       Distance Matrix (Angstroms)
             C (  1)   C (  2)   C (  3)   C (  4)   C (  5)   C (  6)
   C (  2)  1.526447
   C (  3)  2.556841  1.405170
   C (  4)  2.528769  1.394832  2.409337
   C (  5)  3.857742  2.447048  1.420465  2.786041
   C (  6)  3.829973  2.439035  2.802639  1.400569  2.415170
   C (  7)  4.344637  2.819368  2.444792  2.407904  1.407468  1.379826
   H (  8)  1.087772  2.112187  2.692773  3.281273  4.054951  4.460043
   H (  9)  1.092458  2.124729  3.392907  2.579543  4.545809  3.964446
   H ( 10)  2.757015  2.155319  1.082878  3.390636  2.179939  3.885517
   H ( 11)  2.702004  2.137325  3.386303  1.081557  3.867592  2.152412
   H ( 12)  4.739575  3.433361  2.186853  3.866268  1.080436  3.384554
   H ( 13)  4.689785  3.416548  3.882601  2.161725  3.390719  1.079966
   H ( 14)  5.425018  3.900050  3.429902  3.384091  2.167538  2.128587
   H ( 15)  1.100030  2.235883  3.097385  3.185815  4.407416  4.458859
             C (  7)   H (  8)   H (  9)   H ( 10)   H ( 11)   H ( 12)
   H (  8)  4.765163
   H (  9)  4.759894  1.769703
   H ( 10)  3.429186  2.563752  3.753951
   H ( 11)  3.384368  3.572844  2.326451  4.279412
   H ( 12)  2.149921  4.790458  5.510700  2.532478  4.947778
   H ( 13)  2.127942  5.381426  4.640187  4.965479  2.488243  4.268588
   H ( 14)  1.080771  5.825012  5.812854  4.332247  4.270974  2.481450
   H ( 15)  4.948261  1.803388  1.767240  3.134231  3.279994  5.230272
             H ( 13)   H ( 14)
   H ( 14)  2.436772
   H ( 15)  5.294476  6.014960
 
 A cutoff of  1.0D-14 yielded   8356 shell pairs
 There are     54484 function pairs (     69435 Cartesian)
 Smallest overlap matrix eigenvalue = 6.06E-07
 Linear dependence detected in AO basis
 Tighter screening thresholds may be required for diffuse basis sets
 Use S2THRESH > 14 and THRESH = 14 in case of SCF convergence issues
 Number of orthogonalized atomic orbitals = 330
 Maximum deviation from orthogonality = 1.174E-10

 Scale SEOQF with 1.000000e-01/1.000000e-01/1.000000e-01

 Standard Electronic Orientation quadrupole field applied
 Nucleus-field energy     =    -0.0000000195 hartrees
 Guess from superposition of atomic densities
 Warning:  Energy on first SCF cycle will be non-variational
 SAD guess density has 49.913408 electrons

 -----------------------------------------------------------------------
  General SCF calculation program by
  Eric Jon Sundstrom, Paul Horn, Yuezhi Mao, Dmitri Zuev, Alec White,
  David Stuck, Shaama M.S., Shane Yost, Joonho Lee, David Small,
  Daniel Levine, Susi Lehtola, Hugh Burton, Evgeny Epifanovsky
 -----------------------------------------------------------------------
 Exchange:     0.1670 Hartree-Fock + 1.0000 wB97X-V + LR-HF
 Correlation:  1.0000 wB97X-V
 Using Euler-Maclaurin-Lebedev (99,590) quadrature formula
 Nonlocal Correlation:  VV10 with C = 0.0100 and b = 6.00 and scale = 1.00000
 Grid used for NLC:  SG-1 standard quadrature
Energy prior to optimization (guess energy) = -271.520268905136
Begin Timing: Total SCF Calculation
begin iterations for algorithm: DIIS         
the SCF tolerance is set to 1.00e-08
    1    -271.5202689051      1.91e-03     00000 
    2    -271.5582818954      1.21e-03     00000 
    3    -271.5788808628      1.40e-04     00000 
    4    -271.5793022408      5.23e-05     00000 
    5    -271.5793419885      1.86e-05     00000 
    6    -271.5793478869      4.75e-06     00000 
    7    -271.5793483210      1.94e-06     00000 
    8    -271.5793483894      3.10e-07     00000 
    9    -271.5793483927      7.53e-08     00000 
   10    -271.5793483930      3.87e-08     00000 
   11    -271.5793483931      1.70e-08     00000 
   12    -271.5793483931      5.78e-09     00000 Convergence criterion met
Timing for Total SCF: 1374.00s (wall), 2710.02s (cpu)

************** Final PCM Free Energy Summary **************
 G_electrostatic  =      -0.00259349 hartree =      -1.62744032 kcal/mol
 G_cavitation     =       0.00000000 hartree =       0.00000000 kcal/mol
 G_dispersion     =       0.00000000 hartree =       0.00000000 kcal/mol
 G_repulsion      =       0.00000000 hartree =       0.00000000 kcal/mol
 --------------------------------------------------
 Non-electrostatic Free Energy =       0.00000000 hartree =       0.00000000 kcal/mol
 Total                         =      -0.00259349 hartree =      -1.62744032 kcal/mol
 --------------------------------------------------
 SCF Energy (H0 + V/2)                       =    -271.57934839 
 Solute Internal Energy (H0)                 =    -271.57675490 
 Total Free Energy (H0 + V/2 + non-elec)     =    -271.57934839 hartree
                                             = -170418.61324469 kcal/mol
***********************************************************

E_pcm = -0.0025934912
Multipole orders to be included
        2
        3
computing dipole RHS
computing quadrupole RHS
total number of RHS in solve_reponses: 8
RHS batch sizes
        8
Beginning Block Conjugate Gradient Iterations. Batch Number: 0
computing hessian-vector products by finite difference
              1      5.75e-01     00000 Conjugate Gradient Iteration
computing hessian-vector products by finite difference
              2      1.84e-01     00000 Conjugate Gradient Iteration
computing hessian-vector products by finite difference
              3      4.28e-02     00000 Conjugate Gradient Iteration
computing hessian-vector products by finite difference
              4      1.00e-02     00000 Conjugate Gradient Iteration
computing hessian-vector products by finite difference
              5      2.01e-03     00000 Conjugate Gradient Iteration
computing hessian-vector products by finite difference
              6      5.97e-04     00000 Conjugate Gradient Iteration
computing hessian-vector products by finite difference
              7      1.44e-04     00000 Conjugate Gradient Iteration
computing hessian-vector products by finite difference
              8      2.14e-05     00000 Conjugate Gradient Iteration
computing hessian-vector products by finite difference
              9      3.28e-06     00000 Conjugate Gradient Iteration
computing hessian-vector products by finite difference
             10      5.06e-07     00000 Conjugate Gradient Iteration
computing hessian-vector products by finite difference
             11      8.40e-08     00000 Conjugate Gradient Iteration
computing hessian-vector products by finite difference
             12      1.65e-08     00000 Conjugate Gradient Iteration
computing hessian-vector products by finite difference
             13      2.74e-09     00000 CG Converged
batch 0 complete
Done Calculating Responses
TESTING ORTHOGONALIZATION OF MULTIPOLE BASIS
Multipole virts passed orthogonality test
Virts Per Order
           75
          125
 
 --------------------------------------------------------------
 
                    Orbital Energies (a.u.)
 --------------------------------------------------------------
 
 Alpha MOs
 -- Occupied --
-10.2859 -10.2797 -10.2766 -10.2734 -10.2718 -10.2714 -10.2652  -0.9936
 -0.9059  -0.8754  -0.8135  -0.7323  -0.7034  -0.6294  -0.5725  -0.5689
 -0.5354  -0.5282  -0.5129  -0.4893  -0.4723  -0.4430  -0.4402  -0.3467
 -0.3400
 -- Virtual --
  0.0593   0.0631   0.0672   0.0789   0.0846   0.1042   0.1101   0.1138
  0.1349   0.1534   0.1644   0.1692   0.1848   0.1894   0.1955   0.1977
  0.2204   0.2233   0.2328   0.2366   0.2496   0.2572   0.2598   0.2681
  0.2784   0.2801   0.2867   0.2907   0.2935   0.2998   0.3029   0.3073
  0.3192   0.3246   0.3304   0.3353   0.3472   0.3514   0.3618   0.3729
  0.3754   0.3802   0.3831   0.3862   0.3888   0.4002   0.4041   0.4048
  0.4120   0.4272   0.4287   0.4340   0.4363   0.4447   0.4489   0.4519
  0.4630   0.4659   0.4690   0.4809   0.4877   0.4957   0.5111   0.5133
  0.5139   0.5225   0.5321   0.5364   0.5426   0.5484   0.5516   0.5642
  0.5806   0.5841   0.5926   0.5948   0.6002   0.6216   0.6364   0.6395
  0.6582   0.6739   0.6773   0.6824   0.6904   0.6926   0.7165   0.7229
  0.7289   0.7343   0.7422   0.7577   0.7618   0.7656   0.7773   0.7816
  0.7863   0.7897   0.7941   0.7990   0.8066   0.8221   0.8263   0.8282
  0.8326   0.8384   0.8430   0.8521   0.8558   0.8694   0.8862   0.8887
  0.9020   0.9116   0.9314   0.9389   0.9514   1.0034   1.0206   1.0332
  1.0445   1.0571   1.0716   1.0751   1.0878   1.0944   1.1007   1.1347
  1.1569   1.1745   1.2479   1.2686   1.2914   1.3214   1.3462   1.3477
  1.3737   1.4302   1.4404   1.4525   1.4591   1.4714   1.5185   1.5259
  1.5964   1.6025   1.6123   1.6220   1.6531   1.6710   1.7327   1.7744
  1.7838   1.7899   1.7982   1.8120   1.8251   1.8602   1.8818   1.9059
  1.9118   1.9211   1.9400   1.9570   1.9771   1.9875   2.0149   2.0234
  2.0295   2.0479   2.0614   2.0935   2.1029   2.1153   2.1671   2.1737
  2.1966   2.2245   2.2364   2.2698   2.2880   2.3049   2.3802   2.3871
  2.3955   2.4051   2.4806   2.4953   2.5304   2.5498   2.5552   2.5862
  2.6133   2.6279   2.6608   2.6721   2.6858   2.6952   2.7398   2.7664
  2.7753   2.8008   2.8170   2.8364   2.8532   2.8899   2.8947   2.9171
  2.9274   2.9353   2.9519   2.9722   2.9820   3.0138   3.0180   3.0431
  3.0574   3.0798   3.0859   3.0958   3.1659   3.1929   3.2002   3.2167
  3.2233   3.2320   3.2806   3.2924   3.3307   3.3423   3.3580   3.3660
  3.3947   3.4322   3.4429   3.4511   3.4652   3.4754   3.4828   3.4896
  3.5056   3.5245   3.5299   3.5402   3.5484   3.5551   3.5745   3.5967
  3.6155   3.6217   3.6420   3.6832   3.6920   3.7452   3.7674   3.8038
  3.8258   3.8749   3.8984   3.9213   3.9363   3.9743   4.0190   4.0403
  4.1167   4.1874   4.2505   4.2585   4.2720   4.2981   4.3126   4.3216
  4.3345   4.3468   4.3669   4.3815   4.3998   4.4271   4.4493   4.5251
  4.5758   4.6123   4.7146   4.7488   4.7934   4.8602   4.9061   4.9343
  4.9942   5.0325   5.1556   5.2411   5.3318   5.3575   5.4729   5.5178
  5.6487   5.8333  22.5791  22.6382  22.8584  22.8675  22.9613  23.0474
 23.3739
 --------------------------------------------------------------
 
          Ground-State Mulliken Net Atomic Charges

     Atom                 Charge (a.u.)
  ----------------------------------------
      1 C                    -1.007043
      2 C                     0.827216
      3 C                    -0.367484
      4 C                    -0.332188
      5 C                    -0.488813
      6 C                    -0.515970
      7 C                    -0.471883
      8 H                     0.252221
      9 H                     0.272462
     10 H                     0.344442
     11 H                     0.302546
     12 H                     0.319960
     13 H                     0.311677
     14 H                     0.330251
     15 H                     0.222607
  ----------------------------------------
  Sum of atomic charges =     0.000000

 -----------------------------------------------------------------
                    Cartesian Multipole Moments
 -----------------------------------------------------------------
    Charge (ESU x 10^10)
                -0.0000
    Dipole Moment (Debye)
         X      -0.0793      Y      -0.3822      Z      -0.2442
       Tot       0.4604
    Quadrupole Moments (Debye-Ang)
        XX     -44.1446     XY       1.5940     YY     -38.2493
        XZ      -3.6631     YZ       0.8382     ZZ     -41.0284
    Octopole Moments (Debye-Ang^2)
       XXX    -201.2155    XXY      35.1095    XYY     -58.2694
       YYY      84.7223    XXZ    -109.1844    XYZ       7.6243
       YYZ     -85.1164    XZZ     -78.8673    YZZ      36.0833
       ZZZ    -269.6997
    Hexadecapole Moments (Debye-Ang^3)
      XXXX    -765.1196   XXXY     105.6268   XXYY    -214.2694
      XYYY      92.1718   YYYY    -619.5210   XXXZ    -432.9538
      XXYZ      51.9402   XYYZ    -120.9321   YYYZ      98.6888
      XXZZ    -445.2162   XYZZ      58.9555   YYZZ    -354.2935
      XZZZ    -441.7245   YZZZ     136.6185   ZZZZ   -1527.8512
 -----------------------------------------------------------------
Archival summary:
1\1\nid00539\SP\ProcedureUnspecified\BasisUnspecified\78\meili\MonSep2705:23:112021MonSep2705:23:112021\0\\#,ProcedureUnspecified,BasisUnspecified,\\0,1\C\C,1,1.39483\H,2,1.08156,1,118.785\C,2,1.40057,1,121.505,3,-179.917,0\H,4,1.07997,2,120.715,1,-179.848,0\C,4,1.37983,2,119.999,1,0.173013,0\H,6,1.08077,4,119.284,2,179.655,0\C,1,1.40517,2,118.74,3,-179.999,0\H,8,1.08288,1,119.494,2,179.94,0\C,6,1.40747,4,120.104,2,-0.189025,0\H,10,1.08044,6,118.987,4,179.477,0\C,1,1.52645,2,119.844,3,2.53622,0\H,12,1.08777,1,106.588,2,135.84,0\H,12,1.09246,1,107.285,2,19.7427,0\H,12,1.10003,1,115.752,2,-100.141,0\\\@

 Total job time:  27848.65s(wall), 55146.55s(cpu) 
 Mon Sep 27 05:23:14 2021

        *************************************************************
        *                                                           *
        *  Thank you very much for using Q-Chem.  Have a nice day.  *
        *                                                           *
        *************************************************************


Done Job For Fragment 1
calling putenv with: QCSCRATCH=/global/cscratch1/sd/meili 
calling putenv with: QCLOCALSCR=/tmp 
calling putenv with: QCTHREADS=32 
Doing General SCFMI
 Exchange:     0.1670 Hartree-Fock + 1.0000 wB97X-V + LR-HF
 Correlation:  1.0000 wB97X-V
 Using Euler-Maclaurin-Lebedev (99,590) quadrature formula
 Nonlocal Correlation:  VV10 with C = 0.0100 and b = 6.00 and scale = 1.00000
 Grid used for NLC:  SG-1 standard quadrature
performing fock build before subrot guess so that all methods have access
Printing subrot_rss_gen Method Specification:
Occupied Subspace Method is 0
Virtual Subspace Method is 0
Energy of the unrelaxed supersystem initial determinant -543.154456739696
performing fock build before subrot guess so that all methods have access
Printing subrot_rss_gen Method Specification:
Occupied Subspace Method is 0
Virtual Subspace Method is 0
Energy of the unrelaxed supersystem initial determinant w/ solvent -543.159675159689
write pseudocanon occs and virts to disk
write pseudocanon orbital energies to disk
Tolerance of ortho_decomp_scf: 1.00e-06
GDM subspace size: 20
Beginning the Orthogonal Decomposition of the Initial Supersystem Wavefunction
    1    -543.1394701232      1.75e-02     ortho_decomp Preconditoned Steepest Descent
    2    -543.1407973692      4.37e-04     ortho_decomp BFGS Step
    3    -543.1408015407      3.46e-05     ortho_decomp BFGS Step
    4    -543.1408015502      1.54e-06     ortho_decomp BFGS Step
    5    -543.1408015502      6.37e-08     ortho_decomp 00000 Convergence criterion met
 Hartree-Fock
 Hartree-Fock
 Hartree-Fock
Doing General SCFMI
 Exchange:     0.1670 Hartree-Fock + 1.0000 wB97X-V + LR-HF
 Correlation:  1.0000 wB97X-V
 Using Euler-Maclaurin-Lebedev (99,590) quadrature formula
 Nonlocal Correlation:  VV10 with C = 0.0100 and b = 6.00 and scale = 1.00000
 Grid used for NLC:  SG-1 standard quadrature
performing fock build at end of subrot_r(subrot) constructor so that all methods have access
<S^2> of initial wavefunction before polarization iterations 0.0000000000
Beginning iterations for the determination of the polarized wavefunction
Energy prior to optimization (guess energy) = -543.159675159689
Begin Timing: Total SCF Calculation
begin iterations for algorithm: DIIS         
the SCF tolerance is set to 1.00e-08
    1    -543.1596751597      5.10e-05     00000 
    2    -543.1599471654      2.04e-05     00000 
    3    -543.1599711203      1.12e-05     00000 
    4    -543.1599797369      3.35e-06     00000 
    5    -543.1599808185      1.41e-06     00000 
    6    -543.1599811005      6.46e-07     00000 
    7    -543.1599811468      2.11e-07     00000 
    8    -543.1599811521      9.21e-08     00000 
    9    -543.1599811529      4.10e-08     00000 
   10    -543.1599811531      1.85e-08     00000 
   11    -543.1599811531      9.21e-09     00000 Convergence criterion met
write pseudocanon occs and virts to disk
write pseudocanon orbital energies to disk
Timing for Total SCF: 9128.00s (wall), 18173.21s (cpu)
<S^2> of polarized wavefunction after polarization iterations 0.0000000000
relaxing scfmi constraint to allow all rotations in the entire AO span
Doing General SCFMI
 Exchange:     0.1670 Hartree-Fock + 1.0000 wB97X-V + LR-HF
 Correlation:  1.0000 wB97X-V
 Using Euler-Maclaurin-Lebedev (99,590) quadrature formula
 Nonlocal Correlation:  VV10 with C = 0.0100 and b = 6.00 and scale = 1.00000
 Grid used for NLC:  SG-1 standard quadrature
performing fock build at end of subrot_r(subrot) constructor so that all methods have access
<S^2> of polarized wavefunction before ct-allowed iterations 0.0000000000
Beginning iterations for the determination of the CT-Allowed wavefunction
Energy prior to optimization (guess energy) = -543.159981153100
Begin Timing: Total SCF Calculation
begin iterations for algorithm: DIIS         
the SCF tolerance is set to 1.00e-08
    1    -543.1599811531      6.33e-05     00000 
    2    -543.1608837872      6.88e-06     00000 
    3    -543.1609108585      1.11e-06     00000 
    4    -543.1609116278      5.50e-07     00000 
    5    -543.1609116978      1.20e-07     00000 
    6    -543.1609117038      3.90e-08     00000 
    7    -543.1609117043      1.19e-08     00000 
    8    -543.1609117044      4.30e-09     00000 Convergence criterion met
write pseudocanon occs and virts to disk
write pseudocanon orbital energies to disk
Timing for Total SCF: 6375.00s (wall), 12690.14s (cpu)
<S^2> of ct_allowed wavefunction after ct-allowed iterations 0.0000000000

================================
        Results of EDA2         
================================
Basic EDA Quantities
--------------------
Fragment Energies (Ha):
1 -271.5791475388
2 -271.5793483931
--------------------
  E_prp (kJ/mol) = -0.0000
  E_sol (kJ/mol) = 0.1155
  E_frz (kJ/mol) = -3.2116
  E_pol (kJ/mol) = -0.8034
  E_vct (kJ/mol) = -2.4432
  E_int (kJ/mol) = -6.3427
--------------------


Initial Wavefunction Decomposition
--------------------
  --------------------
  Orthogonal Fragment Subspace Decomposition:
  --------------------
     E_elec   (ELEC)   (kJ/mol) = -14.1369
     E_pauli  (PAULI)  (kJ/mol) = 25.2028
     E_disp   (DISP)   (kJ/mol) = -14.2775
     --------------------
     Terms summing to E_pauli:
     --------------------
        E_kep_pauli       (kJ/mol) = 32.6406
        E_disp_free_pauli (kJ/mol) = -7.4378
  --------------------
  Classical Frozen Decomposition:
  --------------------
     E_cls_elec  (CLS ELEC)  (kJ/mol) = -4.6966
     E_cls_pauli (CLS PAULI) (kJ/mol) = 1.4850
    [E_mod_pauli (MOD PAULI) (kJ/mol) = 15.7625 (CLS PAULI - DISP from orthogonal decomposition) ]
  --------------------
--------------------

Simplified EDA Summary (kJ/mol)
--------------------
 PREPARATION     -0.0000
 SOLVATION       0.1155
 FROZEN          11.0659      (does not include dispersion)
[PAULI           25.2028]     (if this is negligible, then frozen describes electrostatics)
 DISPERSION      -14.2775
 POLARIZATION    -0.8034
 CHARGE TRANSFER -2.4432
 TOTAL           -6.3427     (PRP + SOL + FRZ + DISP + POL + CT)
--------------------
 
 --------------------------------------------------------------
 
                    Orbital Energies (a.u.)
 --------------------------------------------------------------
 
 Alpha MOs
 -- Occupied --
-10.2875 -10.2872 -10.2809 -10.2808 -10.2780 -10.2760 -10.2759 -10.2751
-10.2745 -10.2732 -10.2730 -10.2727 -10.2672 -10.2672  -0.9951  -0.9908
 -0.9078  -0.9034  -0.8768  -0.8739  -0.8152  -0.8130  -0.7342  -0.7302
 -0.7049  -0.7035  -0.6307  -0.6281  -0.5757  -0.5714  -0.5693  -0.5685
 -0.5404  -0.5360  -0.5294  -0.5232  -0.5145  -0.5132  -0.4912  -0.4872
 -0.4747  -0.4704  -0.4445  -0.4429  -0.4416  -0.4390  -0.3495  -0.3443
 -0.3412  -0.3391
 -- Virtual --
  0.0544   0.0556   0.0599   0.0634   0.0660   0.0697   0.0750   0.0793
  0.0862   0.0980   0.1016   0.1038   0.1091   0.1151   0.1222   0.1267
  0.1350   0.1469   0.1506   0.1588   0.1609   0.1630   0.1727   0.1792
  0.1816   0.1856   0.1931   0.2001   0.2084   0.2099   0.2132   0.2169
  0.2205   0.2271   0.2300   0.2317   0.2364   0.2383   0.2438   0.2519
  0.2558   0.2580   0.2607   0.2658   0.2703   0.2736   0.2751   0.2764
  0.2821   0.2848   0.2867   0.2910   0.2927   0.2966   0.2997   0.3021
  0.3049   0.3075   0.3127   0.3139   0.3219   0.3238   0.3263   0.3334
  0.3367   0.3391   0.3411   0.3429   0.3477   0.3533   0.3542   0.3579
  0.3618   0.3638   0.3672   0.3677   0.3754   0.3776   0.3816   0.3821
  0.3841   0.3893   0.3913   0.3932   0.3968   0.3993   0.4000   0.4063
  0.4091   0.4118   0.4182   0.4225   0.4242   0.4280   0.4318   0.4342
  0.4376   0.4400   0.4435   0.4437   0.4473   0.4523   0.4530   0.4570
  0.4611   0.4633   0.4666   0.4734   0.4761   0.4808   0.4818   0.4843
  0.4869   0.4914   0.4942   0.4953   0.5009   0.5022   0.5104   0.5132
  0.5170   0.5185   0.5210   0.5281   0.5350   0.5410   0.5439   0.5472
  0.5497   0.5528   0.5536   0.5605   0.5647   0.5710   0.5778   0.5787
  0.5801   0.5836   0.5884   0.5919   0.5994   0.6040   0.6085   0.6121
  0.6168   0.6187   0.6236   0.6270   0.6311   0.6380   0.6431   0.6523
  0.6545   0.6583   0.6705   0.6726   0.6800   0.6809   0.6877   0.6892
  0.6944   0.7003   0.7024   0.7088   0.7114   0.7173   0.7260   0.7263
  0.7300   0.7336   0.7375   0.7437   0.7476   0.7503   0.7544   0.7551
  0.7577   0.7634   0.7667   0.7700   0.7727   0.7759   0.7824   0.7829
  0.7845   0.7866   0.7896   0.7934   0.7980   0.8024   0.8038   0.8070
  0.8115   0.8202   0.8228   0.8260   0.8294   0.8339   0.8376   0.8416
  0.8432   0.8456   0.8497   0.8531   0.8579   0.8611   0.8615   0.8671
  0.8742   0.8811   0.8858   0.8878   0.8922   0.9008   0.9059   0.9125
  0.9184   0.9205   0.9245   0.9308   0.9346   0.9446   0.9512   0.9568
  0.9663   0.9791   0.9872   0.9913   1.0001   1.0029   1.0077   1.0150
  1.0184   1.0288   1.0357   1.0449   1.0588   1.0672   1.0735   1.0743
  1.0864   1.0906   1.0957   1.0973   1.1030   1.1075   1.1139   1.1230
  1.1305   1.1420   1.1468   1.1712   1.1804   1.1852   1.1959   1.2239
  1.2276   1.2511   1.2544   1.2763   1.2850   1.3077   1.3189   1.3281
  1.3375   1.3460   1.3505   1.3626   1.3729   1.3833   1.4033   1.4076
  1.4254   1.4430   1.4480   1.4619   1.4698   1.4745   1.4794   1.4803
  1.4846   1.5024   1.5189   1.5324   1.5354   1.5423   1.5560   1.6022
  1.6133   1.6154   1.6286   1.6339   1.6396   1.6542   1.6546   1.6766
  1.6812   1.6954   1.7429   1.7553   1.7723   1.7848   1.7855   1.7906
  1.7942   1.8032   1.8056   1.8183   1.8330   1.8414   1.8557   1.8605
  1.8726   1.8886   1.8961   1.9172   1.9271   1.9342   1.9409   1.9421
  1.9538   1.9676   1.9750   1.9796   1.9847   1.9954   2.0030   2.0046
  2.0141   2.0207   2.0266   2.0331   2.0430   2.0528   2.0619   2.0655
  2.0761   2.0838   2.0868   2.1019   2.1151   2.1196   2.1296   2.1400
  2.1464   2.1563   2.1723   2.1809   2.1848   2.1925   2.2157   2.2267
  2.2446   2.2534   2.2635   2.2736   2.2840   2.2963   2.3075   2.3092
  2.3314   2.3377   2.3642   2.3891   2.3968   2.4032   2.4075   2.4183
  2.4297   2.4455   2.4578   2.4870   2.4944   2.5078   2.5428   2.5448
  2.5569   2.5627   2.5727   2.5749   2.5940   2.6023   2.6136   2.6298
  2.6458   2.6464   2.6708   2.6851   2.6931   2.6960   2.7014   2.7033
  2.7076   2.7271   2.7416   2.7451   2.7624   2.7741   2.7870   2.7883
  2.8039   2.8079   2.8151   2.8316   2.8393   2.8415   2.8591   2.8609
  2.8732   2.8963   2.9037   2.9123   2.9153   2.9254   2.9302   2.9346
  2.9482   2.9545   2.9603   2.9632   2.9747   2.9844   2.9985   3.0040
  3.0193   3.0246   3.0274   3.0327   3.0417   3.0479   3.0640   3.0741
  3.0792   3.0838   3.0937   3.1040   3.1134   3.1281   3.1341   3.1638
  3.1769   3.1960   3.2041   3.2110   3.2311   3.2386   3.2470   3.2572
  3.2601   3.2723   3.2849   3.3051   3.3124   3.3232   3.3287   3.3439
  3.3534   3.3624   3.3659   3.3724   3.3876   3.3958   3.3986   3.4117
  3.4157   3.4359   3.4368   3.4481   3.4529   3.4635   3.4670   3.4765
  3.4778   3.4900   3.4948   3.4987   3.5071   3.5145   3.5177   3.5203
  3.5273   3.5372   3.5405   3.5468   3.5528   3.5541   3.5609   3.5655
  3.5746   3.5775   3.5796   3.5885   3.6047   3.6128   3.6206   3.6301
  3.6332   3.6450   3.6558   3.6640   3.6772   3.6902   3.6969   3.7022
  3.7136   3.7444   3.7615   3.7687   3.7816   3.8043   3.8120   3.8218
  3.8356   3.8881   3.8905   3.9088   3.9134   3.9325   3.9390   3.9472
  3.9548   3.9595   4.0022   4.0206   4.0244   4.0590   4.0619   4.1227
  4.1430   4.1977   4.2079   4.2484   4.2532   4.2569   4.2683   4.2783
  4.2872   4.2933   4.2996   4.3134   4.3217   4.3241   4.3275   4.3333
  4.3470   4.3502   4.3542   4.3592   4.3824   4.3956   4.4002   4.4070
  4.4102   4.4360   4.4462   4.4598   4.4642   4.5224   4.5353   4.5792
  4.5972   4.6166   4.6375   4.7224   4.7267   4.7436   4.7615   4.7870
  4.7995   4.8316   4.8694   4.9221   4.9295   4.9477   4.9541   4.9998
  5.0144   5.0315   5.0449   5.1620   5.1730   5.2459   5.2701   5.3241
  5.3332   5.3378   5.3590   5.4517   5.4768   5.5167   5.5231   5.6576
  5.6699   5.8169   5.8416  22.6281  22.6340  22.6844  22.7024  22.8613
 22.8823  22.9022  22.9164  22.9799  23.0014  23.0529  23.0674  23.3655
 23.3811
 --------------------------------------------------------------
 
          Ground-State Mulliken Net Atomic Charges

     Atom                 Charge (a.u.)
  ----------------------------------------
      1 C                    -1.057679
      2 C                    -0.005854
      3 C                    -0.470868
      4 C                    -0.585709
      5 C                     0.610778
      6 C                    -0.479478
      7 C                    -0.413668
      8 H                     0.139565
      9 H                     0.391368
     10 H                     0.291632
     11 H                     0.346146
     12 H                     0.284304
     13 H                     0.216223
     14 H                     0.355330
     15 H                     0.276259
     16 C                    -1.000845
     17 C                     0.693529
     18 C                    -0.058534
     19 C                    -0.430730
     20 C                    -0.496365
     21 C                    -0.595033
     22 C                    -0.459108
     23 H                     0.263560
     24 H                     0.272780
     25 H                     0.371549
     26 H                     0.301584
     27 H                     0.322317
     28 H                     0.320504
     29 H                     0.351851
     30 H                     0.244592
  ----------------------------------------
  Sum of atomic charges =     0.000000

 -----------------------------------------------------------------
                    Cartesian Multipole Moments
 -----------------------------------------------------------------
    Charge (ESU x 10^10)
                 0.0000
    Dipole Moment (Debye)
         X       0.1408      Y      -0.2141      Z      -0.5587
       Tot       0.6147
    Quadrupole Moments (Debye-Ang)
        XX     -84.5658     XY      -1.6672     YY     -82.3572
        XZ      -3.9783     YZ      -1.5940     ZZ     -76.6181
    Octopole Moments (Debye-Ang^2)
       XXX     -17.5264    XXY      16.9776    XYY       6.9400
       YYY      -6.6294    XXZ     -14.6903    XYZ      15.7031
       YYZ      11.4310    XZZ     -20.8842    YZZ      16.8155
       ZZZ     -12.2902
    Hexadecapole Moments (Debye-Ang^3)
      XXXX   -1579.5017   XXXY     239.1939   XXYY    -390.9767
      XYYY     273.9797   YYYY    -881.8640   XXXZ    -819.5096
      XXYZ     114.9574   XYYZ    -247.9768   YYYZ     350.6765
      XXZZ    -882.8931   XYZZ      90.5495   YYZZ    -709.0443
      XZZZ    -791.6350   YZZZ     352.8996   ZZZZ   -3291.7343
 -----------------------------------------------------------------
Archival summary:
1\1\nid00539\SP\ProcedureUnspecified\BasisUnspecified\1416\meili\MonSep2713:06:222021MonSep2713:06:222021\0\\#,ProcedureUnspecified,BasisUnspecified,\\0,1\C\C,1,1.39483\H,2,1.08156,1,118.785\C,2,1.40057,1,121.505,3,-179.917,0\H,4,1.07997,2,120.715,1,-179.848,0\C,4,1.37983,2,119.999,1,0.173013,0\H,6,1.08077,4,119.284,2,179.655,0\C,1,1.40517,2,118.74,3,-179.999,0\H,8,1.08288,1,119.494,2,179.94,0\C,6,1.40747,4,120.104,2,-0.189025,0\H,10,1.08044,6,118.987,4,179.477,0\C,1,1.52645,2,119.844,3,2.53622,0\H,12,1.08777,1,106.588,2,135.84,0\H,12,1.09246,1,107.285,2,19.7427,0\H,12,1.10003,1,115.752,2,-100.141,0\H,13,2.18064,12,118.969,1,-30.8646,0\C,16,1.07951,13,148.581,12,-134.179,0\C,17,1.39822,16,119.848,13,110.549,0\H,18,1.08224,17,119.753,16,-0.35042,0\C,17,1.40795,16,120.192,13,-69.7357,0\H,20,1.0824,17,119.905,16,0.767726,0\C,20,1.40072,17,121.565,16,-179.158,0\C,22,1.40335,20,118.236,17,-0.618914,0\H,23,1.0819,22,118.675,20,-179.966,0\C,18,1.40936,17,119.636,16,179.586,0\H,25,1.08511,18,119.611,17,-179.958,0\C,22,1.53582,20,119.162,17,176.321,0\H,27,1.09196,22,107.268,20,17.1588,0\H,27,1.09235,22,106.962,20,-98.9018,0\H,27,1.1,22,115.538,20,136.432,0\\\@

 Total job time:  84896.56s(wall), 55372.36s(cpu) 
 Mon Sep 27 13:06:24 2021

        *************************************************************
        *                                                           *
        *  Thank you very much for using Q-Chem.  Have a nice day.  *
        *                                                           *
        *************************************************************


