
Running Job 1 of 1 SSI-045ASP-081GLU-1_SMD_TZVPD.in
qchem SSI-045ASP-081GLU-1_SMD_TZVPD.in_35342.0 /tmp/qchem35342/ 0
/global/common/cori/software/qchem/5.2/exe/qcprog.exe_s SSI-045ASP-081GLU-1_SMD_TZVPD.in_35342.0 /tmp/qchem35342/
                  Welcome to Q-Chem
     A Quantum Leap Into The Future Of Chemistry


 Q-Chem 5.2, Q-Chem, Inc., Pleasanton, CA (2019)

 License issued to: National Energy Research Scientific Computing Center

 Yihan Shao,  Zhengting Gan,  E. Epifanovsky,  A. T. B. Gilbert,  M. Wormit,  
 J. Kussmann,  A. W. Lange,  A. Behn,  Jia Deng,  Xintian Feng,  D. Ghosh,  
 M. Goldey,  P. R. Horn,  L. D. Jacobson,  I. Kaliman,  T. Kus,  A. Landau,  
 Jie Liu,  E. I. Proynov,  R. M. Richard,  R. P. Steele,  E. J. Sundstrom,  
 H. L. Woodcock III,  P. M. Zimmerman,  D. Zuev,  B. Albrecht,  E. Alguire,  
 S. A. Baeppler,  D. Barton,  Z. Benda,  Y. A. Bernard,  E. J. Berquist,  
 K. B. Bravaya,  H. Burton,  D. Casanova,  Chun-Min Chang,  Yunqing Chen,  
 A. Chien,  K. D. Closser,  M. P. Coons,  S. Coriani,  S. Dasgupta,  
 A. L. Dempwolff,  M. Diedenhofen,  Hainam Do,  R. G. Edgar,  Po-Tung Fang,  
 S. Faraji,  S. Fatehi,  Qingguo Feng,  K. D. Fenk,  J. Fosso-Tande,  
 J. Gayvert,  Qinghui Ge,  A. Ghysels,  G. Gidofalvi,  J. Gomes,  
 J. Gonthier,  A. Gunina,  D. Hait,  M. W. D. Hanson-Heine,  
 P. H. P. Harbach,  A. W. Hauser,  M. F. Herbst,  J. E. Herr,  
 E. G. Hohenstein,  Z. C. Holden,  Kerwin Hui,  B. C. Huynh,  T.-C. Jagau,  
 Hyunjun Ji,  B. Kaduk,  K. Khistyaev,  Jaehoon Kim,  P. Klunzinger,  K. Koh,  
 D. Kosenkov,  L. Koulias,  T. Kowalczyk,  C. M. Krauter,  A. Kunitsa,  
 Ka Un Lao,  A. Laurent,  K. V. Lawler,  Joonho Lee,  D. Lefrancois,  
 S. Lehtola,  D. S. Levine,  Yi-Pei Li,  You-Sheng Lin,  Fenglai Liu,  
 E. Livshits,  A. Luenser,  P. Manohar,  E. Mansoor,  S. F. Manzer,  
 Shan-Ping Mao,  Yuezhi Mao,  N. Mardirossian,  A. V. Marenich,  
 T. Markovich,  L. A. Martinez-Martinez,  S. A. Maurer,  N. J. Mayhall,  
 S. C. McKenzie,  J.-M. Mewes,  P. Morgante,  A. F. Morrison,  
 J. W. Mullinax,  K. Nanda,  T. S. Nguyen-Beck,  R. Olivares-Amaya,  
 J. A. Parkhill,  Zheng Pei,  T. M. Perrine,  F. Plasser,  P. Pokhilko,  
 S. Prager,  A. Prociuk,  E. Ramos,  D. R. Rehn,  F. Rob,  M. Scheurer,  
 M. Schneider,  N. Sergueev,  S. M. Sharada,  S. Sharma,  D. W. Small,  
 T. Stauch,  T. Stein,  Yu-Chuan Su,  A. J. W. Thom,  A. Tkatchenko,  
 T. Tsuchimochi,  N. M. Tubman,  L. Vogt,  M. L. Vidal,  O. Vydrov,  
 M. A. Watson,  J. Wenzel,  M. de Wergifosse,  T. A. Wesolowski,  A. White,  
 J. Witte,  A. Yamada,  Jun Yang,  K. Yao,  S. Yeganeh,  S. R. Yost,  
 Zhi-Qiang You,  A. Zech,  Igor Ying Zhang,  Xing Zhang,  Yan Zhao,  
 Ying Zhu,  B. R. Brooks,  G. K. L. Chan,  C. J. Cramer,  M. S. Gordon,  
 W. J. Hehre,  A. Klamt,  M. W. Schmidt,  C. D. Sherrill,  D. G. Truhlar,  
 A. Aspuru-Guzik,  R. Baer,  A. T. Bell,  N. A. Besley,  Jeng-Da Chai,  
 A. E. DePrince, III,  R. A. DiStasio Jr.,  A. Dreuw,  B. D. Dunietz,  
 T. R. Furlani,  Chao-Ping Hsu,  Yousung Jung,  Jing Kong,  D. S. Lambrecht,  
 WanZhen Liang,  C. Ochsenfeld,  V. A. Rassolov,  L. V. Slipchenko,  
 J. E. Subotnik,  T. Van Voorhis,  J. M. Herbert,  A. I. Krylov,  
 P. M. W. Gill,  M. Head-Gordon

 Contributors to earlier versions of Q-Chem not listed above: 
 R. D. Adamson,  B. Austin,  J. Baker,  G. J. O. Beran,  K. Brandhorst,  
 S. T. Brown,  E. F. C. Byrd,  A. K. Chakraborty,  C.-L. Cheng,  
 Siu Hung Chien,  D. M. Chipman,  D. L. Crittenden,  H. Dachsel,  
 R. J. Doerksen,  A. D. Dutoi,  L. Fusti-Molnar,  W. A. Goddard III,  
 A. Golubeva-Zadorozhnaya,  S. R. Gwaltney,  G. Hawkins,  A. Heyden,  
 S. Hirata,  G. Kedziora,  F. J. Keil,  C. Kelley,  Jihan Kim,  R. A. King,  
 R. Z. Khaliullin,  P. P. Korambath,  W. Kurlancheek,  A. M. Lee,  M. S. Lee,  
 S. V. Levchenko,  Ching Yeh Lin,  D. Liotard,  R. C. Lochan,  I. Lotan,  
 P. E. Maslen,  N. Nair,  D. P. O'Neill,  D. Neuhauser,  E. Neuscamman,  
 C. M. Oana,  R. Olson,  B. Peters,  R. Peverati,  P. A. Pieniazek,  
 Y. M. Rhee,  J. Ritchie,  M. A. Rohrdanz,  E. Rosta,  N. J. Russ,  
 H. F. Schaefer III,  N. E. Schultz,  N. Shenvi,  A. C. Simmonett,  A. Sodt,  
 D. Stuck,  K. S. Thanthiriwatte,  V. Vanovschi,  Tao Wang,  A. Warshel,  
 C. F. Williams,  Q. Wu,  X. Xu,  W. Zhang

 Please cite Q-Chem as follows:
 Y. Shao et al., Mol. Phys. 113, 184-215 (2015)
 DOI: 10.1080/00268976.2014.952696

 Q-Chem 5.2.0 for Intel X86 EM64T Linux

 Parts of Q-Chem use Armadillo 8.300.2 (Tropical Shenanigans).
 http://arma.sourceforge.net/

 Q-Chem begins on Sun Sep 26 07:54:36 2021  

Host: cori01
0

     Scratch files written to /tmp/qchem35342//
 May1019 |scratch|qcdevops|jenkins|workspace|build_RNUM -1
Processing $rem in /global/common/cori/software/qchem/5.2/config/preferences:
	 MEM_TOTAL  96000 
NAlpha2: 64
NElect   64
Mult     1
Symmetry turned off for PCM/SM12/SMD calculation

 Q-Chem warning in module libgen/rem_setup.C, line 2803:

 Neither GIA nor STOLL is specified by user. Use STOLL as the default


Checking the input file for inconsistencies... 	...done.

--------------------------------------------------------------
User input:
--------------------------------------------------------------
$comment
SSI-045ASP-081GLU-1.pdb
$end

$molecule
-2 1
--
-1 1
C    0.931353963890    1.584837822833   -2.981344876531
C    0.151353963890    1.141837822833   -1.753344876531
O    0.531353963890    0.091837822833   -1.201344876531
O   -0.819646036110    1.826837822833   -1.351344876531
H    1.826353963890    2.109837822833   -2.638344876531
H    0.327353963890    2.285837822833   -3.559344876531
H    1.230476963890    0.730200822833   -3.605944876531
--
-1 1
C    0.827353963890   -2.113162177167    1.421655123469
C   -0.245646036110   -1.105162177167    1.848655123469
O   -0.669646036110   -0.282162177167    1.014655123469
O   -0.710646036110   -1.143162177167    3.009655123469
H    1.425353963890   -1.683162177167    0.617655123469
H    0.343353963890   -3.011162177167    1.034655123469
H    1.510833963890   -2.407418177167    2.231755123469
$end

$rem
JOBTYPE			EDA
EDA2			1
method			wB97X-V
BASIS			def2-TZVPD
XC_GRID			000099000590
NL_GRID			1
UNRESTRICTED		FALSE
MAX_SCF_CYCLES		200
SYMMETRY		FALSE
SYM_IGNORE		TRUE
MEM_STATIC		2000
BASIS_LIN_DEP_THRESH 	6
THRESH 			14
SCF_CONVERGENCE 	8
SCF_PRINT_FRGM 		TRUE
SOLVENT_METHOD          SMD
$end

$SMX
SOLVENT			WATER
$END
--------------------------------------------------------------
 ----------------------------------------------------------------
             Standard Nuclear Orientation (Angstroms)
    I     Atom           X                Y                Z
 ----------------------------------------------------------------
    1      C       0.9313539639     1.5848378228    -2.9813448765
    2      C       0.1513539639     1.1418378228    -1.7533448765
    3      O       0.5313539639     0.0918378228    -1.2013448765
    4      O      -0.8196460361     1.8268378228    -1.3513448765
    5      H       1.8263539639     2.1098378228    -2.6383448765
    6      H       0.3273539639     2.2858378228    -3.5593448765
    7      H       1.2304769639     0.7302008228    -3.6059448765
    8      C       0.8273539639    -2.1131621772     1.4216551235
    9      C      -0.2456460361    -1.1051621772     1.8486551235
   10      O      -0.6696460361    -0.2821621772     1.0146551235
   11      O      -0.7106460361    -1.1431621772     3.0096551235
   12      H       1.4253539639    -1.6831621772     0.6176551235
   13      H       0.3433539639    -3.0111621772     1.0346551235
   14      H       1.5108339639    -2.4074181772     2.2317551235
 ----------------------------------------------------------------
 Nuclear Repulsion Energy =         343.75483603 hartrees
 There are       32 alpha and       32 beta electrons
 Requested basis set is def2-TZVPD
 There are 138 shells and 362 basis functions

 Total QAlloc Memory Limit  96000 MB
 Mega-Array Size      1956 MB
 MEM_STATIC part      2000 MB
 
 Citation of the SMD model:
 Marenich, A.V.; Cramer, C.J.; Truhlar, D.G.
 J. Phys. Chem. B 2009, 113, 6378-6396.
 iSolventCode=           1
 Solvent: water                                                           
 
 vradii
            1           2           3           4           5           6
    1   1.8500000   1.8500000   1.5200000   1.5200000   1.2000000   1.2000000
            7           8           9          10          11          12
    1   1.2000000   1.8500000   1.8500000   1.5200000   1.5200000   1.2000000
           13          14
    1   1.2000000   1.2000000
 Changing PCM_VDW_RADII to SMD_RADIUS
 Discretize the solute cavity surface with Lebedev spheres
	Using 110 Lebedev grid points for each H atom
	Using 194 Lebedev grid points for other atoms
	Atomic van der Waals radii will be scaled by 1.20
 Remove points where switching function is < 1.0e-08
 Keep 1271 surface tesserae and discard 941 interior tesserae
 Molecular Surface Area = 154.535 Angst**2

                       Distance Matrix (Angstroms)
             C (  1)   C (  2)   O (  3)   O (  4)   H (  5)   H (  6)
   C (  2)  1.520734
   O (  3)  2.357424  1.245634
   O (  4)  2.404468  1.254460  2.204070
   H (  5)  1.092840  2.127410  2.795410  2.955973
   H (  6)  1.091009  2.145075  3.227292  2.530129  1.768111
   H (  7)  1.100002  2.183135  2.584256  3.238648  1.787377  1.799391
   C (  8)  5.750863  4.597024  3.439443  5.091732  5.942670  6.664200
   C (  9)  5.652462  4.263921  3.367349  4.377910  5.895980  6.408875
   O ( 10)  4.692218  3.219261  2.548123  3.173064  5.029522  5.339486
   O ( 11)  6.784558  5.352610  4.560736  5.277414  6.994161  7.482463
   H ( 12)  4.886375  3.901966  2.694183  4.608371  5.014896  5.865654
   H ( 13)  6.131657  5.005718  3.829314  5.518316  6.474169  7.011655
   H ( 14)  6.591685  5.506943  4.357963  6.016533  6.650040  7.547458
             H (  7)   C (  8)   C (  9)   O ( 10)   O ( 11)   H ( 12)
   C (  8)  5.789990
   C (  9)  5.941394  1.532880
   O ( 10)  5.097577  2.399837  1.246058
   O ( 11)  7.144481  2.414143  1.251235  2.173253
   H ( 12)  4.868377  1.090376  2.154457  2.551359  3.252039
   H ( 13)  6.026604  1.091068  2.154612  2.911015  2.915641  1.763008
   H ( 14)  6.633400  1.099997  2.219878  3.279106  2.671787  1.771206
             H ( 13)
   H ( 14)  1.777798
 
 A cutoff of  1.0D-14 yielded   8517 shell pairs
 There are     59233 function pairs (     75663 Cartesian)
 Smallest overlap matrix eigenvalue = 9.47E-06

 Scale SEOQF with 1.000000e-01/1.000000e-01/1.000000e-01

 Standard Electronic Orientation quadrupole field applied
 Nucleus-field energy     =    -0.0000000168 hartrees

 -----------------------------------------------------------------------
  General SCF calculation program by
  Eric Jon Sundstrom, Paul Horn, Yuezhi Mao, Dmitri Zuev, Alec White,
  David Stuck, Shaama M.S., Shane Yost, Joonho Lee, David Small,
  Daniel Levine, Susi Lehtola, Hugh Burton, Evgeny Epifanovsky
 -----------------------------------------------------------------------
================================================================
                 ALMO-EDA with the EDA2 driver                  
================================================================
 The second-generation ALMO-EDA (for DFT):                      
 P. R. Horn, Y. Mao and M. Head-Gordon, PCCP, 18, 23067 (2016)  
 Decomposition of the frozen energy:                            
 P. R. Horn, Y. Mao and M. Head-Gordon, JCP, 144, 114107 (2016) 
 FERF model for polarization:                                   
 P. R. Horn and M. Head-Gordon, JCP, 143, 114111 (2015)         
Using eda2 option set 1
Option set summary: Frozen orbital wavefunction, initial wavefunction decomposition, and nDQ polarization.
--------------------------------
Printing EDA Options
--------------------------------
eda_child_super_basis      0
fragmo_guess_mode          0
child_mp                   1
child_mp_orders            232
cls_elec                   1
cls_disp                   0
scfmi_mode                 1
scfmi_occs                 0
scfmi_virts                0
frz_relax                  0
frz_relax_method           0
dc_pen_start               0
dc_pen_conv                0
dc_pen_increment           0
dc_pen_steps               0
dc_pen_thresh_factor       0
dc_pen_pre_newton_thresh   0
frz_ortho_decomp           1
frz_ortho_decomp_conv      6
frgm_method                2
scfmi_freeze_ss            0
separate_rehyb             0
plot_diff_den              0
eda_nocv                   0
eda_vct_relax              1
disp_free_x                0
disp_free_c                0
eda_bsse                   0
eda_pct_a                  0
eda_covp                   0
--------------------------------
Attempting to make child job directory: /tmp/qchem35342//Frg1/
Attempting to make child job directory: /tmp/qchem35342//Frg2/
Creating input file /tmp/qchem35342/Frg1.input
using default PutDataFrgm: nothing
calling putenv with: QCSCRATCH=/tmp/qchem35342/ 
calling putenv with: QCLOCALSCR=/tmp/qchem35342/ 
Spawning Job For Fragment 0
                  Welcome to Q-Chem
     A Quantum Leap Into The Future Of Chemistry


 Q-Chem 5.2, Q-Chem, Inc., Pleasanton, CA (2019)

 License issued to: National Energy Research Scientific Computing Center

 Yihan Shao,  Zhengting Gan,  E. Epifanovsky,  A. T. B. Gilbert,  M. Wormit,  
 J. Kussmann,  A. W. Lange,  A. Behn,  Jia Deng,  Xintian Feng,  D. Ghosh,  
 M. Goldey,  P. R. Horn,  L. D. Jacobson,  I. Kaliman,  T. Kus,  A. Landau,  
 Jie Liu,  E. I. Proynov,  R. M. Richard,  R. P. Steele,  E. J. Sundstrom,  
 H. L. Woodcock III,  P. M. Zimmerman,  D. Zuev,  B. Albrecht,  E. Alguire,  
 S. A. Baeppler,  D. Barton,  Z. Benda,  Y. A. Bernard,  E. J. Berquist,  
 K. B. Bravaya,  H. Burton,  D. Casanova,  Chun-Min Chang,  Yunqing Chen,  
 A. Chien,  K. D. Closser,  M. P. Coons,  S. Coriani,  S. Dasgupta,  
 A. L. Dempwolff,  M. Diedenhofen,  Hainam Do,  R. G. Edgar,  Po-Tung Fang,  
 S. Faraji,  S. Fatehi,  Qingguo Feng,  K. D. Fenk,  J. Fosso-Tande,  
 J. Gayvert,  Qinghui Ge,  A. Ghysels,  G. Gidofalvi,  J. Gomes,  
 J. Gonthier,  A. Gunina,  D. Hait,  M. W. D. Hanson-Heine,  
 P. H. P. Harbach,  A. W. Hauser,  M. F. Herbst,  J. E. Herr,  
 E. G. Hohenstein,  Z. C. Holden,  Kerwin Hui,  B. C. Huynh,  T.-C. Jagau,  
 Hyunjun Ji,  B. Kaduk,  K. Khistyaev,  Jaehoon Kim,  P. Klunzinger,  K. Koh,  
 D. Kosenkov,  L. Koulias,  T. Kowalczyk,  C. M. Krauter,  A. Kunitsa,  
 Ka Un Lao,  A. Laurent,  K. V. Lawler,  Joonho Lee,  D. Lefrancois,  
 S. Lehtola,  D. S. Levine,  Yi-Pei Li,  You-Sheng Lin,  Fenglai Liu,  
 E. Livshits,  A. Luenser,  P. Manohar,  E. Mansoor,  S. F. Manzer,  
 Shan-Ping Mao,  Yuezhi Mao,  N. Mardirossian,  A. V. Marenich,  
 T. Markovich,  L. A. Martinez-Martinez,  S. A. Maurer,  N. J. Mayhall,  
 S. C. McKenzie,  J.-M. Mewes,  P. Morgante,  A. F. Morrison,  
 J. W. Mullinax,  K. Nanda,  T. S. Nguyen-Beck,  R. Olivares-Amaya,  
 J. A. Parkhill,  Zheng Pei,  T. M. Perrine,  F. Plasser,  P. Pokhilko,  
 S. Prager,  A. Prociuk,  E. Ramos,  D. R. Rehn,  F. Rob,  M. Scheurer,  
 M. Schneider,  N. Sergueev,  S. M. Sharada,  S. Sharma,  D. W. Small,  
 T. Stauch,  T. Stein,  Yu-Chuan Su,  A. J. W. Thom,  A. Tkatchenko,  
 T. Tsuchimochi,  N. M. Tubman,  L. Vogt,  M. L. Vidal,  O. Vydrov,  
 M. A. Watson,  J. Wenzel,  M. de Wergifosse,  T. A. Wesolowski,  A. White,  
 J. Witte,  A. Yamada,  Jun Yang,  K. Yao,  S. Yeganeh,  S. R. Yost,  
 Zhi-Qiang You,  A. Zech,  Igor Ying Zhang,  Xing Zhang,  Yan Zhao,  
 Ying Zhu,  B. R. Brooks,  G. K. L. Chan,  C. J. Cramer,  M. S. Gordon,  
 W. J. Hehre,  A. Klamt,  M. W. Schmidt,  C. D. Sherrill,  D. G. Truhlar,  
 A. Aspuru-Guzik,  R. Baer,  A. T. Bell,  N. A. Besley,  Jeng-Da Chai,  
 A. E. DePrince, III,  R. A. DiStasio Jr.,  A. Dreuw,  B. D. Dunietz,  
 T. R. Furlani,  Chao-Ping Hsu,  Yousung Jung,  Jing Kong,  D. S. Lambrecht,  
 WanZhen Liang,  C. Ochsenfeld,  V. A. Rassolov,  L. V. Slipchenko,  
 J. E. Subotnik,  T. Van Voorhis,  J. M. Herbert,  A. I. Krylov,  
 P. M. W. Gill,  M. Head-Gordon

 Contributors to earlier versions of Q-Chem not listed above: 
 R. D. Adamson,  B. Austin,  J. Baker,  G. J. O. Beran,  K. Brandhorst,  
 S. T. Brown,  E. F. C. Byrd,  A. K. Chakraborty,  C.-L. Cheng,  
 Siu Hung Chien,  D. M. Chipman,  D. L. Crittenden,  H. Dachsel,  
 R. J. Doerksen,  A. D. Dutoi,  L. Fusti-Molnar,  W. A. Goddard III,  
 A. Golubeva-Zadorozhnaya,  S. R. Gwaltney,  G. Hawkins,  A. Heyden,  
 S. Hirata,  G. Kedziora,  F. J. Keil,  C. Kelley,  Jihan Kim,  R. A. King,  
 R. Z. Khaliullin,  P. P. Korambath,  W. Kurlancheek,  A. M. Lee,  M. S. Lee,  
 S. V. Levchenko,  Ching Yeh Lin,  D. Liotard,  R. C. Lochan,  I. Lotan,  
 P. E. Maslen,  N. Nair,  D. P. O'Neill,  D. Neuhauser,  E. Neuscamman,  
 C. M. Oana,  R. Olson,  B. Peters,  R. Peverati,  P. A. Pieniazek,  
 Y. M. Rhee,  J. Ritchie,  M. A. Rohrdanz,  E. Rosta,  N. J. Russ,  
 H. F. Schaefer III,  N. E. Schultz,  N. Shenvi,  A. C. Simmonett,  A. Sodt,  
 D. Stuck,  K. S. Thanthiriwatte,  V. Vanovschi,  Tao Wang,  A. Warshel,  
 C. F. Williams,  Q. Wu,  X. Xu,  W. Zhang

 Please cite Q-Chem as follows:
 Y. Shao et al., Mol. Phys. 113, 184-215 (2015)
 DOI: 10.1080/00268976.2014.952696

 Q-Chem 5.2.0 for Intel X86 EM64T Linux

 Parts of Q-Chem use Armadillo 8.300.2 (Tropical Shenanigans).
 http://arma.sourceforge.net/

 Q-Chem begins on Sun Sep 26 07:54:39 2021  

Host: cori01
0

     Scratch files written to /tmp/qchem35342//Frg1//
 May1019 |scratch|qcdevops|jenkins|workspace|build_RNUM -1
Processing $rem in /global/common/cori/software/qchem/5.2/config/preferences:
	 MEM_TOTAL  96000 
NAlpha2: 32
NElect   32
Mult     1
Symmetry turned off for PCM/SM12/SMD calculation

Checking the input file for inconsistencies... 	...done.

--------------------------------------------------------------
User input:
--------------------------------------------------------------
$molecule
-1 1
 6	0.9313539639	1.5848378228	-2.9813448765
 6	0.1513539639	1.1418378228	-1.7533448765
 8	0.5313539639	0.0918378228	-1.2013448765
 8	-0.8196460361	1.8268378228	-1.3513448765
 1	1.8263539639	2.1098378228	-2.6383448765
 1	0.3273539639	2.2858378228	-3.5593448765
 1	1.2304769639	0.7302008228	-3.6059448765
$end
$rem
EDA2		1
METHOD		WB97X-V
BASIS		DEF2-TZVPD
XC_GRID		000099000590
NL_GRID		1
UNRESTRICTED		FALSE
MAX_SCF_CYCLES		200
SYMMETRY		FALSE
SYM_IGNORE		TRUE
BASIS_LIN_DEP_THRESH		6
THRESH		14
SCF_CONVERGENCE		8
SCF_PRINT_FRGM		TRUE
SOLVENT_METHOD		SMD
!required keywords
JOBTYPE		SP
SYM_IGNORE		TRUE
SUBSYSTEM		TRUE
GEN_SCFMAN		TRUE
CHILD_INSTRUCTION		2
SYM_IGNORE		TRUE
SCFMI		0
RI_K 0		
PARI_K 0		
MIN_PARI_K 0		
IARI_K 0		
OCC_RI_K 0		
PURECART		1111
MEM_STATIC		2000
MEM_TOTAL		96000
GUI		0
CHILD_MP		1
CHILD_MP_ORDERS		232
FRZ_RELAX		0
FRZ_RELAX_METHOD		0
EDA_CLS_ELEC		1
EDA_CLS_DISP		0
FRZ_ORTHO_DECOMP		1
EDA2		FALSE
FRGM_METHOD		FALSE
CIS_N_ROOTS  0
LOCAL_CIS    0
CIS_RLX_DNS  1
$end
$smx
SOLVENT			WATER
$end
--------------------------------------------------------------
 ----------------------------------------------------------------
             Standard Nuclear Orientation (Angstroms)
    I     Atom           X                Y                Z
 ----------------------------------------------------------------
    1      C       0.9313539639     1.5848378228    -2.9813448765
    2      C       0.1513539639     1.1418378228    -1.7533448765
    3      O       0.5313539639     0.0918378228    -1.2013448765
    4      O      -0.8196460361     1.8268378228    -1.3513448765
    5      H       1.8263539639     2.1098378228    -2.6383448765
    6      H       0.3273539639     2.2858378228    -3.5593448765
    7      H       1.2304769639     0.7302008228    -3.6059448765
 ----------------------------------------------------------------
 Nuclear Repulsion Energy =         112.76648201 hartrees
 There are       16 alpha and       16 beta electrons
 Requested basis set is def2-TZVPD
 There are 69 shells and 181 basis functions

 Total QAlloc Memory Limit  96000 MB
 Mega-Array Size      1956 MB
 MEM_STATIC part      2000 MB
 
 Citation of the SMD model:
 Marenich, A.V.; Cramer, C.J.; Truhlar, D.G.
 J. Phys. Chem. B 2009, 113, 6378-6396.
 iSolventCode=           1
 Solvent: water                                                           
 
 vradii
            1           2           3           4           5           6
    1   1.8500000   1.8500000   1.5200000   1.5200000   1.2000000   1.2000000
            7
    1   1.2000000
 Changing PCM_VDW_RADII to SMD_RADIUS
 Discretize the solute cavity surface with Lebedev spheres
	Using 110 Lebedev grid points for each H atom
	Using 194 Lebedev grid points for other atoms
	Atomic van der Waals radii will be scaled by 1.20
 Remove points where switching function is < 1.0e-08
 Keep 634 surface tesserae and discard 472 interior tesserae
 Molecular Surface Area = 79.990 Angst**2

                       Distance Matrix (Angstroms)
             C (  1)   C (  2)   O (  3)   O (  4)   H (  5)   H (  6)
   C (  2)  1.520734
   O (  3)  2.357424  1.245634
   O (  4)  2.404468  1.254460  2.204070
   H (  5)  1.092840  2.127410  2.795410  2.955973
   H (  6)  1.091009  2.145075  3.227292  2.530129  1.768111
   H (  7)  1.100002  2.183135  2.584256  3.238648  1.787377  1.799391

 
 A cutoff of  1.0D-14 yielded   2391 shell pairs
 There are     16695 function pairs (     21491 Cartesian)
 Smallest overlap matrix eigenvalue = 1.67E-05

 Scale SEOQF with 1.000000e-01/1.000000e-01/1.000000e-01

 Standard Electronic Orientation quadrupole field applied
 Nucleus-field energy     =    -0.0000000091 hartrees
 Guess from superposition of atomic densities
 Warning:  Energy on first SCF cycle will be non-variational
 SAD guess density has 30.625312 electrons

 -----------------------------------------------------------------------
  General SCF calculation program by
  Eric Jon Sundstrom, Paul Horn, Yuezhi Mao, Dmitri Zuev, Alec White,
  David Stuck, Shaama M.S., Shane Yost, Joonho Lee, David Small,
  Daniel Levine, Susi Lehtola, Hugh Burton, Evgeny Epifanovsky
 -----------------------------------------------------------------------
 Exchange:     0.1670 Hartree-Fock + 1.0000 wB97X-V + LR-HF
 Correlation:  1.0000 wB97X-V
 Using Euler-Maclaurin-Lebedev (99,590) quadrature formula
 Nonlocal Correlation:  VV10 with C = 0.0100 and b = 6.00 and scale = 1.00000
 Grid used for NLC:  SG-1 standard quadrature
Energy prior to optimization (guess energy) = -227.766034212432
Begin Timing: Total SCF Calculation
begin iterations for algorithm: DIIS         
the SCF tolerance is set to 1.00e-08
    1    -227.7660342124      1.66e-02     00000 
    2    -225.6503482584      2.48e-02     00000 
    3    -228.6071142471      4.06e-03     00000 
    4    -228.6596184919      1.36e-03     00000 
    5    -228.6654222739      2.11e-04     00000 
    6    -228.6656761453      8.82e-05     00000 
    7    -228.6656969992      5.41e-05     00000 
    8    -228.6657058875      1.35e-05     00000 
    9    -228.6657069708      3.81e-06     00000 
   10    -228.6657070783      1.10e-06     00000 
   11    -228.6657070885      2.11e-07     00000 
   12    -228.6657070888      4.66e-08     00000 
   13    -228.6657070889      1.13e-08     00000 
   14    -228.6657070889      2.85e-09     00000 Convergence criterion met
Timing for Total SCF: 296.00s (wall), 582.06s (cpu)
(3)  G-ENP(liq) elect-nuc-pol free energy of system     -228.665707089 a.u.
(4)  G-CDS(liq) cavity-dispersion-solvent structure 
     free energy                                                3.9185 kcal/mol
(6)  G-S(liq) free energy of system                     -228.659462496 a.u.
E_pcm = -0.1303918719
E_cds = 0.0062445929
Multipole orders to be included
        2
        3
computing dipole RHS
computing quadrupole RHS
total number of RHS in solve_reponses: 8
RHS batch sizes
        8
Beginning Block Conjugate Gradient Iterations. Batch Number: 0
computing hessian-vector products by finite difference
              1      6.90e-01     00000 Conjugate Gradient Iteration
computing hessian-vector products by finite difference
              2      2.11e-01     00000 Conjugate Gradient Iteration
computing hessian-vector products by finite difference
              3      5.70e-02     00000 Conjugate Gradient Iteration
computing hessian-vector products by finite difference
              4      1.52e-02     00000 Conjugate Gradient Iteration
computing hessian-vector products by finite difference
              5      2.26e-03     00000 Conjugate Gradient Iteration
computing hessian-vector products by finite difference
              6      5.97e-04     00000 Conjugate Gradient Iteration
computing hessian-vector products by finite difference
              7      8.57e-05     00000 Conjugate Gradient Iteration
computing hessian-vector products by finite difference
              8      1.06e-05     00000 Conjugate Gradient Iteration
computing hessian-vector products by finite difference
              9      1.61e-06     00000 Conjugate Gradient Iteration
computing hessian-vector products by finite difference
             10      1.58e-07     00000 Conjugate Gradient Iteration
computing hessian-vector products by finite difference
             11      1.90e-08     00000 Conjugate Gradient Iteration
computing hessian-vector products by finite difference
             12      3.09e-09     00000 CG Converged
batch 0 complete
Done Calculating Responses
TESTING ORTHOGONALIZATION OF MULTIPOLE BASIS
Multipole virts passed orthogonality test
Virts Per Order
        48
        80
 
 --------------------------------------------------------------
 
                    Orbital Energies (a.u.)
 --------------------------------------------------------------
 
 Alpha MOs
 -- Occupied --
-19.1539 -19.1522 -10.3533 -10.2460  -1.1658  -1.0669  -0.8397  -0.6165
 -0.5478  -0.5456  -0.5425  -0.4833  -0.4625  -0.3661  -0.3562  -0.3456
 -- Virtual --
  0.0670   0.1000   0.1010   0.1075   0.1353   0.1443   0.1460   0.1504
  0.1566   0.1905   0.2050   0.2213   0.2358   0.2392   0.2580   0.2670
  0.2998   0.3136   0.3328   0.3474   0.3565   0.3630   0.3730   0.3793
  0.3839   0.4045   0.4163   0.4228   0.4309   0.4541   0.4669   0.4731
  0.4836   0.4877   0.5025   0.5110   0.5463   0.5652   0.5742   0.5994
  0.6177   0.6292   0.6329   0.6401   0.6502   0.6705   0.6842   0.6918
  0.7100   0.7221   0.7794   0.7948   0.8052   0.8103   0.8340   0.8486
  0.8589   0.9552   0.9753   0.9831   0.9906   1.0249   1.0498   1.0883
  1.1351   1.2160   1.2394   1.2590   1.2642   1.2994   1.3395   1.3596
  1.4238   1.5419   1.5811   1.7352   1.8051   1.8538   1.8576   1.8908
  1.9203   1.9369   1.9469   1.9588   2.0066   2.0927   2.1087   2.1795
  2.1905   2.2040   2.2923   2.3216   2.4067   2.4364   2.4544   2.4727
  2.5490   2.5708   2.6254   2.6279   2.7797   2.8020   2.8599   2.8931
  2.9323   3.0008   3.0537   3.1477   3.2069   3.2294   3.2587   3.2841
  3.3328   3.3448   3.3736   3.3942   3.4180   3.5116   3.5625   3.5775
  3.5895   3.6449   3.6861   3.7159   3.7404   3.8290   3.9526   4.0480
  4.0760   4.1819   4.3312   4.5492   4.6131   4.6622   4.7742   4.8090
  4.9765   5.2958   5.3242   5.3327   5.3420   5.4749   5.6857   5.7308
  5.7886   5.9917   6.2236   6.3046   6.3267   6.5983   6.6016   6.6798
  6.7156   6.7273   6.9268   6.9447   7.0164   7.2108   7.3366   7.3498
  7.3858  22.5819  23.7185  44.1918  44.3387
 --------------------------------------------------------------
 
          Ground-State Mulliken Net Atomic Charges

     Atom                 Charge (a.u.)
  ----------------------------------------
      1 C                    -0.589219
      2 C                     0.495615
      3 O                    -0.765235
      4 O                    -0.776246
      5 H                     0.192937
      6 H                     0.211935
      7 H                     0.230214
  ----------------------------------------
  Sum of atomic charges =    -1.000000

 -----------------------------------------------------------------
                    Cartesian Multipole Moments
 -----------------------------------------------------------------
    Charge (ESU x 10^10)
                -4.8032
    Dipole Moment (Debye)
         X       1.8995      Y      -3.9339      Z       4.3291
       Tot       6.1502
    Quadrupole Moments (Debye-Ang)
        XX     -29.2502     XY       7.2192     YY     -34.9244
        XZ      -2.9956     YZ       3.8578     ZZ     -27.9524
    Octopole Moments (Debye-Ang^2)
       XXX     -15.8391    XXY     -34.1866    XYY       7.4232
       YYY    -111.5561    XXZ      52.6752    XYZ      -9.7318
       YYZ      59.1238    XZZ      -1.1414    YZZ     -33.2521
       ZZZ     140.8236
    Hexadecapole Moments (Debye-Ang^3)
      XXXX    -118.6265   XXXY      -0.3012   XXYY     -79.7952
      XYYY      17.0540   YYYY    -368.9074   XXXZ      58.0131
      XXYZ      69.1238   XYYZ       2.5227   YYYZ     216.3491
      XXZZ    -137.5171   XYZZ       8.5772   YYZZ    -177.1900
      XZZZ      53.9498   YZZZ     191.9767   ZZZZ    -651.7497
 -----------------------------------------------------------------
Archival summary:
1\1\nid00570\SP\ProcedureUnspecified\BasisUnspecified\223(1-,1)\meili\SunSep2609:08:242021SunSep2609:08:242021\0\\#,ProcedureUnspecified,BasisUnspecified,\\-1,1\C\O,1,1.24563\O,1,1.25446,2,123.67\C,1,1.52073,2,116.547,3,-179.901,0\H,4,1.09101,1,109.331,2,160.831,0\H,4,1.09284,1,107.852,2,-81.8316,0\H,4,1.1,1,111.818,2,38.2326,0\\\@

 Total job time:  4426.70s(wall), 8695.82s(cpu) 
 Sun Sep 26 09:08:25 2021

        *************************************************************
        *                                                           *
        *  Thank you very much for using Q-Chem.  Have a nice day.  *
        *                                                           *
        *************************************************************


Done Job For Fragment 0
calling putenv with: QCSCRATCH=/global/cscratch1/sd/meili 
calling putenv with: QCLOCALSCR=/tmp 
calling putenv with: QCTHREADS=32 
Creating input file /tmp/qchem35342/Frg2.input
using default PutDataFrgm: nothing
calling putenv with: QCSCRATCH=/tmp/qchem35342/ 
calling putenv with: QCLOCALSCR=/tmp/qchem35342/ 
Spawning Job For Fragment 1
                  Welcome to Q-Chem
     A Quantum Leap Into The Future Of Chemistry


 Q-Chem 5.2, Q-Chem, Inc., Pleasanton, CA (2019)

 License issued to: National Energy Research Scientific Computing Center

 Yihan Shao,  Zhengting Gan,  E. Epifanovsky,  A. T. B. Gilbert,  M. Wormit,  
 J. Kussmann,  A. W. Lange,  A. Behn,  Jia Deng,  Xintian Feng,  D. Ghosh,  
 M. Goldey,  P. R. Horn,  L. D. Jacobson,  I. Kaliman,  T. Kus,  A. Landau,  
 Jie Liu,  E. I. Proynov,  R. M. Richard,  R. P. Steele,  E. J. Sundstrom,  
 H. L. Woodcock III,  P. M. Zimmerman,  D. Zuev,  B. Albrecht,  E. Alguire,  
 S. A. Baeppler,  D. Barton,  Z. Benda,  Y. A. Bernard,  E. J. Berquist,  
 K. B. Bravaya,  H. Burton,  D. Casanova,  Chun-Min Chang,  Yunqing Chen,  
 A. Chien,  K. D. Closser,  M. P. Coons,  S. Coriani,  S. Dasgupta,  
 A. L. Dempwolff,  M. Diedenhofen,  Hainam Do,  R. G. Edgar,  Po-Tung Fang,  
 S. Faraji,  S. Fatehi,  Qingguo Feng,  K. D. Fenk,  J. Fosso-Tande,  
 J. Gayvert,  Qinghui Ge,  A. Ghysels,  G. Gidofalvi,  J. Gomes,  
 J. Gonthier,  A. Gunina,  D. Hait,  M. W. D. Hanson-Heine,  
 P. H. P. Harbach,  A. W. Hauser,  M. F. Herbst,  J. E. Herr,  
 E. G. Hohenstein,  Z. C. Holden,  Kerwin Hui,  B. C. Huynh,  T.-C. Jagau,  
 Hyunjun Ji,  B. Kaduk,  K. Khistyaev,  Jaehoon Kim,  P. Klunzinger,  K. Koh,  
 D. Kosenkov,  L. Koulias,  T. Kowalczyk,  C. M. Krauter,  A. Kunitsa,  
 Ka Un Lao,  A. Laurent,  K. V. Lawler,  Joonho Lee,  D. Lefrancois,  
 S. Lehtola,  D. S. Levine,  Yi-Pei Li,  You-Sheng Lin,  Fenglai Liu,  
 E. Livshits,  A. Luenser,  P. Manohar,  E. Mansoor,  S. F. Manzer,  
 Shan-Ping Mao,  Yuezhi Mao,  N. Mardirossian,  A. V. Marenich,  
 T. Markovich,  L. A. Martinez-Martinez,  S. A. Maurer,  N. J. Mayhall,  
 S. C. McKenzie,  J.-M. Mewes,  P. Morgante,  A. F. Morrison,  
 J. W. Mullinax,  K. Nanda,  T. S. Nguyen-Beck,  R. Olivares-Amaya,  
 J. A. Parkhill,  Zheng Pei,  T. M. Perrine,  F. Plasser,  P. Pokhilko,  
 S. Prager,  A. Prociuk,  E. Ramos,  D. R. Rehn,  F. Rob,  M. Scheurer,  
 M. Schneider,  N. Sergueev,  S. M. Sharada,  S. Sharma,  D. W. Small,  
 T. Stauch,  T. Stein,  Yu-Chuan Su,  A. J. W. Thom,  A. Tkatchenko,  
 T. Tsuchimochi,  N. M. Tubman,  L. Vogt,  M. L. Vidal,  O. Vydrov,  
 M. A. Watson,  J. Wenzel,  M. de Wergifosse,  T. A. Wesolowski,  A. White,  
 J. Witte,  A. Yamada,  Jun Yang,  K. Yao,  S. Yeganeh,  S. R. Yost,  
 Zhi-Qiang You,  A. Zech,  Igor Ying Zhang,  Xing Zhang,  Yan Zhao,  
 Ying Zhu,  B. R. Brooks,  G. K. L. Chan,  C. J. Cramer,  M. S. Gordon,  
 W. J. Hehre,  A. Klamt,  M. W. Schmidt,  C. D. Sherrill,  D. G. Truhlar,  
 A. Aspuru-Guzik,  R. Baer,  A. T. Bell,  N. A. Besley,  Jeng-Da Chai,  
 A. E. DePrince, III,  R. A. DiStasio Jr.,  A. Dreuw,  B. D. Dunietz,  
 T. R. Furlani,  Chao-Ping Hsu,  Yousung Jung,  Jing Kong,  D. S. Lambrecht,  
 WanZhen Liang,  C. Ochsenfeld,  V. A. Rassolov,  L. V. Slipchenko,  
 J. E. Subotnik,  T. Van Voorhis,  J. M. Herbert,  A. I. Krylov,  
 P. M. W. Gill,  M. Head-Gordon

 Contributors to earlier versions of Q-Chem not listed above: 
 R. D. Adamson,  B. Austin,  J. Baker,  G. J. O. Beran,  K. Brandhorst,  
 S. T. Brown,  E. F. C. Byrd,  A. K. Chakraborty,  C.-L. Cheng,  
 Siu Hung Chien,  D. M. Chipman,  D. L. Crittenden,  H. Dachsel,  
 R. J. Doerksen,  A. D. Dutoi,  L. Fusti-Molnar,  W. A. Goddard III,  
 A. Golubeva-Zadorozhnaya,  S. R. Gwaltney,  G. Hawkins,  A. Heyden,  
 S. Hirata,  G. Kedziora,  F. J. Keil,  C. Kelley,  Jihan Kim,  R. A. King,  
 R. Z. Khaliullin,  P. P. Korambath,  W. Kurlancheek,  A. M. Lee,  M. S. Lee,  
 S. V. Levchenko,  Ching Yeh Lin,  D. Liotard,  R. C. Lochan,  I. Lotan,  
 P. E. Maslen,  N. Nair,  D. P. O'Neill,  D. Neuhauser,  E. Neuscamman,  
 C. M. Oana,  R. Olson,  B. Peters,  R. Peverati,  P. A. Pieniazek,  
 Y. M. Rhee,  J. Ritchie,  M. A. Rohrdanz,  E. Rosta,  N. J. Russ,  
 H. F. Schaefer III,  N. E. Schultz,  N. Shenvi,  A. C. Simmonett,  A. Sodt,  
 D. Stuck,  K. S. Thanthiriwatte,  V. Vanovschi,  Tao Wang,  A. Warshel,  
 C. F. Williams,  Q. Wu,  X. Xu,  W. Zhang

 Please cite Q-Chem as follows:
 Y. Shao et al., Mol. Phys. 113, 184-215 (2015)
 DOI: 10.1080/00268976.2014.952696

 Q-Chem 5.2.0 for Intel X86 EM64T Linux

 Parts of Q-Chem use Armadillo 8.300.2 (Tropical Shenanigans).
 http://arma.sourceforge.net/

 Q-Chem begins on Sun Sep 26 09:08:29 2021  

Host: cori01
0

     Scratch files written to /tmp/qchem35342//Frg2//
 May1019 |scratch|qcdevops|jenkins|workspace|build_RNUM -1
Processing $rem in /global/common/cori/software/qchem/5.2/config/preferences:
	 MEM_TOTAL  96000 
NAlpha2: 32
NElect   32
Mult     1
Symmetry turned off for PCM/SM12/SMD calculation

Checking the input file for inconsistencies... 	...done.

--------------------------------------------------------------
User input:
--------------------------------------------------------------
$molecule
-1 1
 6	0.8273539639	-2.1131621772	1.4216551235
 6	-0.2456460361	-1.1051621772	1.8486551235
 8	-0.6696460361	-0.2821621772	1.0146551235
 8	-0.7106460361	-1.1431621772	3.0096551235
 1	1.4253539639	-1.6831621772	0.6176551235
 1	0.3433539639	-3.0111621772	1.0346551235
 1	1.5108339639	-2.4074181772	2.2317551235
$end
$rem
EDA2		1
METHOD		WB97X-V
BASIS		DEF2-TZVPD
XC_GRID		000099000590
NL_GRID		1
UNRESTRICTED		FALSE
MAX_SCF_CYCLES		200
SYMMETRY		FALSE
SYM_IGNORE		TRUE
BASIS_LIN_DEP_THRESH		6
THRESH		14
SCF_CONVERGENCE		8
SCF_PRINT_FRGM		TRUE
SOLVENT_METHOD		SMD
!required keywords
JOBTYPE		SP
SYM_IGNORE		TRUE
SUBSYSTEM		TRUE
GEN_SCFMAN		TRUE
CHILD_INSTRUCTION		2
SYM_IGNORE		TRUE
SCFMI		0
RI_K 0		
PARI_K 0		
MIN_PARI_K 0		
IARI_K 0		
OCC_RI_K 0		
PURECART		1111
MEM_STATIC		2000
MEM_TOTAL		96000
GUI		0
CHILD_MP		1
CHILD_MP_ORDERS		232
FRZ_RELAX		0
FRZ_RELAX_METHOD		0
EDA_CLS_ELEC		1
EDA_CLS_DISP		0
FRZ_ORTHO_DECOMP		1
EDA2		FALSE
FRGM_METHOD		FALSE
CIS_N_ROOTS  0
LOCAL_CIS    0
CIS_RLX_DNS  1
$end
$smx
SOLVENT			WATER
$end
--------------------------------------------------------------
 ----------------------------------------------------------------
             Standard Nuclear Orientation (Angstroms)
    I     Atom           X                Y                Z
 ----------------------------------------------------------------
    1      C       0.8273539639    -2.1131621772     1.4216551235
    2      C      -0.2456460361    -1.1051621772     1.8486551235
    3      O      -0.6696460361    -0.2821621772     1.0146551235
    4      O      -0.7106460361    -1.1431621772     3.0096551235
    5      H       1.4253539639    -1.6831621772     0.6176551235
    6      H       0.3433539639    -3.0111621772     1.0346551235
    7      H       1.5108339639    -2.4074181772     2.2317551235
 ----------------------------------------------------------------
 Nuclear Repulsion Energy =         112.52776439 hartrees
 There are       16 alpha and       16 beta electrons
 Requested basis set is def2-TZVPD
 There are 69 shells and 181 basis functions

 Total QAlloc Memory Limit  96000 MB
 Mega-Array Size      1956 MB
 MEM_STATIC part      2000 MB
 
 Citation of the SMD model:
 Marenich, A.V.; Cramer, C.J.; Truhlar, D.G.
 J. Phys. Chem. B 2009, 113, 6378-6396.
 iSolventCode=           1
 Solvent: water                                                           
 
 vradii
            1           2           3           4           5           6
    1   1.8500000   1.8500000   1.5200000   1.5200000   1.2000000   1.2000000
            7
    1   1.2000000
 Changing PCM_VDW_RADII to SMD_RADIUS
 Discretize the solute cavity surface with Lebedev spheres
	Using 110 Lebedev grid points for each H atom
	Using 194 Lebedev grid points for other atoms
	Atomic van der Waals radii will be scaled by 1.20
 Remove points where switching function is < 1.0e-08
 Keep 653 surface tesserae and discard 453 interior tesserae
 Molecular Surface Area = 80.020 Angst**2

                       Distance Matrix (Angstroms)
             C (  1)   C (  2)   O (  3)   O (  4)   H (  5)   H (  6)
   C (  2)  1.532880
   O (  3)  2.399837  1.246058
   O (  4)  2.414143  1.251235  2.173253
   H (  5)  1.090376  2.154457  2.551359  3.252039
   H (  6)  1.091068  2.154612  2.911015  2.915641  1.763008
   H (  7)  1.099997  2.219878  3.279106  2.671787  1.771206  1.777798

 
 A cutoff of  1.0D-14 yielded   2390 shell pairs
 There are     16694 function pairs (     21490 Cartesian)
 Smallest overlap matrix eigenvalue = 1.74E-05

 Scale SEOQF with 1.000000e-01/1.000000e-01/1.000000e-01

 Standard Electronic Orientation quadrupole field applied
 Nucleus-field energy     =    -0.0000000077 hartrees
 Guess from superposition of atomic densities
 Warning:  Energy on first SCF cycle will be non-variational
 SAD guess density has 30.625312 electrons

 -----------------------------------------------------------------------
  General SCF calculation program by
  Eric Jon Sundstrom, Paul Horn, Yuezhi Mao, Dmitri Zuev, Alec White,
  David Stuck, Shaama M.S., Shane Yost, Joonho Lee, David Small,
  Daniel Levine, Susi Lehtola, Hugh Burton, Evgeny Epifanovsky
 -----------------------------------------------------------------------
 Exchange:     0.1670 Hartree-Fock + 1.0000 wB97X-V + LR-HF
 Correlation:  1.0000 wB97X-V
 Using Euler-Maclaurin-Lebedev (99,590) quadrature formula
 Nonlocal Correlation:  VV10 with C = 0.0100 and b = 6.00 and scale = 1.00000
 Grid used for NLC:  SG-1 standard quadrature
Energy prior to optimization (guess energy) = -227.757940999593
Begin Timing: Total SCF Calculation
begin iterations for algorithm: DIIS         
the SCF tolerance is set to 1.00e-08
    1    -227.7579409996      1.66e-02     00000 
    2    -225.6052222728      2.51e-02     00000 
    3    -228.6053372461      4.07e-03     00000 
    4    -228.6582508107      1.39e-03     00000 
    5    -228.6642818181      2.64e-04     00000 
    6    -228.6645397424      1.82e-04     00000 
    7    -228.6646263356      5.30e-05     00000 
    8    -228.6646369010      1.38e-05     00000 
    9    -228.6646380834      4.05e-06     00000 
   10    -228.6646382029      1.15e-06     00000 
   11    -228.6646382140      2.14e-07     00000 
   12    -228.6646382143      4.36e-08     00000 
   13    -228.6646382143      9.57e-09     00000 Convergence criterion met
Timing for Total SCF: 268.00s (wall), 528.48s (cpu)
(3)  G-ENP(liq) elect-nuc-pol free energy of system     -228.664638214 a.u.
(4)  G-CDS(liq) cavity-dispersion-solvent structure 
     free energy                                                3.9346 kcal/mol
(6)  G-S(liq) free energy of system                     -228.658367964 a.u.
E_pcm = -0.1320434715
E_cds = 0.0062702505
Multipole orders to be included
        2
        3
computing dipole RHS
computing quadrupole RHS
total number of RHS in solve_reponses: 8
RHS batch sizes
        8
Beginning Block Conjugate Gradient Iterations. Batch Number: 0
computing hessian-vector products by finite difference
              1      7.40e-01     00000 Conjugate Gradient Iteration
computing hessian-vector products by finite difference
              2      2.32e-01     00000 Conjugate Gradient Iteration
computing hessian-vector products by finite difference
              3      6.48e-02     00000 Conjugate Gradient Iteration
computing hessian-vector products by finite difference
              4      1.74e-02     00000 Conjugate Gradient Iteration
computing hessian-vector products by finite difference
              5      2.52e-03     00000 Conjugate Gradient Iteration
computing hessian-vector products by finite difference
              6      6.55e-04     00000 Conjugate Gradient Iteration
computing hessian-vector products by finite difference
              7      9.37e-05     00000 Conjugate Gradient Iteration
computing hessian-vector products by finite difference
              8      1.16e-05     00000 Conjugate Gradient Iteration
computing hessian-vector products by finite difference
              9      1.78e-06     00000 Conjugate Gradient Iteration
computing hessian-vector products by finite difference
             10      1.77e-07     00000 Conjugate Gradient Iteration
computing hessian-vector products by finite difference
             11      2.61e-08     00000 Conjugate Gradient Iteration
computing hessian-vector products by finite difference
             12      8.64e-09     00000 CG Converged
batch 0 complete
Done Calculating Responses
TESTING ORTHOGONALIZATION OF MULTIPOLE BASIS
Multipole virts passed orthogonality test
Virts Per Order
        48
        80
 
 --------------------------------------------------------------
 
                    Orbital Energies (a.u.)
 --------------------------------------------------------------
 
 Alpha MOs
 -- Occupied --
-19.1522 -19.1514 -10.3544 -10.2487  -1.1678  -1.0636  -0.8397  -0.6181
 -0.5480  -0.5466  -0.5401  -0.4809  -0.4650  -0.3645  -0.3601  -0.3423
 -- Virtual --
  0.0671   0.1001   0.1003   0.1075   0.1350   0.1435   0.1461   0.1515
  0.1562   0.1888   0.2048   0.2208   0.2352   0.2396   0.2585   0.2666
  0.2981   0.3124   0.3329   0.3466   0.3554   0.3653   0.3696   0.3770
  0.3819   0.4033   0.4201   0.4203   0.4290   0.4517   0.4657   0.4743
  0.4838   0.4864   0.5049   0.5097   0.5491   0.5643   0.5798   0.5971
  0.6216   0.6301   0.6317   0.6433   0.6499   0.6600   0.6830   0.6920
  0.7064   0.7190   0.7805   0.7927   0.8059   0.8097   0.8383   0.8411
  0.8574   0.9606   0.9787   0.9870   0.9971   1.0187   1.0495   1.0811
  1.1263   1.2147   1.2350   1.2449   1.2678   1.2989   1.3366   1.3773
  1.4170   1.5288   1.5795   1.7399   1.8026   1.8505   1.8651   1.9031
  1.9103   1.9330   1.9412   1.9559   2.0071   2.0840   2.1113   2.1701
  2.1809   2.2015   2.2907   2.3129   2.4068   2.4336   2.4521   2.4681
  2.5558   2.5778   2.6321   2.6456   2.7690   2.8061   2.8423   2.9059
  2.9359   3.0104   3.0640   3.1110   3.2133   3.2166   3.2543   3.2701
  3.3333   3.3381   3.3631   3.3873   3.4006   3.5049   3.5628   3.5736
  3.5944   3.6606   3.6904   3.7203   3.7280   3.8129   3.9544   4.0239
  4.0684   4.1974   4.2980   4.5561   4.6042   4.6426   4.7729   4.7845
  4.9745   5.2970   5.3226   5.3317   5.3411   5.4564   5.6738   5.7674
  5.7933   6.0167   6.1937   6.3170   6.3396   6.5825   6.5984   6.7058
  6.7153   6.7295   6.9189   6.9552   7.0098   7.2224   7.2907   7.3638
  7.3832  22.5717  23.7068  44.1907  44.3419
 --------------------------------------------------------------
 
          Ground-State Mulliken Net Atomic Charges

     Atom                 Charge (a.u.)
  ----------------------------------------
      1 C                    -0.609374
      2 C                     0.513175
      3 O                    -0.767812
      4 O                    -0.777620
      5 H                     0.211703
      6 H                     0.195308
      7 H                     0.234620
  ----------------------------------------
  Sum of atomic charges =    -1.000000

 -----------------------------------------------------------------
                    Cartesian Multipole Moments
 -----------------------------------------------------------------
    Charge (ESU x 10^10)
                -4.8032
    Dipole Moment (Debye)
         X       4.9959      Y       1.8719      Z     -10.3869
       Tot      11.6769
    Quadrupole Moments (Debye-Ang)
        XX     -29.0325     XY      -3.1291     YY     -26.3102
        XZ      10.5260     YZ       8.5656     ZZ     -56.5348
    Octopole Moments (Debye-Ang^2)
       XXX      15.0115    XXY      32.5189    XYY       6.6815
       YYY      91.3939    XXZ     -53.5423    XYZ      -9.5688
       YYZ     -55.4312    XZZ      32.0570    YZZ      64.0175
       ZZZ    -237.7282
    Hexadecapole Moments (Debye-Ang^3)
      XXXX    -113.2017   XXXY      17.5596   XXYY     -75.9114
      XYYY      17.9156   YYYY    -327.5964   XXXZ      43.9841
      XXYZ      61.3750   XYYZ      24.1661   YYYZ     182.9190
      XXZZ    -141.5468   XYZZ     -23.8626   YYZZ    -200.9584
      XZZZ     118.1622   YZZZ     286.5134   ZZZZ    -946.0258
 -----------------------------------------------------------------
Archival summary:
1\1\nid00570\SP\ProcedureUnspecified\BasisUnspecified\223(1-,1)\meili\SunSep2610:24:242021SunSep2610:24:242021\0\\#,ProcedureUnspecified,BasisUnspecified,\\-1,1\C\O,1,1.24606\O,1,1.25124,2,120.974\C,1,1.53288,2,119.082,3,177.883,0\H,4,1.09038,1,109.267,2,28.0954,0\H,4,1.09107,1,109.239,2,-89.6593,0\H,4,1.1,1,113.935,2,148.882,0\\\@

 Total job time:  4557.06s(wall), 8961.16s(cpu) 
 Sun Sep 26 10:24:26 2021

        *************************************************************
        *                                                           *
        *  Thank you very much for using Q-Chem.  Have a nice day.  *
        *                                                           *
        *************************************************************


Done Job For Fragment 1
calling putenv with: QCSCRATCH=/global/cscratch1/sd/meili 
calling putenv with: QCLOCALSCR=/tmp 
calling putenv with: QCTHREADS=32 
Doing General SCFMI
 Exchange:     0.1670 Hartree-Fock + 1.0000 wB97X-V + LR-HF
 Correlation:  1.0000 wB97X-V
 Using Euler-Maclaurin-Lebedev (99,590) quadrature formula
 Nonlocal Correlation:  VV10 with C = 0.0100 and b = 6.00 and scale = 1.00000
 Grid used for NLC:  SG-1 standard quadrature
performing fock build before subrot guess so that all methods have access
Printing subrot_rss_gen Method Specification:
Occupied Subspace Method is 0
Virtual Subspace Method is 0
Energy of the unrelaxed supersystem initial determinant -456.893872041271
performing fock build before subrot guess so that all methods have access
Printing subrot_rss_gen Method Specification:
Occupied Subspace Method is 0
Virtual Subspace Method is 0
Energy of the unrelaxed supersystem initial determinant w/ solvent -457.307670972538
write pseudocanon occs and virts to disk
write pseudocanon orbital energies to disk
Tolerance of ortho_decomp_scf: 1.00e-06
GDM subspace size: 20
Beginning the Orthogonal Decomposition of the Initial Supersystem Wavefunction
    1    -456.9772057293      1.32e-01     ortho_decomp Preconditoned Steepest Descent
    2    -456.9932476644      2.46e-03     ortho_decomp BFGS Step
    3    -456.9932816854      1.89e-04     ortho_decomp BFGS Step
    4    -456.9932817510      6.51e-06     ortho_decomp BFGS Step
    5    -456.9932817510      1.71e-07     ortho_decomp 00000 Convergence criterion met
 Hartree-Fock
 Hartree-Fock
 Hartree-Fock
Doing General SCFMI
 Exchange:     0.1670 Hartree-Fock + 1.0000 wB97X-V + LR-HF
 Correlation:  1.0000 wB97X-V
 Using Euler-Maclaurin-Lebedev (99,590) quadrature formula
 Nonlocal Correlation:  VV10 with C = 0.0100 and b = 6.00 and scale = 1.00000
 Grid used for NLC:  SG-1 standard quadrature
performing fock build at end of subrot_r(subrot) constructor so that all methods have access
<S^2> of initial wavefunction before polarization iterations 0.0000000000
Beginning iterations for the determination of the polarized wavefunction
Energy prior to optimization (guess energy) = -457.307670972538
Begin Timing: Total SCF Calculation
begin iterations for algorithm: DIIS         
the SCF tolerance is set to 1.00e-08
    1    -457.3076709725      2.46e-04     00000 
    2    -457.3089543094      2.49e-04     00000 
    3    -457.3098467765      4.97e-05     00000 
    4    -457.3100030190      2.68e-05     00000 
    5    -457.3100457090      1.44e-05     00000 
    6    -457.3100564639      5.15e-06     00000 
    7    -457.3100577026      1.51e-06     00000 
    8    -457.3100578452      4.53e-07     00000 
    9    -457.3100578592      2.61e-07     00000 
   10    -457.3100578605      7.00e-08     00000 
   11    -457.3100578607      2.07e-08     00000 
   12    -457.3100578607      9.11e-09     00000 Convergence criterion met
write pseudocanon occs and virts to disk
write pseudocanon orbital energies to disk
Timing for Total SCF: 1296.00s (wall), 2576.34s (cpu)
<S^2> of polarized wavefunction after polarization iterations 0.0000000000
relaxing scfmi constraint to allow all rotations in the entire AO span
Doing General SCFMI
 Exchange:     0.1670 Hartree-Fock + 1.0000 wB97X-V + LR-HF
 Correlation:  1.0000 wB97X-V
 Using Euler-Maclaurin-Lebedev (99,590) quadrature formula
 Nonlocal Correlation:  VV10 with C = 0.0100 and b = 6.00 and scale = 1.00000
 Grid used for NLC:  SG-1 standard quadrature
performing fock build at end of subrot_r(subrot) constructor so that all methods have access
<S^2> of polarized wavefunction before ct-allowed iterations 0.0000000000
Beginning iterations for the determination of the CT-Allowed wavefunction
Energy prior to optimization (guess energy) = -457.310057860750
Begin Timing: Total SCF Calculation
begin iterations for algorithm: DIIS         
the SCF tolerance is set to 1.00e-08
    1    -457.3100578607      1.20e-04     00000 
    2    -457.3108285882      1.19e-05     00000 
    3    -457.3108493071      3.64e-06     00000 
    4    -457.3108499072      3.28e-06     00000 
    5    -457.3108503989      3.43e-07     00000 
    6    -457.3108504087      2.08e-07     00000 
    7    -457.3108504118      5.08e-08     00000 
    8    -457.3108504121      1.70e-08     00000 
    9    -457.3108504122      5.64e-09     00000 Convergence criterion met
write pseudocanon occs and virts to disk
write pseudocanon orbital energies to disk
Timing for Total SCF: 974.00s (wall), 1936.51s (cpu)
<S^2> of ct_allowed wavefunction after ct-allowed iterations 0.0000000000

================================
        Results of EDA2         
================================
Basic EDA Quantities
--------------------
Fragment Energies (Ha):
1 -228.6594624959
2 -228.6583679638
--------------------
  E_prp (kJ/mol) = 0.0000
  E_sol (kJ/mol) = -401.0018
  E_frz (kJ/mol) = 456.9420
  E_pol (kJ/mol) = -6.2668
  E_vct (kJ/mol) = -2.0809
  E_int (kJ/mol) = 47.5925
--------------------


Initial Wavefunction Decomposition
--------------------
  --------------------
  Orthogonal Fragment Subspace Decomposition:
  --------------------
     E_elec   (ELEC)   (kJ/mol) = 314.3922
     E_pauli  (PAULI)  (kJ/mol) = 163.9212
     E_disp   (DISP)   (kJ/mol) = -21.3715
     --------------------
     Terms summing to E_pauli:
     --------------------
        E_kep_pauli       (kJ/mol) = 195.9387
        E_disp_free_pauli (kJ/mol) = -32.0175
  --------------------
  Classical Frozen Decomposition:
  --------------------
     E_cls_elec  (CLS ELEC)  (kJ/mol) = 412.7154
     E_cls_pauli (CLS PAULI) (kJ/mol) = 44.2266
    [E_mod_pauli (MOD PAULI) (kJ/mol) = 65.5981 (CLS PAULI - DISP from orthogonal decomposition) ]
  --------------------
--------------------

Simplified EDA Summary (kJ/mol)
--------------------
 PREPARATION     0.0000
 SOLVATION       -401.0018
 FROZEN          478.3135      (does not include dispersion)
[PAULI           163.9212]     (if this is negligible, then frozen describes electrostatics)
 DISPERSION      -21.3715
 POLARIZATION    -6.2668
 CHARGE TRANSFER -2.0809
 TOTAL           47.5925     (PRP + SOL + FRZ + DISP + POL + CT)
--------------------
 
 --------------------------------------------------------------
 
                    Orbital Energies (a.u.)
 --------------------------------------------------------------
 
 Alpha MOs
 -- Occupied --
-19.1477 -19.1454 -19.1364 -19.1362 -10.3463 -10.3457 -10.2447 -10.2419
 -1.1602  -1.1563  -1.0590  -1.0539  -0.8357  -0.8353  -0.6161  -0.6063
 -0.5463  -0.5433  -0.5425  -0.5397  -0.5316  -0.5290  -0.4817  -0.4714
 -0.4602  -0.4570  -0.3612  -0.3560  -0.3539  -0.3509  -0.3422  -0.3100
 -- Virtual --
  0.0656   0.0817   0.0936   0.1004   0.1071   0.1185   0.1234   0.1317
  0.1354   0.1459   0.1498   0.1533   0.1583   0.1633   0.1713   0.1828
  0.1901   0.2012   0.2125   0.2218   0.2251   0.2359   0.2414   0.2429
  0.2511   0.2650   0.2700   0.2788   0.2871   0.2943   0.3027   0.3155
  0.3187   0.3302   0.3368   0.3437   0.3474   0.3532   0.3578   0.3635
  0.3669   0.3773   0.3807   0.3819   0.3894   0.3967   0.4034   0.4056
  0.4126   0.4137   0.4302   0.4327   0.4419   0.4465   0.4511   0.4588
  0.4651   0.4730   0.4790   0.4876   0.4887   0.4922   0.4983   0.5072
  0.5138   0.5200   0.5310   0.5338   0.5487   0.5549   0.5598   0.5636
  0.5754   0.5925   0.5953   0.6040   0.6206   0.6275   0.6334   0.6377
  0.6485   0.6533   0.6642   0.6682   0.6764   0.6873   0.6918   0.6970
  0.7041   0.7117   0.7232   0.7244   0.7422   0.7508   0.7603   0.7688
  0.7790   0.7934   0.7959   0.8038   0.8186   0.8249   0.8316   0.8425
  0.8478   0.8498   0.8581   0.8717   0.8860   0.8967   0.9219   0.9448
  0.9616   0.9740   0.9763   0.9945   1.0093   1.0181   1.0280   1.0382
  1.0467   1.0588   1.0792   1.0886   1.1158   1.1335   1.1511   1.1662
  1.2062   1.2398   1.2508   1.2632   1.2642   1.2944   1.2993   1.3090
  1.3348   1.3434   1.3486   1.3682   1.3847   1.3932   1.4013   1.4139
  1.4559   1.4915   1.5872   1.6052   1.6342   1.6599   1.7494   1.7913
  1.8327   1.8744   1.8810   1.8816   1.8954   1.9088   1.9357   1.9414
  1.9537   1.9561   1.9635   1.9668   1.9849   1.9926   2.0032   2.0237
  2.0414   2.0654   2.1192   2.1277   2.1474   2.1645   2.1850   2.2034
  2.2178   2.2343   2.2424   2.2495   2.3131   2.3306   2.3673   2.3893
  2.4340   2.4550   2.4579   2.4762   2.4900   2.5016   2.5313   2.5379
  2.5790   2.5860   2.6121   2.6290   2.6483   2.6669   2.6947   2.7253
  2.8085   2.8133   2.8390   2.8506   2.8700   2.8877   2.9261   2.9393
  2.9576   2.9856   3.0312   3.0620   3.0859   3.0958   3.1315   3.1822
  3.2275   3.2404   3.2434   3.2577   3.2863   3.3000   3.3165   3.3318
  3.3613   3.3681   3.3706   3.3845   3.3976   3.4070   3.4161   3.4180
  3.4371   3.4789   3.5334   3.5437   3.5844   3.5981   3.6080   3.6185
  3.6288   3.6461   3.6637   3.6949   3.7077   3.7169   3.7336   3.7448
  3.7620   3.7791   3.8412   3.8569   3.9676   3.9824   4.0596   4.0790
  4.0822   4.0985   4.2023   4.2202   4.3303   4.3662   4.5632   4.5718
  4.6285   4.6399   4.6774   4.6801   4.7974   4.8361   4.8654   4.8817
  4.9978   5.0184   5.3068   5.3092   5.3381   5.3436   5.3490   5.3505
  5.3623   5.3913   5.4665   5.4876   5.6871   5.7068   5.7440   5.7826
  5.8032   5.8080   6.0217   6.0497   6.2129   6.2507   6.3363   6.3399
  6.3719   6.3818   6.6213   6.6246   6.6342   6.6556   6.7174   6.7342
  6.7391   6.7542   6.7633   6.7823   6.9480   6.9635   6.9714   6.9826
  7.0297   7.0318   7.2366   7.2466   7.3156   7.3541   7.3744   7.4298
  7.4495   7.4659  22.5893  22.6038  23.7469  23.7669  44.2293  44.2865
 44.3716  44.3917
 --------------------------------------------------------------
 
          Ground-State Mulliken Net Atomic Charges

     Atom                 Charge (a.u.)
  ----------------------------------------
      1 C                    -0.728077
      2 C                     0.505459
      3 O                    -0.668177
      4 O                    -0.784535
      5 H                     0.205458
      6 H                     0.227907
      7 H                     0.234557
      8 C                    -0.576364
      9 C                     0.456729
     10 O                    -0.679026
     11 O                    -0.809657
     12 H                     0.166849
     13 H                     0.206590
     14 H                     0.242286
  ----------------------------------------
  Sum of atomic charges =    -2.000000

 -----------------------------------------------------------------
                    Cartesian Multipole Moments
 -----------------------------------------------------------------
    Charge (ESU x 10^10)
                -9.6064
    Dipole Moment (Debye)
         X       6.8662      Y      -2.1148      Z      -6.0936
       Tot       9.4206
    Quadrupole Moments (Debye-Ang)
        XX     -58.9269     XY       4.1169     YY     -62.3277
        XZ       8.1319     YZ      13.5543     ZZ     -87.0742
    Octopole Moments (Debye-Ang^2)
       XXX      -0.9479    XXY      -1.7281    XYY      13.9349
       YYY     -20.3240    XXZ      -0.7803    XYZ     -19.1896
       YYZ       3.9149    XZZ      30.7122    YZZ      30.6515
       ZZZ     -97.3126
    Hexadecapole Moments (Debye-Ang^3)
      XXXX    -234.9912   XXXY      17.3338   XXYY    -157.9087
      XYYY      35.7562   YYYY    -705.7685   XXXZ     103.7886
      XXYZ     132.4639   XYYZ      27.1997   YYYZ     406.0356
      XXZZ    -283.3440   XYZZ     -16.4996   YYZZ    -386.1893
      XZZZ     177.5320   YZZZ     489.9340   ZZZZ   -1627.7572
 -----------------------------------------------------------------
Archival summary:
1\1\nid00570\SP\ProcedureUnspecified\BasisUnspecified\446(2-,1)\meili\SunSep2611:31:432021SunSep2611:31:432021\0\\#,ProcedureUnspecified,BasisUnspecified,\\-2,1\O\C,1,1.24606\O,2,1.25124,1,120.974\C,2,1.53288,1,119.082,3,177.883,0\H,4,1.09038,2,109.267,1,28.0954,0\H,4,1.09107,2,109.239,1,-89.6593,0\H,4,1.1,2,113.935,1,148.882,0\O,1,2.54812,2,121.241,3,169.016,0\C,8,1.24563,1,111.428,2,-164.7,0\O,9,1.25446,8,123.67,1,-8.64831,0\C,9,1.52073,8,116.547,1,171.451,0\H,11,1.09101,9,109.331,8,160.831,0\H,11,1.09284,9,107.852,8,-81.8316,0\H,11,1.1,9,111.818,8,38.2326,0\\\@

 Total job time:  13029.43s(wall), 8036.45s(cpu) 
 Sun Sep 26 11:31:45 2021

        *************************************************************
        *                                                           *
        *  Thank you very much for using Q-Chem.  Have a nice day.  *
        *                                                           *
        *************************************************************


