
Running Job 1 of 1 SSI-016GLU-035TRP-1_SMD_TZVPD.in
qchem SSI-016GLU-035TRP-1_SMD_TZVPD.in_17605.0 /tmp/qchem17605/ 0
/global/common/cori/software/qchem/5.2/exe/qcprog.exe_s SSI-016GLU-035TRP-1_SMD_TZVPD.in_17605.0 /tmp/qchem17605/
                  Welcome to Q-Chem
     A Quantum Leap Into The Future Of Chemistry


 Q-Chem 5.2, Q-Chem, Inc., Pleasanton, CA (2019)

 License issued to: National Energy Research Scientific Computing Center

 Yihan Shao,  Zhengting Gan,  E. Epifanovsky,  A. T. B. Gilbert,  M. Wormit,  
 J. Kussmann,  A. W. Lange,  A. Behn,  Jia Deng,  Xintian Feng,  D. Ghosh,  
 M. Goldey,  P. R. Horn,  L. D. Jacobson,  I. Kaliman,  T. Kus,  A. Landau,  
 Jie Liu,  E. I. Proynov,  R. M. Richard,  R. P. Steele,  E. J. Sundstrom,  
 H. L. Woodcock III,  P. M. Zimmerman,  D. Zuev,  B. Albrecht,  E. Alguire,  
 S. A. Baeppler,  D. Barton,  Z. Benda,  Y. A. Bernard,  E. J. Berquist,  
 K. B. Bravaya,  H. Burton,  D. Casanova,  Chun-Min Chang,  Yunqing Chen,  
 A. Chien,  K. D. Closser,  M. P. Coons,  S. Coriani,  S. Dasgupta,  
 A. L. Dempwolff,  M. Diedenhofen,  Hainam Do,  R. G. Edgar,  Po-Tung Fang,  
 S. Faraji,  S. Fatehi,  Qingguo Feng,  K. D. Fenk,  J. Fosso-Tande,  
 J. Gayvert,  Qinghui Ge,  A. Ghysels,  G. Gidofalvi,  J. Gomes,  
 J. Gonthier,  A. Gunina,  D. Hait,  M. W. D. Hanson-Heine,  
 P. H. P. Harbach,  A. W. Hauser,  M. F. Herbst,  J. E. Herr,  
 E. G. Hohenstein,  Z. C. Holden,  Kerwin Hui,  B. C. Huynh,  T.-C. Jagau,  
 Hyunjun Ji,  B. Kaduk,  K. Khistyaev,  Jaehoon Kim,  P. Klunzinger,  K. Koh,  
 D. Kosenkov,  L. Koulias,  T. Kowalczyk,  C. M. Krauter,  A. Kunitsa,  
 Ka Un Lao,  A. Laurent,  K. V. Lawler,  Joonho Lee,  D. Lefrancois,  
 S. Lehtola,  D. S. Levine,  Yi-Pei Li,  You-Sheng Lin,  Fenglai Liu,  
 E. Livshits,  A. Luenser,  P. Manohar,  E. Mansoor,  S. F. Manzer,  
 Shan-Ping Mao,  Yuezhi Mao,  N. Mardirossian,  A. V. Marenich,  
 T. Markovich,  L. A. Martinez-Martinez,  S. A. Maurer,  N. J. Mayhall,  
 S. C. McKenzie,  J.-M. Mewes,  P. Morgante,  A. F. Morrison,  
 J. W. Mullinax,  K. Nanda,  T. S. Nguyen-Beck,  R. Olivares-Amaya,  
 J. A. Parkhill,  Zheng Pei,  T. M. Perrine,  F. Plasser,  P. Pokhilko,  
 S. Prager,  A. Prociuk,  E. Ramos,  D. R. Rehn,  F. Rob,  M. Scheurer,  
 M. Schneider,  N. Sergueev,  S. M. Sharada,  S. Sharma,  D. W. Small,  
 T. Stauch,  T. Stein,  Yu-Chuan Su,  A. J. W. Thom,  A. Tkatchenko,  
 T. Tsuchimochi,  N. M. Tubman,  L. Vogt,  M. L. Vidal,  O. Vydrov,  
 M. A. Watson,  J. Wenzel,  M. de Wergifosse,  T. A. Wesolowski,  A. White,  
 J. Witte,  A. Yamada,  Jun Yang,  K. Yao,  S. Yeganeh,  S. R. Yost,  
 Zhi-Qiang You,  A. Zech,  Igor Ying Zhang,  Xing Zhang,  Yan Zhao,  
 Ying Zhu,  B. R. Brooks,  G. K. L. Chan,  C. J. Cramer,  M. S. Gordon,  
 W. J. Hehre,  A. Klamt,  M. W. Schmidt,  C. D. Sherrill,  D. G. Truhlar,  
 A. Aspuru-Guzik,  R. Baer,  A. T. Bell,  N. A. Besley,  Jeng-Da Chai,  
 A. E. DePrince, III,  R. A. DiStasio Jr.,  A. Dreuw,  B. D. Dunietz,  
 T. R. Furlani,  Chao-Ping Hsu,  Yousung Jung,  Jing Kong,  D. S. Lambrecht,  
 WanZhen Liang,  C. Ochsenfeld,  V. A. Rassolov,  L. V. Slipchenko,  
 J. E. Subotnik,  T. Van Voorhis,  J. M. Herbert,  A. I. Krylov,  
 P. M. W. Gill,  M. Head-Gordon

 Contributors to earlier versions of Q-Chem not listed above: 
 R. D. Adamson,  B. Austin,  J. Baker,  G. J. O. Beran,  K. Brandhorst,  
 S. T. Brown,  E. F. C. Byrd,  A. K. Chakraborty,  C.-L. Cheng,  
 Siu Hung Chien,  D. M. Chipman,  D. L. Crittenden,  H. Dachsel,  
 R. J. Doerksen,  A. D. Dutoi,  L. Fusti-Molnar,  W. A. Goddard III,  
 A. Golubeva-Zadorozhnaya,  S. R. Gwaltney,  G. Hawkins,  A. Heyden,  
 S. Hirata,  G. Kedziora,  F. J. Keil,  C. Kelley,  Jihan Kim,  R. A. King,  
 R. Z. Khaliullin,  P. P. Korambath,  W. Kurlancheek,  A. M. Lee,  M. S. Lee,  
 S. V. Levchenko,  Ching Yeh Lin,  D. Liotard,  R. C. Lochan,  I. Lotan,  
 P. E. Maslen,  N. Nair,  D. P. O'Neill,  D. Neuhauser,  E. Neuscamman,  
 C. M. Oana,  R. Olson,  B. Peters,  R. Peverati,  P. A. Pieniazek,  
 Y. M. Rhee,  J. Ritchie,  M. A. Rohrdanz,  E. Rosta,  N. J. Russ,  
 H. F. Schaefer III,  N. E. Schultz,  N. Shenvi,  A. C. Simmonett,  A. Sodt,  
 D. Stuck,  K. S. Thanthiriwatte,  V. Vanovschi,  Tao Wang,  A. Warshel,  
 C. F. Williams,  Q. Wu,  X. Xu,  W. Zhang

 Please cite Q-Chem as follows:
 Y. Shao et al., Mol. Phys. 113, 184-215 (2015)
 DOI: 10.1080/00268976.2014.952696

 Q-Chem 5.2.0 for Intel X86 EM64T Linux

 Parts of Q-Chem use Armadillo 8.300.2 (Tropical Shenanigans).
 http://arma.sourceforge.net/

 Q-Chem begins on Sun Sep 26 03:18:11 2021  

Host: cori01
0

     Scratch files written to /tmp/qchem17605//
 May1019 |scratch|qcdevops|jenkins|workspace|build_RNUM -1
Processing $rem in /global/common/cori/software/qchem/5.2/config/preferences:
	 MEM_TOTAL  96000 
NAlpha2: 102
NElect   102
Mult     1
Symmetry turned off for PCM/SM12/SMD calculation

 Q-Chem warning in module libgen/rem_setup.C, line 2803:

 Neither GIA nor STOLL is specified by user. Use STOLL as the default


Checking the input file for inconsistencies... 	...done.

--------------------------------------------------------------
User input:
--------------------------------------------------------------
$comment
SSI-016GLU-035TRP-1.pdb
$end

$molecule
-1 1
--
-1 1
C    0.236012173986   -1.469258982171   -4.075889840126
C    0.858012173986   -0.090258982171   -3.951889840126
O    0.467012173986    0.831741017829   -4.703889840126
O    1.750012173986    0.058741017829   -3.067889840126
H   -0.398987826014   -1.618258982171   -3.197889840126
H    0.999012173986   -2.239258982171   -4.012889840126
H   -0.412247826014   -1.591398982171   -4.956138840126
--
0 1
C   -1.732987826014   -1.798258982171    3.585110159874
C    0.317012173986    0.733741017829    1.794110159874
C   -0.689987826014   -0.257258982171    1.777110159874
C   -0.787987826014   -0.773258982171    3.104110159874
C    0.138012173986   -0.107258982171    3.843110159874
C   -0.004987826014    1.161741017829   -0.492889840126
C    0.657012173986    1.454741017829    0.673110159874
C   -1.008987826014    0.187741017829   -0.538889840126
C   -1.351987826014   -0.528258982171    0.581110159874
N    0.778012173986    0.819741017829    3.076110159874
H    0.244012173986    1.703741017829   -1.395889840126
H    1.422012173986    2.217741017829    0.709110159874
H   -1.507987826014   -0.012258982171   -1.477889840126
H   -2.121987826014   -1.282258982171    0.550110159874
H    1.505012173986    1.441741017829    3.414110159874
H    0.317012173986   -0.274258982171    4.899110159874
H   -1.299987826014   -2.355258982171    4.415110159874
H   -1.929987826014   -2.500258982171    2.773110159874
H   -2.675307826014   -1.320628982171    3.891540159874
$end

$rem
JOBTYPE			EDA
EDA2			1
method			wB97X-V
BASIS			def2-TZVPD
XC_GRID			000099000590
NL_GRID			1
UNRESTRICTED		FALSE
MAX_SCF_CYCLES		200
SYMMETRY		FALSE
SYM_IGNORE		TRUE
MEM_STATIC		2000
BASIS_LIN_DEP_THRESH 	6
THRESH 			14
SCF_CONVERGENCE 	8
SCF_PRINT_FRGM 		TRUE
SOLVENT_METHOD          SMD
$end

$SMX
SOLVENT			WATER
$END
--------------------------------------------------------------
 ----------------------------------------------------------------
             Standard Nuclear Orientation (Angstroms)
    I     Atom           X                Y                Z
 ----------------------------------------------------------------
    1      C       0.2360121740    -1.4692589822    -4.0758898401
    2      C       0.8580121740    -0.0902589822    -3.9518898401
    3      O       0.4670121740     0.8317410178    -4.7038898401
    4      O       1.7500121740     0.0587410178    -3.0678898401
    5      H      -0.3989878260    -1.6182589822    -3.1978898401
    6      H       0.9990121740    -2.2392589822    -4.0128898401
    7      H      -0.4122478260    -1.5913989822    -4.9561388401
    8      C      -1.7329878260    -1.7982589822     3.5851101599
    9      C       0.3170121740     0.7337410178     1.7941101599
   10      C      -0.6899878260    -0.2572589822     1.7771101599
   11      C      -0.7879878260    -0.7732589822     3.1041101599
   12      C       0.1380121740    -0.1072589822     3.8431101599
   13      C      -0.0049878260     1.1617410178    -0.4928898401
   14      C       0.6570121740     1.4547410178     0.6731101599
   15      C      -1.0089878260     0.1877410178    -0.5388898401
   16      C      -1.3519878260    -0.5282589822     0.5811101599
   17      N       0.7780121740     0.8197410178     3.0761101599
   18      H       0.2440121740     1.7037410178    -1.3958898401
   19      H       1.4220121740     2.2177410178     0.7091101599
   20      H      -1.5079878260    -0.0122589822    -1.4778898401
   21      H      -2.1219878260    -1.2822589822     0.5501101599
   22      H       1.5050121740     1.4417410178     3.4141101599
   23      H       0.3170121740    -0.2742589822     4.8991101599
   24      H      -1.2999878260    -2.3552589822     4.4151101599
   25      H      -1.9299878260    -2.5002589822     2.7731101599
   26      H      -2.6753078260    -1.3206289822     3.8915401599
 ----------------------------------------------------------------
 Nuclear Repulsion Energy =         801.50743926 hartrees
 There are       51 alpha and       51 beta electrons
 Requested basis set is def2-TZVPD
 There are 244 shells and 632 basis functions

 Total QAlloc Memory Limit  96000 MB
 Mega-Array Size      1956 MB
 MEM_STATIC part      2000 MB
 
 Citation of the SMD model:
 Marenich, A.V.; Cramer, C.J.; Truhlar, D.G.
 J. Phys. Chem. B 2009, 113, 6378-6396.
 iSolventCode=           1
 Solvent: water                                                           
 
 vradii
            1           2           3           4           5           6
    1   1.8500000   1.8500000   1.5200000   1.5200000   1.2000000   1.2000000
            7           8           9          10          11          12
    1   1.2000000   1.8500000   1.8500000   1.8500000   1.8500000   1.8500000
           13          14          15          16          17          18
    1   1.8500000   1.8500000   1.8500000   1.8500000   1.8900000   1.2000000
           19          20          21          22          23          24
    1   1.2000000   1.2000000   1.2000000   1.2000000   1.2000000   1.2000000
           25          26
    1   1.2000000   1.2000000
 Changing PCM_VDW_RADII to SMD_RADIUS
 Discretize the solute cavity surface with Lebedev spheres
	Using 110 Lebedev grid points for each H atom
	Using 194 Lebedev grid points for other atoms
	Atomic van der Waals radii will be scaled by 1.20
 Remove points where switching function is < 1.0e-08
 Keep 2009 surface tesserae and discard 2027 interior tesserae
 Molecular Surface Area = 242.464 Angst**2
 A cutoff of  1.0D-14 yielded  25182 shell pairs
 There are    169402 function pairs (    215877 Cartesian)
 Smallest overlap matrix eigenvalue = 4.27E-07
 Linear dependence detected in AO basis
 Tighter screening thresholds may be required for diffuse basis sets
 Use S2THRESH > 14 and THRESH = 14 in case of SCF convergence issues
 Number of orthogonalized atomic orbitals = 628
 Maximum deviation from orthogonality = 5.631E-10

 Scale SEOQF with 1.000000e-01/1.000000e-01/1.000000e-01

 Standard Electronic Orientation quadrupole field applied
 Nucleus-field energy     =    -0.0000000866 hartrees

 -----------------------------------------------------------------------
  General SCF calculation program by
  Eric Jon Sundstrom, Paul Horn, Yuezhi Mao, Dmitri Zuev, Alec White,
  David Stuck, Shaama M.S., Shane Yost, Joonho Lee, David Small,
  Daniel Levine, Susi Lehtola, Hugh Burton, Evgeny Epifanovsky
 -----------------------------------------------------------------------
================================================================
                 ALMO-EDA with the EDA2 driver                  
================================================================
 The second-generation ALMO-EDA (for DFT):                      
 P. R. Horn, Y. Mao and M. Head-Gordon, PCCP, 18, 23067 (2016)  
 Decomposition of the frozen energy:                            
 P. R. Horn, Y. Mao and M. Head-Gordon, JCP, 144, 114107 (2016) 
 FERF model for polarization:                                   
 P. R. Horn and M. Head-Gordon, JCP, 143, 114111 (2015)         
Using eda2 option set 1
Option set summary: Frozen orbital wavefunction, initial wavefunction decomposition, and nDQ polarization.
--------------------------------
Printing EDA Options
--------------------------------
eda_child_super_basis      0
fragmo_guess_mode          0
child_mp                   1
child_mp_orders            232
cls_elec                   1
cls_disp                   0
scfmi_mode                 1
scfmi_occs                 0
scfmi_virts                0
frz_relax                  0
frz_relax_method           0
dc_pen_start               0
dc_pen_conv                0
dc_pen_increment           0
dc_pen_steps               0
dc_pen_thresh_factor       0
dc_pen_pre_newton_thresh   0
frz_ortho_decomp           1
frz_ortho_decomp_conv      6
frgm_method                2
scfmi_freeze_ss            0
separate_rehyb             0
plot_diff_den              0
eda_nocv                   0
eda_vct_relax              1
disp_free_x                0
disp_free_c                0
eda_bsse                   0
eda_pct_a                  0
eda_covp                   0
--------------------------------
Attempting to make child job directory: /tmp/qchem17605//Frg1/
Attempting to make child job directory: /tmp/qchem17605//Frg2/
Creating input file /tmp/qchem17605/Frg1.input
using default PutDataFrgm: nothing
calling putenv with: QCSCRATCH=/tmp/qchem17605/ 
calling putenv with: QCLOCALSCR=/tmp/qchem17605/ 
Spawning Job For Fragment 0
                  Welcome to Q-Chem
     A Quantum Leap Into The Future Of Chemistry


 Q-Chem 5.2, Q-Chem, Inc., Pleasanton, CA (2019)

 License issued to: National Energy Research Scientific Computing Center

 Yihan Shao,  Zhengting Gan,  E. Epifanovsky,  A. T. B. Gilbert,  M. Wormit,  
 J. Kussmann,  A. W. Lange,  A. Behn,  Jia Deng,  Xintian Feng,  D. Ghosh,  
 M. Goldey,  P. R. Horn,  L. D. Jacobson,  I. Kaliman,  T. Kus,  A. Landau,  
 Jie Liu,  E. I. Proynov,  R. M. Richard,  R. P. Steele,  E. J. Sundstrom,  
 H. L. Woodcock III,  P. M. Zimmerman,  D. Zuev,  B. Albrecht,  E. Alguire,  
 S. A. Baeppler,  D. Barton,  Z. Benda,  Y. A. Bernard,  E. J. Berquist,  
 K. B. Bravaya,  H. Burton,  D. Casanova,  Chun-Min Chang,  Yunqing Chen,  
 A. Chien,  K. D. Closser,  M. P. Coons,  S. Coriani,  S. Dasgupta,  
 A. L. Dempwolff,  M. Diedenhofen,  Hainam Do,  R. G. Edgar,  Po-Tung Fang,  
 S. Faraji,  S. Fatehi,  Qingguo Feng,  K. D. Fenk,  J. Fosso-Tande,  
 J. Gayvert,  Qinghui Ge,  A. Ghysels,  G. Gidofalvi,  J. Gomes,  
 J. Gonthier,  A. Gunina,  D. Hait,  M. W. D. Hanson-Heine,  
 P. H. P. Harbach,  A. W. Hauser,  M. F. Herbst,  J. E. Herr,  
 E. G. Hohenstein,  Z. C. Holden,  Kerwin Hui,  B. C. Huynh,  T.-C. Jagau,  
 Hyunjun Ji,  B. Kaduk,  K. Khistyaev,  Jaehoon Kim,  P. Klunzinger,  K. Koh,  
 D. Kosenkov,  L. Koulias,  T. Kowalczyk,  C. M. Krauter,  A. Kunitsa,  
 Ka Un Lao,  A. Laurent,  K. V. Lawler,  Joonho Lee,  D. Lefrancois,  
 S. Lehtola,  D. S. Levine,  Yi-Pei Li,  You-Sheng Lin,  Fenglai Liu,  
 E. Livshits,  A. Luenser,  P. Manohar,  E. Mansoor,  S. F. Manzer,  
 Shan-Ping Mao,  Yuezhi Mao,  N. Mardirossian,  A. V. Marenich,  
 T. Markovich,  L. A. Martinez-Martinez,  S. A. Maurer,  N. J. Mayhall,  
 S. C. McKenzie,  J.-M. Mewes,  P. Morgante,  A. F. Morrison,  
 J. W. Mullinax,  K. Nanda,  T. S. Nguyen-Beck,  R. Olivares-Amaya,  
 J. A. Parkhill,  Zheng Pei,  T. M. Perrine,  F. Plasser,  P. Pokhilko,  
 S. Prager,  A. Prociuk,  E. Ramos,  D. R. Rehn,  F. Rob,  M. Scheurer,  
 M. Schneider,  N. Sergueev,  S. M. Sharada,  S. Sharma,  D. W. Small,  
 T. Stauch,  T. Stein,  Yu-Chuan Su,  A. J. W. Thom,  A. Tkatchenko,  
 T. Tsuchimochi,  N. M. Tubman,  L. Vogt,  M. L. Vidal,  O. Vydrov,  
 M. A. Watson,  J. Wenzel,  M. de Wergifosse,  T. A. Wesolowski,  A. White,  
 J. Witte,  A. Yamada,  Jun Yang,  K. Yao,  S. Yeganeh,  S. R. Yost,  
 Zhi-Qiang You,  A. Zech,  Igor Ying Zhang,  Xing Zhang,  Yan Zhao,  
 Ying Zhu,  B. R. Brooks,  G. K. L. Chan,  C. J. Cramer,  M. S. Gordon,  
 W. J. Hehre,  A. Klamt,  M. W. Schmidt,  C. D. Sherrill,  D. G. Truhlar,  
 A. Aspuru-Guzik,  R. Baer,  A. T. Bell,  N. A. Besley,  Jeng-Da Chai,  
 A. E. DePrince, III,  R. A. DiStasio Jr.,  A. Dreuw,  B. D. Dunietz,  
 T. R. Furlani,  Chao-Ping Hsu,  Yousung Jung,  Jing Kong,  D. S. Lambrecht,  
 WanZhen Liang,  C. Ochsenfeld,  V. A. Rassolov,  L. V. Slipchenko,  
 J. E. Subotnik,  T. Van Voorhis,  J. M. Herbert,  A. I. Krylov,  
 P. M. W. Gill,  M. Head-Gordon

 Contributors to earlier versions of Q-Chem not listed above: 
 R. D. Adamson,  B. Austin,  J. Baker,  G. J. O. Beran,  K. Brandhorst,  
 S. T. Brown,  E. F. C. Byrd,  A. K. Chakraborty,  C.-L. Cheng,  
 Siu Hung Chien,  D. M. Chipman,  D. L. Crittenden,  H. Dachsel,  
 R. J. Doerksen,  A. D. Dutoi,  L. Fusti-Molnar,  W. A. Goddard III,  
 A. Golubeva-Zadorozhnaya,  S. R. Gwaltney,  G. Hawkins,  A. Heyden,  
 S. Hirata,  G. Kedziora,  F. J. Keil,  C. Kelley,  Jihan Kim,  R. A. King,  
 R. Z. Khaliullin,  P. P. Korambath,  W. Kurlancheek,  A. M. Lee,  M. S. Lee,  
 S. V. Levchenko,  Ching Yeh Lin,  D. Liotard,  R. C. Lochan,  I. Lotan,  
 P. E. Maslen,  N. Nair,  D. P. O'Neill,  D. Neuhauser,  E. Neuscamman,  
 C. M. Oana,  R. Olson,  B. Peters,  R. Peverati,  P. A. Pieniazek,  
 Y. M. Rhee,  J. Ritchie,  M. A. Rohrdanz,  E. Rosta,  N. J. Russ,  
 H. F. Schaefer III,  N. E. Schultz,  N. Shenvi,  A. C. Simmonett,  A. Sodt,  
 D. Stuck,  K. S. Thanthiriwatte,  V. Vanovschi,  Tao Wang,  A. Warshel,  
 C. F. Williams,  Q. Wu,  X. Xu,  W. Zhang

 Please cite Q-Chem as follows:
 Y. Shao et al., Mol. Phys. 113, 184-215 (2015)
 DOI: 10.1080/00268976.2014.952696

 Q-Chem 5.2.0 for Intel X86 EM64T Linux

 Parts of Q-Chem use Armadillo 8.300.2 (Tropical Shenanigans).
 http://arma.sourceforge.net/

 Q-Chem begins on Sun Sep 26 03:18:19 2021  

Host: cori01
0

     Scratch files written to /tmp/qchem17605//Frg1//
 May1019 |scratch|qcdevops|jenkins|workspace|build_RNUM -1
Processing $rem in /global/common/cori/software/qchem/5.2/config/preferences:
	 MEM_TOTAL  96000 
NAlpha2: 32
NElect   32
Mult     1
Symmetry turned off for PCM/SM12/SMD calculation

Checking the input file for inconsistencies... 	...done.

--------------------------------------------------------------
User input:
--------------------------------------------------------------
$molecule
-1 1
 6	0.2360121740	-1.4692589822	-4.0758898401
 6	0.8580121740	-0.0902589822	-3.9518898401
 8	0.4670121740	0.8317410178	-4.7038898401
 8	1.7500121740	0.0587410178	-3.0678898401
 1	-0.3989878260	-1.6182589822	-3.1978898401
 1	0.9990121740	-2.2392589822	-4.0128898401
 1	-0.4122478260	-1.5913989822	-4.9561388401
$end
$rem
EDA2		1
METHOD		WB97X-V
BASIS		DEF2-TZVPD
XC_GRID		000099000590
NL_GRID		1
UNRESTRICTED		FALSE
MAX_SCF_CYCLES		200
SYMMETRY		FALSE
SYM_IGNORE		TRUE
BASIS_LIN_DEP_THRESH		6
THRESH		14
SCF_CONVERGENCE		8
SCF_PRINT_FRGM		TRUE
SOLVENT_METHOD		SMD
!required keywords
JOBTYPE		SP
SYM_IGNORE		TRUE
SUBSYSTEM		TRUE
GEN_SCFMAN		TRUE
CHILD_INSTRUCTION		2
SYM_IGNORE		TRUE
SCFMI		0
RI_K 0		
PARI_K 0		
MIN_PARI_K 0		
IARI_K 0		
OCC_RI_K 0		
PURECART		1111
MEM_STATIC		2000
MEM_TOTAL		96000
GUI		0
CHILD_MP		1
CHILD_MP_ORDERS		232
FRZ_RELAX		0
FRZ_RELAX_METHOD		0
EDA_CLS_ELEC		1
EDA_CLS_DISP		0
FRZ_ORTHO_DECOMP		1
EDA2		FALSE
FRGM_METHOD		FALSE
CIS_N_ROOTS  0
LOCAL_CIS    0
CIS_RLX_DNS  1
$end
$smx
SOLVENT			WATER
$end
--------------------------------------------------------------
 ----------------------------------------------------------------
             Standard Nuclear Orientation (Angstroms)
    I     Atom           X                Y                Z
 ----------------------------------------------------------------
    1      C       0.2360121740    -1.4692589822    -4.0758898401
    2      C       0.8580121740    -0.0902589822    -3.9518898401
    3      O       0.4670121740     0.8317410178    -4.7038898401
    4      O       1.7500121740     0.0587410178    -3.0678898401
    5      H      -0.3989878260    -1.6182589822    -3.1978898401
    6      H       0.9990121740    -2.2392589822    -4.0128898401
    7      H      -0.4122478260    -1.5913989822    -4.9561388401
 ----------------------------------------------------------------
 Nuclear Repulsion Energy =         112.33135741 hartrees
 There are       16 alpha and       16 beta electrons
 Requested basis set is def2-TZVPD
 There are 69 shells and 181 basis functions

 Total QAlloc Memory Limit  96000 MB
 Mega-Array Size      1956 MB
 MEM_STATIC part      2000 MB
 
 Citation of the SMD model:
 Marenich, A.V.; Cramer, C.J.; Truhlar, D.G.
 J. Phys. Chem. B 2009, 113, 6378-6396.
 iSolventCode=           1
 Solvent: water                                                           
 
 vradii
            1           2           3           4           5           6
    1   1.8500000   1.8500000   1.5200000   1.5200000   1.2000000   1.2000000
            7
    1   1.2000000
 Changing PCM_VDW_RADII to SMD_RADIUS
 Discretize the solute cavity surface with Lebedev spheres
	Using 110 Lebedev grid points for each H atom
	Using 194 Lebedev grid points for other atoms
	Atomic van der Waals radii will be scaled by 1.20
 Remove points where switching function is < 1.0e-08
 Keep 651 surface tesserae and discard 455 interior tesserae
 Molecular Surface Area = 79.920 Angst**2

                       Distance Matrix (Angstroms)
             C (  1)   C (  2)   O (  3)   O (  4)   H (  5)   H (  6)
   C (  2)  1.517861
   O (  3)  2.396319  1.252385
   O (  4)  2.375509  1.264643  2.218133
   H (  5)  1.093760  2.117392  3.003413  2.728998
   H (  6)  1.085835  2.154484  3.192420  2.595733  1.733283
   H (  7)  1.099999  2.208053  2.590045  3.311165  1.758504  1.816892

 
 A cutoff of  1.0D-14 yielded   2391 shell pairs
 There are     16695 function pairs (     21491 Cartesian)
 Smallest overlap matrix eigenvalue = 1.64E-05

 Scale SEOQF with 1.000000e-01/1.000000e-01/1.000000e-01

 Standard Electronic Orientation quadrupole field applied
 Nucleus-field energy     =    -0.0000000500 hartrees
 Guess from superposition of atomic densities
 Warning:  Energy on first SCF cycle will be non-variational
 SAD guess density has 30.625312 electrons

 -----------------------------------------------------------------------
  General SCF calculation program by
  Eric Jon Sundstrom, Paul Horn, Yuezhi Mao, Dmitri Zuev, Alec White,
  David Stuck, Shaama M.S., Shane Yost, Joonho Lee, David Small,
  Daniel Levine, Susi Lehtola, Hugh Burton, Evgeny Epifanovsky
 -----------------------------------------------------------------------
 Exchange:     0.1670 Hartree-Fock + 1.0000 wB97X-V + LR-HF
 Correlation:  1.0000 wB97X-V
 Using Euler-Maclaurin-Lebedev (99,590) quadrature formula
 Nonlocal Correlation:  VV10 with C = 0.0100 and b = 6.00 and scale = 1.00000
 Grid used for NLC:  SG-1 standard quadrature
Energy prior to optimization (guess energy) = -227.758894329808
Begin Timing: Total SCF Calculation
begin iterations for algorithm: DIIS         
the SCF tolerance is set to 1.00e-08
    1    -227.7588943298      1.66e-02     00000 
    2    -225.6171411145      2.50e-02     00000 
    3    -228.6072481554      4.06e-03     00000 
    4    -228.6597302979      1.37e-03     00000 
    5    -228.6655842740      2.52e-04     00000 
    6    -228.6658362421      1.69e-04     00000 
    7    -228.6659102584      5.33e-05     00000 
    8    -228.6659206224      1.34e-05     00000 
    9    -228.6659217300      3.75e-06     00000 
   10    -228.6659218364      1.11e-06     00000 
   11    -228.6659218465      2.20e-07     00000 
   12    -228.6659218469      5.00e-08     00000 
   13    -228.6659218469      1.26e-08     00000 
   14    -228.6659218469      3.24e-09     00000 Convergence criterion met
Timing for Total SCF: 285.00s (wall), 521.63s (cpu)
(3)  G-ENP(liq) elect-nuc-pol free energy of system     -228.665921847 a.u.
(4)  G-CDS(liq) cavity-dispersion-solvent structure 
     free energy                                                3.8552 kcal/mol
(6)  G-S(liq) free energy of system                     -228.659778166 a.u.
E_pcm = -0.1308531043
E_cds = 0.0061436812
Multipole orders to be included
        2
        3
computing dipole RHS
computing quadrupole RHS
total number of RHS in solve_reponses: 8
RHS batch sizes
        8
Beginning Block Conjugate Gradient Iterations. Batch Number: 0
computing hessian-vector products by finite difference
              1      6.72e-01     00000 Conjugate Gradient Iteration
computing hessian-vector products by finite difference
              2      1.98e-01     00000 Conjugate Gradient Iteration
computing hessian-vector products by finite difference
              3      5.37e-02     00000 Conjugate Gradient Iteration
computing hessian-vector products by finite difference
              4      1.44e-02     00000 Conjugate Gradient Iteration
computing hessian-vector products by finite difference
              5      2.15e-03     00000 Conjugate Gradient Iteration
computing hessian-vector products by finite difference
              6      5.71e-04     00000 Conjugate Gradient Iteration
computing hessian-vector products by finite difference
              7      8.12e-05     00000 Conjugate Gradient Iteration
computing hessian-vector products by finite difference
              8      9.95e-06     00000 Conjugate Gradient Iteration
computing hessian-vector products by finite difference
              9      1.53e-06     00000 Conjugate Gradient Iteration
computing hessian-vector products by finite difference
             10      1.50e-07     00000 Conjugate Gradient Iteration
computing hessian-vector products by finite difference
             11      2.92e-08     00000 Conjugate Gradient Iteration
computing hessian-vector products by finite difference
             12      7.64e-09     00000 CG Converged
batch 0 complete
Done Calculating Responses
TESTING ORTHOGONALIZATION OF MULTIPOLE BASIS
Multipole virts passed orthogonality test
Virts Per Order
        48
        80
 
 --------------------------------------------------------------
 
                    Orbital Energies (a.u.)
 --------------------------------------------------------------
 
 Alpha MOs
 -- Occupied --
-19.1563 -19.1528 -10.3569 -10.2465  -1.1621  -1.0643  -0.8413  -0.6193
 -0.5463  -0.5449  -0.5424  -0.4853  -0.4576  -0.3659  -0.3579  -0.3466
 -- Virtual --
  0.0670   0.0999   0.1004   0.1072   0.1355   0.1430   0.1450   0.1500
  0.1558   0.1918   0.2034   0.2224   0.2347   0.2391   0.2599   0.2643
  0.3004   0.3128   0.3340   0.3469   0.3530   0.3625   0.3714   0.3826
  0.3850   0.3979   0.4148   0.4248   0.4300   0.4561   0.4675   0.4745
  0.4815   0.4881   0.5034   0.5128   0.5438   0.5535   0.5783   0.6005
  0.6126   0.6244   0.6306   0.6429   0.6549   0.6689   0.6821   0.6950
  0.7059   0.7242   0.7712   0.7923   0.8070   0.8100   0.8311   0.8454
  0.8650   0.9552   0.9690   0.9725   0.9924   1.0263   1.0423   1.1002
  1.1360   1.1967   1.2396   1.2614   1.2792   1.3022   1.3334   1.3467
  1.4335   1.5431   1.5783   1.7453   1.8023   1.8418   1.8569   1.8913
  1.9044   1.9444   1.9522   1.9541   2.0142   2.0880   2.1109   2.1570
  2.1925   2.2043   2.2938   2.3265   2.3985   2.4245   2.4557   2.4734
  2.5517   2.5699   2.6077   2.6887   2.7594   2.8051   2.8639   2.8968
  2.9376   2.9936   3.0178   3.1620   3.1809   3.2389   3.2604   3.2997
  3.3212   3.3330   3.3678   3.3923   3.4286   3.5050   3.5423   3.5603
  3.5766   3.6492   3.6653   3.7114   3.7414   3.8457   3.9343   4.0330
  4.0812   4.1866   4.3460   4.5536   4.6112   4.6554   4.7968   4.8036
  4.9650   5.2957   5.3237   5.3313   5.3401   5.4666   5.6754   5.7156
  5.7703   5.9729   6.2023   6.2930   6.3070   6.5779   6.5952   6.6746
  6.7092   6.7214   6.9059   6.9395   7.0064   7.2044   7.3239   7.3365
  7.3761  22.5951  23.6659  44.1915  44.3114
 --------------------------------------------------------------
 
          Ground-State Mulliken Net Atomic Charges

     Atom                 Charge (a.u.)
  ----------------------------------------
      1 C                    -0.594275
      2 C                     0.503011
      3 O                    -0.760484
      4 O                    -0.785595
      5 H                     0.189332
      6 H                     0.222132
      7 H                     0.225878
  ----------------------------------------
  Sum of atomic charges =    -1.000000

 -----------------------------------------------------------------
                    Cartesian Multipole Moments
 -----------------------------------------------------------------
    Charge (ESU x 10^10)
                -4.8032
    Dipole Moment (Debye)
         X      -6.3962      Y      -4.2316      Z      18.4435
       Tot      19.9745
    Quadrupole Moments (Debye-Ang)
        XX     -36.7768     XY      -2.5008     YY     -28.3189
        XZ      19.8657     YZ      19.0693     ZZ    -101.9866
    Octopole Moments (Debye-Ang^2)
       XXX     -81.9593    XXY       3.2484    XYY     -21.9237
       YYY      14.0634    XXZ     134.0024    XYZ      10.7806
       YYZ     113.8458    XZZ     -85.1501    YZZ     -80.7379
       ZZZ     640.0473
    Hexadecapole Moments (Debye-Ang^3)
      XXXX    -229.3440   XXXY      -5.5833   XXYY     -60.9726
      XYYY      -7.9209   YYYY    -174.3824   XXXZ     278.4508
      XXYZ      -9.8589   XYYZ      78.9647   YYYZ     -47.0029
      XXZZ    -542.0816   XYZZ     -46.4287   YYZZ    -502.9911
      XZZZ     444.1003   YZZZ     334.3582   ZZZZ   -4038.1549
 -----------------------------------------------------------------
Archival summary:
1\1\nid00560\SP\ProcedureUnspecified\BasisUnspecified\223(1-,1)\meili\SunSep2604:38:242021SunSep2604:38:242021\0\\#,ProcedureUnspecified,BasisUnspecified,\\-1,1\C\O,1,1.25239\O,1,1.26464,2,123.587\C,1,1.51786,2,119.463,3,179.373,0\H,4,1.08584,1,110.583,2,137.751,0\H,4,1.09376,1,107.223,2,-107.885,0\H,4,1.1,1,114.064,2,9.84607,0\\\@

 Total job time:  4804.79s(wall), 8953.79s(cpu) 
 Sun Sep 26 04:38:24 2021

        *************************************************************
        *                                                           *
        *  Thank you very much for using Q-Chem.  Have a nice day.  *
        *                                                           *
        *************************************************************


Done Job For Fragment 0
calling putenv with: QCSCRATCH=/global/cscratch1/sd/meili 
calling putenv with: QCLOCALSCR=/tmp 
calling putenv with: QCTHREADS=32 
Creating input file /tmp/qchem17605/Frg2.input
using default PutDataFrgm: nothing
calling putenv with: QCSCRATCH=/tmp/qchem17605/ 
calling putenv with: QCLOCALSCR=/tmp/qchem17605/ 
Spawning Job For Fragment 1
                  Welcome to Q-Chem
     A Quantum Leap Into The Future Of Chemistry


 Q-Chem 5.2, Q-Chem, Inc., Pleasanton, CA (2019)

 License issued to: National Energy Research Scientific Computing Center

 Yihan Shao,  Zhengting Gan,  E. Epifanovsky,  A. T. B. Gilbert,  M. Wormit,  
 J. Kussmann,  A. W. Lange,  A. Behn,  Jia Deng,  Xintian Feng,  D. Ghosh,  
 M. Goldey,  P. R. Horn,  L. D. Jacobson,  I. Kaliman,  T. Kus,  A. Landau,  
 Jie Liu,  E. I. Proynov,  R. M. Richard,  R. P. Steele,  E. J. Sundstrom,  
 H. L. Woodcock III,  P. M. Zimmerman,  D. Zuev,  B. Albrecht,  E. Alguire,  
 S. A. Baeppler,  D. Barton,  Z. Benda,  Y. A. Bernard,  E. J. Berquist,  
 K. B. Bravaya,  H. Burton,  D. Casanova,  Chun-Min Chang,  Yunqing Chen,  
 A. Chien,  K. D. Closser,  M. P. Coons,  S. Coriani,  S. Dasgupta,  
 A. L. Dempwolff,  M. Diedenhofen,  Hainam Do,  R. G. Edgar,  Po-Tung Fang,  
 S. Faraji,  S. Fatehi,  Qingguo Feng,  K. D. Fenk,  J. Fosso-Tande,  
 J. Gayvert,  Qinghui Ge,  A. Ghysels,  G. Gidofalvi,  J. Gomes,  
 J. Gonthier,  A. Gunina,  D. Hait,  M. W. D. Hanson-Heine,  
 P. H. P. Harbach,  A. W. Hauser,  M. F. Herbst,  J. E. Herr,  
 E. G. Hohenstein,  Z. C. Holden,  Kerwin Hui,  B. C. Huynh,  T.-C. Jagau,  
 Hyunjun Ji,  B. Kaduk,  K. Khistyaev,  Jaehoon Kim,  P. Klunzinger,  K. Koh,  
 D. Kosenkov,  L. Koulias,  T. Kowalczyk,  C. M. Krauter,  A. Kunitsa,  
 Ka Un Lao,  A. Laurent,  K. V. Lawler,  Joonho Lee,  D. Lefrancois,  
 S. Lehtola,  D. S. Levine,  Yi-Pei Li,  You-Sheng Lin,  Fenglai Liu,  
 E. Livshits,  A. Luenser,  P. Manohar,  E. Mansoor,  S. F. Manzer,  
 Shan-Ping Mao,  Yuezhi Mao,  N. Mardirossian,  A. V. Marenich,  
 T. Markovich,  L. A. Martinez-Martinez,  S. A. Maurer,  N. J. Mayhall,  
 S. C. McKenzie,  J.-M. Mewes,  P. Morgante,  A. F. Morrison,  
 J. W. Mullinax,  K. Nanda,  T. S. Nguyen-Beck,  R. Olivares-Amaya,  
 J. A. Parkhill,  Zheng Pei,  T. M. Perrine,  F. Plasser,  P. Pokhilko,  
 S. Prager,  A. Prociuk,  E. Ramos,  D. R. Rehn,  F. Rob,  M. Scheurer,  
 M. Schneider,  N. Sergueev,  S. M. Sharada,  S. Sharma,  D. W. Small,  
 T. Stauch,  T. Stein,  Yu-Chuan Su,  A. J. W. Thom,  A. Tkatchenko,  
 T. Tsuchimochi,  N. M. Tubman,  L. Vogt,  M. L. Vidal,  O. Vydrov,  
 M. A. Watson,  J. Wenzel,  M. de Wergifosse,  T. A. Wesolowski,  A. White,  
 J. Witte,  A. Yamada,  Jun Yang,  K. Yao,  S. Yeganeh,  S. R. Yost,  
 Zhi-Qiang You,  A. Zech,  Igor Ying Zhang,  Xing Zhang,  Yan Zhao,  
 Ying Zhu,  B. R. Brooks,  G. K. L. Chan,  C. J. Cramer,  M. S. Gordon,  
 W. J. Hehre,  A. Klamt,  M. W. Schmidt,  C. D. Sherrill,  D. G. Truhlar,  
 A. Aspuru-Guzik,  R. Baer,  A. T. Bell,  N. A. Besley,  Jeng-Da Chai,  
 A. E. DePrince, III,  R. A. DiStasio Jr.,  A. Dreuw,  B. D. Dunietz,  
 T. R. Furlani,  Chao-Ping Hsu,  Yousung Jung,  Jing Kong,  D. S. Lambrecht,  
 WanZhen Liang,  C. Ochsenfeld,  V. A. Rassolov,  L. V. Slipchenko,  
 J. E. Subotnik,  T. Van Voorhis,  J. M. Herbert,  A. I. Krylov,  
 P. M. W. Gill,  M. Head-Gordon

 Contributors to earlier versions of Q-Chem not listed above: 
 R. D. Adamson,  B. Austin,  J. Baker,  G. J. O. Beran,  K. Brandhorst,  
 S. T. Brown,  E. F. C. Byrd,  A. K. Chakraborty,  C.-L. Cheng,  
 Siu Hung Chien,  D. M. Chipman,  D. L. Crittenden,  H. Dachsel,  
 R. J. Doerksen,  A. D. Dutoi,  L. Fusti-Molnar,  W. A. Goddard III,  
 A. Golubeva-Zadorozhnaya,  S. R. Gwaltney,  G. Hawkins,  A. Heyden,  
 S. Hirata,  G. Kedziora,  F. J. Keil,  C. Kelley,  Jihan Kim,  R. A. King,  
 R. Z. Khaliullin,  P. P. Korambath,  W. Kurlancheek,  A. M. Lee,  M. S. Lee,  
 S. V. Levchenko,  Ching Yeh Lin,  D. Liotard,  R. C. Lochan,  I. Lotan,  
 P. E. Maslen,  N. Nair,  D. P. O'Neill,  D. Neuhauser,  E. Neuscamman,  
 C. M. Oana,  R. Olson,  B. Peters,  R. Peverati,  P. A. Pieniazek,  
 Y. M. Rhee,  J. Ritchie,  M. A. Rohrdanz,  E. Rosta,  N. J. Russ,  
 H. F. Schaefer III,  N. E. Schultz,  N. Shenvi,  A. C. Simmonett,  A. Sodt,  
 D. Stuck,  K. S. Thanthiriwatte,  V. Vanovschi,  Tao Wang,  A. Warshel,  
 C. F. Williams,  Q. Wu,  X. Xu,  W. Zhang

 Please cite Q-Chem as follows:
 Y. Shao et al., Mol. Phys. 113, 184-215 (2015)
 DOI: 10.1080/00268976.2014.952696

 Q-Chem 5.2.0 for Intel X86 EM64T Linux

 Parts of Q-Chem use Armadillo 8.300.2 (Tropical Shenanigans).
 http://arma.sourceforge.net/

 Q-Chem begins on Sun Sep 26 04:38:26 2021  

Host: cori01
0

     Scratch files written to /tmp/qchem17605//Frg2//
 May1019 |scratch|qcdevops|jenkins|workspace|build_RNUM -1
Processing $rem in /global/common/cori/software/qchem/5.2/config/preferences:
	 MEM_TOTAL  96000 
NAlpha2: 70
NElect   70
Mult     1
Symmetry turned off for PCM/SM12/SMD calculation

Checking the input file for inconsistencies... 	...done.

--------------------------------------------------------------
User input:
--------------------------------------------------------------
$molecule
0 1
 6	-1.7329878260	-1.7982589822	3.5851101599
 6	0.3170121740	0.7337410178	1.7941101599
 6	-0.6899878260	-0.2572589822	1.7771101599
 6	-0.7879878260	-0.7732589822	3.1041101599
 6	0.1380121740	-0.1072589822	3.8431101599
 6	-0.0049878260	1.1617410178	-0.4928898401
 6	0.6570121740	1.4547410178	0.6731101599
 6	-1.0089878260	0.1877410178	-0.5388898401
 6	-1.3519878260	-0.5282589822	0.5811101599
 7	0.7780121740	0.8197410178	3.0761101599
 1	0.2440121740	1.7037410178	-1.3958898401
 1	1.4220121740	2.2177410178	0.7091101599
 1	-1.5079878260	-0.0122589822	-1.4778898401
 1	-2.1219878260	-1.2822589822	0.5501101599
 1	1.5050121740	1.4417410178	3.4141101599
 1	0.3170121740	-0.2742589822	4.8991101599
 1	-1.2999878260	-2.3552589822	4.4151101599
 1	-1.9299878260	-2.5002589822	2.7731101599
 1	-2.6753078260	-1.3206289822	3.8915401599
$end
$rem
EDA2		1
METHOD		WB97X-V
BASIS		DEF2-TZVPD
XC_GRID		000099000590
NL_GRID		1
UNRESTRICTED		FALSE
MAX_SCF_CYCLES		200
SYMMETRY		FALSE
SYM_IGNORE		TRUE
BASIS_LIN_DEP_THRESH		6
THRESH		14
SCF_CONVERGENCE		8
SCF_PRINT_FRGM		TRUE
SOLVENT_METHOD		SMD
!required keywords
JOBTYPE		SP
SYM_IGNORE		TRUE
SUBSYSTEM		TRUE
GEN_SCFMAN		TRUE
CHILD_INSTRUCTION		2
SYM_IGNORE		TRUE
SCFMI		0
RI_K 0		
PARI_K 0		
MIN_PARI_K 0		
IARI_K 0		
OCC_RI_K 0		
PURECART		1111
MEM_STATIC		2000
MEM_TOTAL		96000
GUI		0
CHILD_MP		1
CHILD_MP_ORDERS		232
FRZ_RELAX		0
FRZ_RELAX_METHOD		0
EDA_CLS_ELEC		1
EDA_CLS_DISP		0
FRZ_ORTHO_DECOMP		1
EDA2		FALSE
FRGM_METHOD		FALSE
CIS_N_ROOTS  0
LOCAL_CIS    0
CIS_RLX_DNS  1
$end
$smx
SOLVENT			WATER
$end
--------------------------------------------------------------
 ----------------------------------------------------------------
             Standard Nuclear Orientation (Angstroms)
    I     Atom           X                Y                Z
 ----------------------------------------------------------------
    1      C      -1.7329878260    -1.7982589822     3.5851101599
    2      C       0.3170121740     0.7337410178     1.7941101599
    3      C      -0.6899878260    -0.2572589822     1.7771101599
    4      C      -0.7879878260    -0.7732589822     3.1041101599
    5      C       0.1380121740    -0.1072589822     3.8431101599
    6      C      -0.0049878260     1.1617410178    -0.4928898401
    7      C       0.6570121740     1.4547410178     0.6731101599
    8      C      -1.0089878260     0.1877410178    -0.5388898401
    9      C      -1.3519878260    -0.5282589822     0.5811101599
   10      N       0.7780121740     0.8197410178     3.0761101599
   11      H       0.2440121740     1.7037410178    -1.3958898401
   12      H       1.4220121740     2.2177410178     0.7091101599
   13      H      -1.5079878260    -0.0122589822    -1.4778898401
   14      H      -2.1219878260    -1.2822589822     0.5501101599
   15      H       1.5050121740     1.4417410178     3.4141101599
   16      H       0.3170121740    -0.2742589822     4.8991101599
   17      H      -1.2999878260    -2.3552589822     4.4151101599
   18      H      -1.9299878260    -2.5002589822     2.7731101599
   19      H      -2.6753078260    -1.3206289822     3.8915401599
 ----------------------------------------------------------------
 Nuclear Repulsion Energy =         488.27862143 hartrees
 There are       35 alpha and       35 beta electrons
 Requested basis set is def2-TZVPD
 There are 175 shells and 451 basis functions

 Total QAlloc Memory Limit  96000 MB
 Mega-Array Size      1956 MB
 MEM_STATIC part      2000 MB
 
 Citation of the SMD model:
 Marenich, A.V.; Cramer, C.J.; Truhlar, D.G.
 J. Phys. Chem. B 2009, 113, 6378-6396.
 iSolventCode=           1
 Solvent: water                                                           
 
 vradii
            1           2           3           4           5           6
    1   1.8500000   1.8500000   1.8500000   1.8500000   1.8500000   1.8500000
            7           8           9          10          11          12
    1   1.8500000   1.8500000   1.8500000   1.8900000   1.2000000   1.2000000
           13          14          15          16          17          18
    1   1.2000000   1.2000000   1.2000000   1.2000000   1.2000000   1.2000000
           19
    1   1.2000000
 Changing PCM_VDW_RADII to SMD_RADIUS
 Discretize the solute cavity surface with Lebedev spheres
	Using 110 Lebedev grid points for each H atom
	Using 194 Lebedev grid points for other atoms
	Atomic van der Waals radii will be scaled by 1.20
 Remove points where switching function is < 1.0e-08
 Keep 1358 surface tesserae and discard 1572 interior tesserae
 Molecular Surface Area = 163.487 Angst**2
 A cutoff of  1.0D-14 yielded  14484 shell pairs
 There are     98330 function pairs (    126517 Cartesian)
 Smallest overlap matrix eigenvalue = 4.73E-07
 Linear dependence detected in AO basis
 Tighter screening thresholds may be required for diffuse basis sets
 Use S2THRESH > 14 and THRESH = 14 in case of SCF convergence issues
 Number of orthogonalized atomic orbitals = 448
 Maximum deviation from orthogonality = 1.896E-10

 Scale SEOQF with 1.000000e-01/1.000000e-01/1.000000e-01

 Standard Electronic Orientation quadrupole field applied
 Nucleus-field energy     =    -0.0000000366 hartrees
 Guess from superposition of atomic densities
 Warning:  Energy on first SCF cycle will be non-variational
 SAD guess density has 69.692991 electrons

 -----------------------------------------------------------------------
  General SCF calculation program by
  Eric Jon Sundstrom, Paul Horn, Yuezhi Mao, Dmitri Zuev, Alec White,
  David Stuck, Shaama M.S., Shane Yost, Joonho Lee, David Small,
  Daniel Levine, Susi Lehtola, Hugh Burton, Evgeny Epifanovsky
 -----------------------------------------------------------------------
 Exchange:     0.1670 Hartree-Fock + 1.0000 wB97X-V + LR-HF
 Correlation:  1.0000 wB97X-V
 Using Euler-Maclaurin-Lebedev (99,590) quadrature formula
 Nonlocal Correlation:  VV10 with C = 0.0100 and b = 6.00 and scale = 1.00000
 Grid used for NLC:  SG-1 standard quadrature
Energy prior to optimization (guess energy) = -402.923121904855
Begin Timing: Total SCF Calculation
begin iterations for algorithm: DIIS         
the SCF tolerance is set to 1.00e-08
    1    -402.9231219049      3.31e-03     00000 
    2    -402.9686572107      3.07e-03     00000 
    3    -403.1711575778      3.65e-04     00000 
    4    -403.1748482518      1.52e-04     00000 
    5    -403.1755499919      2.85e-05     00000 
    6    -403.1755898415      1.75e-05     00000 
    7    -403.1755991531      4.03e-06     00000 
    8    -403.1756006310      1.51e-06     00000 
    9    -403.1756008555      8.06e-07     00000 
   10    -403.1756009363      3.03e-07     00000 
   11    -403.1756009494      8.60e-08     00000 
   12    -403.1756009505      4.01e-08     00000 
   13    -403.1756009506      1.28e-08     00000 
   14    -403.1756009506      4.08e-09     00000 Convergence criterion met
Timing for Total SCF: 4039.00s (wall), 8013.71s (cpu)
(3)  G-ENP(liq) elect-nuc-pol free energy of system     -403.175600951 a.u.
(4)  G-CDS(liq) cavity-dispersion-solvent structure 
     free energy                                                3.7503 kcal/mol
(6)  G-S(liq) free energy of system                     -403.169624504 a.u.
E_pcm = -0.0158933492
E_cds = 0.0059764469
Multipole orders to be included
        2
        3
computing dipole RHS
computing quadrupole RHS
total number of RHS in solve_reponses: 8
RHS batch sizes
        8
Beginning Block Conjugate Gradient Iterations. Batch Number: 0
computing hessian-vector products by finite difference
              1      6.53e-01     00000 Conjugate Gradient Iteration
computing hessian-vector products by finite difference
              2      2.12e-01     00000 Conjugate Gradient Iteration
computing hessian-vector products by finite difference
              3      6.71e-02     00000 Conjugate Gradient Iteration
computing hessian-vector products by finite difference
              4      2.45e-02     00000 Conjugate Gradient Iteration
computing hessian-vector products by finite difference
              5      6.77e-03     00000 Conjugate Gradient Iteration
computing hessian-vector products by finite difference
              6      1.97e-03     00000 Conjugate Gradient Iteration
computing hessian-vector products by finite difference
              7      4.19e-04     00000 Conjugate Gradient Iteration
computing hessian-vector products by finite difference
              8      8.73e-05     00000 Conjugate Gradient Iteration
computing hessian-vector products by finite difference
              9      1.60e-05     00000 Conjugate Gradient Iteration
computing hessian-vector products by finite difference
             10      3.23e-06     00000 Conjugate Gradient Iteration
computing hessian-vector products by finite difference
             11      5.95e-07     00000 Conjugate Gradient Iteration
computing hessian-vector products by finite difference
             12      9.58e-08     00000 Conjugate Gradient Iteration
computing hessian-vector products by finite difference
             13      1.35e-08     00000 Conjugate Gradient Iteration
computing hessian-vector products by finite difference
             14      4.16e-09     00000 CG Converged
batch 0 complete
Done Calculating Responses
TESTING ORTHOGONALIZATION OF MULTIPOLE BASIS
Multipole virts passed orthogonality test
Virts Per Order
          105
          175
 
 --------------------------------------------------------------
 
                    Orbital Energies (a.u.)
 --------------------------------------------------------------
 
 Alpha MOs
 -- Occupied --
-14.4417 -10.2939 -10.2862 -10.2638 -10.2629 -10.2611 -10.2592 -10.2574
-10.2518 -10.2515  -1.1149  -0.9807  -0.9302  -0.8692  -0.8579  -0.8121
 -0.7419  -0.7111  -0.6731  -0.6464  -0.5940  -0.5790  -0.5547  -0.5471
 -0.5362  -0.5109  -0.5091  -0.4888  -0.4742  -0.4532  -0.4461  -0.4277
 -0.3770  -0.3143  -0.2870
 -- Virtual --
  0.0596   0.0643   0.0799   0.0825   0.0959   0.1025   0.1041   0.1108
  0.1326   0.1368   0.1402   0.1514   0.1604   0.1690   0.1772   0.1836
  0.1918   0.1980   0.2059   0.2119   0.2183   0.2258   0.2317   0.2483
  0.2540   0.2578   0.2633   0.2655   0.2697   0.2804   0.2811   0.2832
  0.2864   0.2903   0.2942   0.2966   0.3061   0.3129   0.3173   0.3268
  0.3290   0.3355   0.3425   0.3433   0.3467   0.3479   0.3537   0.3568
  0.3611   0.3701   0.3772   0.3826   0.3852   0.3915   0.3956   0.4024
  0.4028   0.4108   0.4161   0.4195   0.4242   0.4286   0.4320   0.4432
  0.4458   0.4537   0.4579   0.4598   0.4634   0.4672   0.4689   0.4791
  0.4871   0.4978   0.5013   0.5035   0.5067   0.5208   0.5258   0.5292
  0.5383   0.5400   0.5462   0.5492   0.5538   0.5555   0.5651   0.5684
  0.5761   0.5811   0.5923   0.5962   0.6119   0.6156   0.6219   0.6297
  0.6357   0.6456   0.6488   0.6534   0.6605   0.6764   0.6818   0.6889
  0.6948   0.6974   0.7037   0.7083   0.7183   0.7237   0.7288   0.7375
  0.7420   0.7466   0.7542   0.7594   0.7684   0.7702   0.7777   0.7805
  0.7870   0.7910   0.7940   0.7993   0.8055   0.8069   0.8151   0.8200
  0.8280   0.8350   0.8387   0.8435   0.8453   0.8520   0.8611   0.8722
  0.8748   0.8801   0.8849   0.8966   0.9064   0.9128   0.9221   0.9386
  0.9542   0.9569   0.9666   0.9905   1.0020   1.0061   1.0166   1.0226
  1.0428   1.0483   1.0569   1.0673   1.0805   1.0884   1.0961   1.1077
  1.1177   1.1362   1.1466   1.1546   1.1785   1.1933   1.2051   1.2248
  1.2439   1.2544   1.2699   1.2736   1.3043   1.3162   1.3506   1.3596
  1.3907   1.4010   1.4069   1.4244   1.4347   1.4543   1.4621   1.4792
  1.5252   1.5525   1.5721   1.5764   1.5892   1.5982   1.6201   1.6277
  1.6511   1.6671   1.7043   1.7088   1.7311   1.7373   1.7487   1.7744
  1.7992   1.8358   1.8533   1.8637   1.8711   1.8782   1.8849   1.8994
  1.9131   1.9242   1.9469   1.9549   1.9630   1.9734   1.9877   1.9910
  2.0034   2.0074   2.0144   2.0331   2.0390   2.0688   2.0735   2.0794
  2.0965   2.1294   2.1410   2.1785   2.1909   2.2087   2.2186   2.2383
  2.2668   2.2981   2.3028   2.3252   2.3366   2.3730   2.3778   2.3927
  2.4128   2.4422   2.4521   2.4633   2.5039   2.5159   2.5212   2.5588
  2.5782   2.5807   2.6066   2.6197   2.6320   2.6578   2.6658   2.6862
  2.7062   2.7323   2.7582   2.7712   2.7809   2.8006   2.8135   2.8201
  2.8307   2.8445   2.8651   2.8785   2.8858   2.9062   2.9172   2.9286
  2.9418   2.9504   2.9743   2.9857   2.9918   3.0216   3.0370   3.0471
  3.0527   3.0738   3.0970   3.1122   3.1184   3.1472   3.1567   3.1707
  3.1841   3.2083   3.2179   3.2357   3.2529   3.2540   3.2663   3.2749
  3.2876   3.3078   3.3146   3.3266   3.3658   3.3730   3.3950   3.4110
  3.4127   3.4244   3.4365   3.4478   3.4527   3.4653   3.4816   3.4870
  3.5066   3.5243   3.5284   3.5318   3.5380   3.5463   3.5725   3.5874
  3.5949   3.6066   3.6228   3.6423   3.6531   3.6722   3.6756   3.6931
  3.7139   3.7313   3.7392   3.7413   3.7651   3.7781   3.8016   3.8056
  3.8323   3.8686   3.8926   3.9322   3.9530   3.9575   4.0020   4.0429
  4.0625   4.0858   4.1311   4.1579   4.1840   4.2123   4.2352   4.2536
  4.2692   4.2804   4.2997   4.3124   4.3411   4.3767   4.3879   4.3914
  4.4266   4.4436   4.4545   4.4854   4.5021   4.5490   4.5900   4.6193
  4.6664   4.6828   4.7019   4.7826   4.8119   4.8333   4.8802   4.9411
  4.9616   4.9791   4.9930   5.0091   5.0292   5.0839   5.0909   5.1282
  5.1445   5.1754   5.2182   5.2447   5.2896   5.4115   5.4301   5.4741
  5.5335   5.5871   5.6097   5.6722   5.7215   5.8153   5.8402   5.9660
  5.9954   6.2931   6.3854  22.6799  22.7615  22.9539  22.9884  23.0295
 23.2513  23.3076  23.5317  23.8480  32.8520
 --------------------------------------------------------------
 
          Ground-State Mulliken Net Atomic Charges

     Atom                 Charge (a.u.)
  ----------------------------------------
      1 C                    -1.078657
      2 C                    -0.129244
      3 C                     0.356425
      4 C                     0.731928
      5 C                    -0.756112
      6 C                    -0.438765
      7 C                    -0.652197
      8 C                    -0.624606
      9 C                    -0.526772
     10 N                     0.128066
     11 H                     0.397347
     12 H                     0.412805
     13 H                     0.413302
     14 H                     0.395502
     15 H                     0.217037
     16 H                     0.317489
     17 H                     0.310931
     18 H                     0.297940
     19 H                     0.227583
  ----------------------------------------
  Sum of atomic charges =     0.000000

 -----------------------------------------------------------------
                    Cartesian Multipole Moments
 -----------------------------------------------------------------
    Charge (ESU x 10^10)
                -0.0000
    Dipole Moment (Debye)
         X       1.6655      Y       0.9908      Z       2.3617
       Tot       3.0550
    Quadrupole Moments (Debye-Ang)
        XX     -56.6632     XY       7.5570     YY     -56.7191
        XZ       6.5676     YZ       2.2540     ZZ     -43.2289
    Octopole Moments (Debye-Ang^2)
       XXX      76.3514    XXY      -0.5934    XYY      32.2579
       YYY      -4.5518    XXZ     -95.5131    XYZ      14.2289
       YYZ     -97.0350    XZZ      45.7435    YZZ       7.0085
       ZZZ    -239.0821
    Hexadecapole Moments (Debye-Ang^3)
      XXXX    -418.2989   XXXY    -120.8276   XXYY    -132.9563
      XYYY    -117.2875   YYYY    -450.3642   XXXZ     144.2144
      XXYZ      66.3355   XYYZ      59.5973   YYYZ     149.3820
      XXZZ    -393.9152   XYZZ      -1.6946   YYZZ    -401.6137
      XZZZ     224.5114   YZZZ     153.2813   ZZZZ   -1753.5312
 -----------------------------------------------------------------
Archival summary:
1\1\nid00560\SP\ProcedureUnspecified\BasisUnspecified\199\meili\MonSep2701:35:052021MonSep2701:35:052021\0\\#,ProcedureUnspecified,BasisUnspecified,\\0,1\C\C,1,1.39359\H,2,1.07814,1,119.996\C,2,1.37285,1,118.688,3,179.528,0\H,4,1.082,2,119.76,1,179.66,0\C,4,1.39957,2,121.022,1,0.718518,0\H,6,1.08221,4,119.089,2,179.659,0\C,6,1.37246,4,121.501,2,-1.15338,0\H,8,1.08106,6,121.352,4,-179.086,0\C,8,1.37553,6,117.467,4,1.36173,0\N,10,1.36508,8,130.456,6,-178.58,0\H,11,1.01472,10,126.398,8,-2.31084,0\C,11,1.3628,10,109.093,8,179.917,0\H,13,1.084,11,125.136,10,178.991,0\C,13,1.3591,11,110.321,10,-2.67294,0\C,15,1.47479,13,126.857,11,-176.498,0\H,16,1.08933,15,110.437,13,-30.8038,0\H,16,1.09131,15,108.667,13,-149.152,0\H,16,1.1,15,109.755,13,91.2698,0\\\@

 Total job time:  75405.21s(wall), 149765.41s(cpu) 
 Mon Sep 27 01:35:10 2021

        *************************************************************
        *                                                           *
        *  Thank you very much for using Q-Chem.  Have a nice day.  *
        *                                                           *
        *************************************************************


Done Job For Fragment 1
calling putenv with: QCSCRATCH=/global/cscratch1/sd/meili 
calling putenv with: QCLOCALSCR=/tmp 
calling putenv with: QCTHREADS=32 
Doing General SCFMI
 Exchange:     0.1670 Hartree-Fock + 1.0000 wB97X-V + LR-HF
 Correlation:  1.0000 wB97X-V
 Using Euler-Maclaurin-Lebedev (99,590) quadrature formula
 Nonlocal Correlation:  VV10 with C = 0.0100 and b = 6.00 and scale = 1.00000
 Grid used for NLC:  SG-1 standard quadrature
performing fock build before subrot guess so that all methods have access
Printing subrot_rss_gen Method Specification:
Occupied Subspace Method is 0
Virtual Subspace Method is 0
Energy of the unrelaxed supersystem initial determinant -631.690345495299
performing fock build before subrot guess so that all methods have access
Printing subrot_rss_gen Method Specification:
Occupied Subspace Method is 0
Virtual Subspace Method is 0
Energy of the unrelaxed supersystem initial determinant w/ solvent -631.842477987083
write pseudocanon occs and virts to disk
write pseudocanon orbital energies to disk
Tolerance of ortho_decomp_scf: 1.00e-06
GDM subspace size: 20
Beginning the Orthogonal Decomposition of the Initial Supersystem Wavefunction
    1    -631.6791353389      2.66e-02     ortho_decomp Preconditoned Steepest Descent
    2    -631.6816553420      7.77e-04     ortho_decomp BFGS Step
    3    -631.6816663778      5.68e-05     ortho_decomp BFGS Step
    4    -631.6816663917      2.27e-06     ortho_decomp BFGS Step
    5    -631.6816663918      8.38e-08     ortho_decomp 00000 Convergence criterion met
 Hartree-Fock
 Hartree-Fock
 Hartree-Fock
Doing General SCFMI
 Exchange:     0.1670 Hartree-Fock + 1.0000 wB97X-V + LR-HF
 Correlation:  1.0000 wB97X-V
 Using Euler-Maclaurin-Lebedev (99,590) quadrature formula
 Nonlocal Correlation:  VV10 with C = 0.0100 and b = 6.00 and scale = 1.00000
 Grid used for NLC:  SG-1 standard quadrature
performing fock build at end of subrot_r(subrot) constructor so that all methods have access
<S^2> of initial wavefunction before polarization iterations 0.0000000000
Beginning iterations for the determination of the polarized wavefunction
Energy prior to optimization (guess energy) = -631.842477987083
Begin Timing: Total SCF Calculation
begin iterations for algorithm: DIIS         
the SCF tolerance is set to 1.00e-08
    1    -631.8424779871      3.15e-05     00000 
    2    -631.8425710748      2.38e-05     00000 
    3    -631.8425959495      8.28e-06     00000 
    4    -631.8426013535      3.63e-06     00000 
    5    -631.8426022759      1.32e-06     00000 
    6    -631.8426024565      6.07e-07     00000 
    7    -631.8426024857      1.85e-07     00000 
    8    -631.8426024895      7.64e-08     00000 
    9    -631.8426024902      2.84e-08     00000 
   10    -631.8426024904      8.90e-09     00000 Convergence criterion met
write pseudocanon occs and virts to disk
write pseudocanon orbital energies to disk
Timing for Total SCF: 6477.00s (wall), 12900.98s (cpu)
<S^2> of polarized wavefunction after polarization iterations 0.0000000000
relaxing scfmi constraint to allow all rotations in the entire AO span
Doing General SCFMI
 Exchange:     0.1670 Hartree-Fock + 1.0000 wB97X-V + LR-HF
 Correlation:  1.0000 wB97X-V
 Using Euler-Maclaurin-Lebedev (99,590) quadrature formula
 Nonlocal Correlation:  VV10 with C = 0.0100 and b = 6.00 and scale = 1.00000
 Grid used for NLC:  SG-1 standard quadrature
performing fock build at end of subrot_r(subrot) constructor so that all methods have access
<S^2> of polarized wavefunction before ct-allowed iterations 0.0000000000
Beginning iterations for the determination of the CT-Allowed wavefunction
Energy prior to optimization (guess energy) = -631.842602490356
Begin Timing: Total SCF Calculation
begin iterations for algorithm: DIIS         
the SCF tolerance is set to 1.00e-08
    1    -631.8426024904      5.14e-05     00000 
    2    -631.8430982791      5.31e-06     00000 
    3    -631.8431163527      1.32e-06     00000 
    4    -631.8431170387      1.32e-06     00000 
    5    -631.8431172864      1.44e-07     00000 
    6    -631.8431172948      9.92e-08     00000 
    7    -631.8431172966      2.02e-08     00000 
    8    -631.8431172968      8.19e-09     00000 Convergence criterion met
write pseudocanon occs and virts to disk
write pseudocanon orbital energies to disk
Timing for Total SCF: 4907.00s (wall), 9775.06s (cpu)
<S^2> of ct_allowed wavefunction after ct-allowed iterations 0.0000000000

================================
        Results of EDA2         
================================
Basic EDA Quantities
--------------------
Fragment Energies (Ha):
1 -228.6597781657
2 -403.1696245037
--------------------
  E_prp (kJ/mol) = -0.0000
  E_sol (kJ/mol) = -16.6514
  E_frz (kJ/mol) = 11.6333
  E_pol (kJ/mol) = -0.3269
  E_vct (kJ/mol) = -1.3516
  E_int (kJ/mol) = -6.6966
--------------------


Initial Wavefunction Decomposition
--------------------
  --------------------
  Orthogonal Fragment Subspace Decomposition:
  --------------------
     E_elec   (ELEC)   (kJ/mol) = -2.3073
     E_pauli  (PAULI)  (kJ/mol) = 26.6306
     E_disp   (DISP)   (kJ/mol) = -12.6900
     --------------------
     Terms summing to E_pauli:
     --------------------
        E_kep_pauli       (kJ/mol) = 34.4206
        E_disp_free_pauli (kJ/mol) = -7.7900
  --------------------
  Classical Frozen Decomposition:
  --------------------
     E_cls_elec  (CLS ELEC)  (kJ/mol) = 12.2963
     E_cls_pauli (CLS PAULI) (kJ/mol) = -0.6630
    [E_mod_pauli (MOD PAULI) (kJ/mol) = 12.0270 (CLS PAULI - DISP from orthogonal decomposition) ]
  --------------------
--------------------

Simplified EDA Summary (kJ/mol)
--------------------
 PREPARATION     -0.0000
 SOLVATION       -16.6514
 FROZEN          24.3233      (does not include dispersion)
[PAULI           26.6306]     (if this is negligible, then frozen describes electrostatics)
 DISPERSION      -12.6900
 POLARIZATION    -0.3269
 CHARGE TRANSFER -1.3516
 TOTAL           -6.6966     (PRP + SOL + FRZ + DISP + POL + CT)
--------------------
 
 --------------------------------------------------------------
 
                    Orbital Energies (a.u.)
 --------------------------------------------------------------
 
 Alpha MOs
 -- Occupied --
-19.1564 -19.1524 -14.4404 -10.3565 -10.2923 -10.2848 -10.2617 -10.2615
-10.2586 -10.2575 -10.2555 -10.2507 -10.2504 -10.2463  -1.1619  -1.1135
 -1.0641  -0.9790  -0.9289  -0.8676  -0.8563  -0.8411  -0.8109  -0.7404
 -0.7094  -0.6717  -0.6450  -0.6192  -0.5925  -0.5784  -0.5535  -0.5468
 -0.5456  -0.5437  -0.5422  -0.5342  -0.5097  -0.5080  -0.4877  -0.4851
 -0.4738  -0.4568  -0.4514  -0.4440  -0.4261  -0.3761  -0.3650  -0.3575
 -0.3465  -0.3122  -0.2854
 -- Virtual --
  0.0603   0.0630   0.0725   0.0815   0.0903   0.0942   0.0957   0.0978
  0.1075   0.1186   0.1210   0.1261   0.1299   0.1371   0.1385   0.1436
  0.1494   0.1520   0.1556   0.1632   0.1702   0.1749   0.1799   0.1868
  0.1951   0.1994   0.2023   0.2099   0.2140   0.2201   0.2269   0.2284
  0.2338   0.2366   0.2443   0.2489   0.2545   0.2584   0.2603   0.2691
  0.2732   0.2759   0.2797   0.2846   0.2868   0.2925   0.2942   0.3007
  0.3063   0.3072   0.3107   0.3125   0.3187   0.3228   0.3241   0.3324
  0.3367   0.3399   0.3439   0.3468   0.3503   0.3526   0.3569   0.3577
  0.3648   0.3671   0.3704   0.3715   0.3730   0.3768   0.3827   0.3836
  0.3895   0.3935   0.3985   0.3995   0.4048   0.4066   0.4123   0.4146
  0.4198   0.4202   0.4261   0.4328   0.4370   0.4404   0.4439   0.4499
  0.4520   0.4550   0.4561   0.4594   0.4623   0.4657   0.4702   0.4777
  0.4787   0.4826   0.4886   0.4902   0.4930   0.4973   0.5020   0.5059
  0.5121   0.5172   0.5235   0.5248   0.5350   0.5364   0.5443   0.5449
  0.5479   0.5528   0.5563   0.5614   0.5658   0.5661   0.5729   0.5766
  0.5807   0.5835   0.5926   0.5982   0.6031   0.6108   0.6134   0.6195
  0.6204   0.6272   0.6315   0.6377   0.6385   0.6486   0.6521   0.6541
  0.6587   0.6691   0.6718   0.6740   0.6796   0.6863   0.6889   0.6944
  0.7011   0.7060   0.7103   0.7131   0.7168   0.7206   0.7305   0.7348
  0.7366   0.7422   0.7463   0.7498   0.7544   0.7615   0.7646   0.7671
  0.7725   0.7797   0.7855   0.7867   0.7898   0.7942   0.7965   0.7983
  0.8057   0.8085   0.8095   0.8134   0.8182   0.8216   0.8286   0.8348
  0.8375   0.8427   0.8453   0.8462   0.8555   0.8596   0.8652   0.8720
  0.8760   0.8810   0.8879   0.8940   0.8946   0.9049   0.9124   0.9148
  0.9281   0.9307   0.9393   0.9411   0.9493   0.9589   0.9610   0.9730
  0.9745   0.9848   0.9963   1.0026   1.0041   1.0094   1.0248   1.0288
  1.0333   1.0473   1.0497   1.0537   1.0585   1.0697   1.0815   1.0913
  1.0948   1.1071   1.1156   1.1258   1.1327   1.1402   1.1514   1.1572
  1.1645   1.1863   1.1934   1.1992   1.2114   1.2218   1.2241   1.2336
  1.2463   1.2630   1.2655   1.2760   1.2889   1.3041   1.3144   1.3295
  1.3343   1.3567   1.3623   1.3740   1.3764   1.3822   1.3943   1.4050
  1.4247   1.4369   1.4477   1.4516   1.4628   1.4704   1.4923   1.5104
  1.5401   1.5614   1.5648   1.5915   1.5924   1.6041   1.6201   1.6263
  1.6384   1.6451   1.6672   1.6864   1.6980   1.7179   1.7391   1.7553
  1.7793   1.7849   1.8052   1.8267   1.8415   1.8647   1.8695   1.8738
  1.8797   1.8938   1.8980   1.9094   1.9147   1.9230   1.9345   1.9380
  1.9485   1.9587   1.9593   1.9614   1.9732   1.9762   1.9852   1.9939
  2.0014   2.0074   2.0165   2.0340   2.0391   2.0473   2.0603   2.0640
  2.0678   2.0752   2.0828   2.1042   2.1152   2.1272   2.1390   2.1501
  2.1714   2.1921   2.2082   2.2160   2.2191   2.2378   2.2425   2.2608
  2.2661   2.2734   2.3052   2.3185   2.3366   2.3391   2.3450   2.3486
  2.3824   2.3913   2.4109   2.4250   2.4254   2.4515   2.4624   2.4647
  2.4875   2.4937   2.5131   2.5164   2.5226   2.5358   2.5646   2.5839
  2.5867   2.5934   2.6181   2.6288   2.6370   2.6405   2.6547   2.6647
  2.6758   2.6939   2.7131   2.7163   2.7419   2.7712   2.7735   2.7807
  2.7913   2.8054   2.8198   2.8287   2.8329   2.8544   2.8607   2.8687
  2.8792   2.8872   2.8981   2.9108   2.9143   2.9286   2.9417   2.9591
  2.9624   2.9793   2.9907   2.9981   3.0069   3.0220   3.0474   3.0565
  3.0573   3.0622   3.0953   3.1086   3.1206   3.1269   3.1415   3.1544
  3.1643   3.1740   3.1896   3.2002   3.2261   3.2321   3.2416   3.2453
  3.2584   3.2623   3.2691   3.2722   3.2869   3.2946   3.3206   3.3220
  3.3228   3.3374   3.3621   3.3648   3.3711   3.3866   3.3907   3.3939
  3.4077   3.4203   3.4223   3.4271   3.4343   3.4437   3.4564   3.4648
  3.4717   3.4770   3.4948   3.5114   3.5156   3.5336   3.5375   3.5409
  3.5500   3.5562   3.5662   3.5825   3.5834   3.5961   3.5995   3.6118
  3.6199   3.6334   3.6391   3.6535   3.6616   3.6760   3.6810   3.6899
  3.7007   3.7154   3.7202   3.7295   3.7451   3.7483   3.7581   3.7682
  3.7740   3.7893   3.8092   3.8184   3.8379   3.8619   3.8671   3.9015
  3.9372   3.9492   3.9587   3.9614   4.0091   4.0498   4.0638   4.0674
  4.1012   4.1062   4.1395   4.1629   4.1887   4.2005   4.2252   4.2448
  4.2569   4.2718   4.2911   4.3053   4.3192   4.3484   4.3743   4.3825
  4.3969   4.4054   4.4312   4.4490   4.4609   4.4963   4.5169   4.5531
  4.5725   4.5956   4.6260   4.6324   4.6703   4.6737   4.6905   4.7057
  4.7891   4.8134   4.8208   4.8248   4.8391   4.8855   4.9574   4.9686
  4.9815   4.9959   5.0120   5.0177   5.0354   5.0868   5.0979   5.1341
  5.1521   5.1788   5.2212   5.2495   5.2944   5.3022   5.3299   5.3426
  5.3480   5.4202   5.4343   5.4712   5.4803   5.5376   5.5880   5.6158
  5.6810   5.6838   5.7234   5.7267   5.7732   5.8100   5.8447   5.9675
  5.9783   5.9990   6.2261   6.2951   6.3021   6.3202   6.3834   6.5890
  6.6290   6.7067   6.7389   6.7539   6.9182   6.9882   7.0252   7.2186
  7.3314   7.3530   7.3904  22.6178  22.6827  22.7873  22.9793  22.9879
 23.0568  23.2575  23.3122  23.5355  23.6942  23.8529  32.8633  44.3326
 44.3744
 --------------------------------------------------------------
 
          Ground-State Mulliken Net Atomic Charges

     Atom                 Charge (a.u.)
  ----------------------------------------
      1 C                    -0.582422
      2 C                     0.587951
      3 O                    -0.791477
      4 O                    -0.789109
      5 H                     0.118790
      6 H                     0.240571
      7 H                     0.238086
      8 C                    -1.121237
      9 C                    -0.106240
     10 C                     0.369500
     11 C                     0.624182
     12 C                    -0.546571
     13 C                    -0.435546
     14 C                    -0.696851
     15 C                    -0.689709
     16 C                    -0.622093
     17 N                     0.114577
     18 H                     0.404843
     19 H                     0.426626
     20 H                     0.467804
     21 H                     0.412357
     22 H                     0.216677
     23 H                     0.320355
     24 H                     0.312332
     25 H                     0.297290
     26 H                     0.229314
  ----------------------------------------
  Sum of atomic charges =    -1.000000

 -----------------------------------------------------------------
                    Cartesian Multipole Moments
 -----------------------------------------------------------------
    Charge (ESU x 10^10)
                -4.8032
    Dipole Moment (Debye)
         X      -4.6699      Y      -3.2227      Z      20.6755
       Tot      21.4399
    Quadrupole Moments (Debye-Ang)
        XX     -93.5300     XY       5.0873     YY     -85.1590
        XZ      26.4026     YZ      21.2696     ZZ    -145.5614
    Octopole Moments (Debye-Ang^2)
       XXX      -5.4612    XXY       2.6898    XYY      10.4317
       YYY       9.4241    XXZ      38.4414    XYZ      24.8525
       YYZ      16.7196    XZZ     -39.3206    YZZ     -73.5321
       ZZZ     400.1366
    Hexadecapole Moments (Debye-Ang^3)
      XXXX    -648.5008   XXXY    -126.3786   XXYY    -194.2360
      XYYY    -125.1746   YYYY    -625.7521   XXXZ     423.0275
      XXYZ      56.4900   XYYZ     138.5911   YYYZ     102.3477
      XXZZ    -937.1525   XYZZ     -48.1162   YYZZ    -905.6256
      XZZZ     669.2133   YZZZ     487.7657   ZZZZ   -5800.8374
 -----------------------------------------------------------------
Archival summary:
1\1\nid00560\SP\ProcedureUnspecified\BasisUnspecified\211112(1-,1)\meili\MonSep2707:47:532021MonSep2707:47:532021\0\\#,ProcedureUnspecified,BasisUnspecified,\\-1,1\C\C,1,1.39359\H,2,1.07814,1,119.996\C,2,1.37285,1,118.688,3,179.528,0\H,4,1.082,2,119.76,1,179.66,0\C,4,1.39957,2,121.022,1,0.718518,0\H,6,1.08221,4,119.089,2,179.659,0\C,6,1.37246,4,121.501,2,-1.15338,0\H,8,1.08106,6,121.352,4,-179.086,0\C,8,1.37553,6,117.467,4,1.36173,0\N,10,1.36508,8,130.456,6,-178.58,0\H,11,1.01472,10,126.398,8,-2.31084,0\C,11,1.3628,10,109.093,8,179.917,0\H,13,1.084,11,125.136,10,178.991,0\C,13,1.3591,11,110.321,10,-2.67294,0\C,15,1.47479,13,126.857,11,-176.498,0\H,16,1.08933,15,110.437,13,-30.8038,0\H,16,1.09131,15,108.667,13,-149.152,0\H,16,1.1,15,109.755,13,91.2698,0\H,5,2.60145,4,119.426,2,-96.0785,0\C,20,1.09376,5,133.959,4,-95.7381,0\H,21,1.08584,20,105.354,5,137.918,0\H,21,1.1,20,106.565,5,-102.429,0\C,21,1.51786,20,107.223,5,20.0901,0\O,24,1.25239,21,119.463,20,-107.885,0\O,24,1.26464,21,116.948,20,71.5288,0\\\@

 Total job time:  102586.19s(wall), 44583.57s(cpu) 
 Mon Sep 27 07:47:57 2021

        *************************************************************
        *                                                           *
        *  Thank you very much for using Q-Chem.  Have a nice day.  *
        *                                                           *
        *************************************************************


