
Running Job 1 of 1 SSI-050ASP-067PHE-1_PCM_TZVPD.in
qchem SSI-050ASP-067PHE-1_PCM_TZVPD.in_22486.0 /tmp/qchem22486/ 0
/global/common/cori/software/qchem/5.2/exe/qcprog.exe_s SSI-050ASP-067PHE-1_PCM_TZVPD.in_22486.0 /tmp/qchem22486/
                  Welcome to Q-Chem
     A Quantum Leap Into The Future Of Chemistry


 Q-Chem 5.2, Q-Chem, Inc., Pleasanton, CA (2019)

 License issued to: National Energy Research Scientific Computing Center

 Yihan Shao,  Zhengting Gan,  E. Epifanovsky,  A. T. B. Gilbert,  M. Wormit,  
 J. Kussmann,  A. W. Lange,  A. Behn,  Jia Deng,  Xintian Feng,  D. Ghosh,  
 M. Goldey,  P. R. Horn,  L. D. Jacobson,  I. Kaliman,  T. Kus,  A. Landau,  
 Jie Liu,  E. I. Proynov,  R. M. Richard,  R. P. Steele,  E. J. Sundstrom,  
 H. L. Woodcock III,  P. M. Zimmerman,  D. Zuev,  B. Albrecht,  E. Alguire,  
 S. A. Baeppler,  D. Barton,  Z. Benda,  Y. A. Bernard,  E. J. Berquist,  
 K. B. Bravaya,  H. Burton,  D. Casanova,  Chun-Min Chang,  Yunqing Chen,  
 A. Chien,  K. D. Closser,  M. P. Coons,  S. Coriani,  S. Dasgupta,  
 A. L. Dempwolff,  M. Diedenhofen,  Hainam Do,  R. G. Edgar,  Po-Tung Fang,  
 S. Faraji,  S. Fatehi,  Qingguo Feng,  K. D. Fenk,  J. Fosso-Tande,  
 J. Gayvert,  Qinghui Ge,  A. Ghysels,  G. Gidofalvi,  J. Gomes,  
 J. Gonthier,  A. Gunina,  D. Hait,  M. W. D. Hanson-Heine,  
 P. H. P. Harbach,  A. W. Hauser,  M. F. Herbst,  J. E. Herr,  
 E. G. Hohenstein,  Z. C. Holden,  Kerwin Hui,  B. C. Huynh,  T.-C. Jagau,  
 Hyunjun Ji,  B. Kaduk,  K. Khistyaev,  Jaehoon Kim,  P. Klunzinger,  K. Koh,  
 D. Kosenkov,  L. Koulias,  T. Kowalczyk,  C. M. Krauter,  A. Kunitsa,  
 Ka Un Lao,  A. Laurent,  K. V. Lawler,  Joonho Lee,  D. Lefrancois,  
 S. Lehtola,  D. S. Levine,  Yi-Pei Li,  You-Sheng Lin,  Fenglai Liu,  
 E. Livshits,  A. Luenser,  P. Manohar,  E. Mansoor,  S. F. Manzer,  
 Shan-Ping Mao,  Yuezhi Mao,  N. Mardirossian,  A. V. Marenich,  
 T. Markovich,  L. A. Martinez-Martinez,  S. A. Maurer,  N. J. Mayhall,  
 S. C. McKenzie,  J.-M. Mewes,  P. Morgante,  A. F. Morrison,  
 J. W. Mullinax,  K. Nanda,  T. S. Nguyen-Beck,  R. Olivares-Amaya,  
 J. A. Parkhill,  Zheng Pei,  T. M. Perrine,  F. Plasser,  P. Pokhilko,  
 S. Prager,  A. Prociuk,  E. Ramos,  D. R. Rehn,  F. Rob,  M. Scheurer,  
 M. Schneider,  N. Sergueev,  S. M. Sharada,  S. Sharma,  D. W. Small,  
 T. Stauch,  T. Stein,  Yu-Chuan Su,  A. J. W. Thom,  A. Tkatchenko,  
 T. Tsuchimochi,  N. M. Tubman,  L. Vogt,  M. L. Vidal,  O. Vydrov,  
 M. A. Watson,  J. Wenzel,  M. de Wergifosse,  T. A. Wesolowski,  A. White,  
 J. Witte,  A. Yamada,  Jun Yang,  K. Yao,  S. Yeganeh,  S. R. Yost,  
 Zhi-Qiang You,  A. Zech,  Igor Ying Zhang,  Xing Zhang,  Yan Zhao,  
 Ying Zhu,  B. R. Brooks,  G. K. L. Chan,  C. J. Cramer,  M. S. Gordon,  
 W. J. Hehre,  A. Klamt,  M. W. Schmidt,  C. D. Sherrill,  D. G. Truhlar,  
 A. Aspuru-Guzik,  R. Baer,  A. T. Bell,  N. A. Besley,  Jeng-Da Chai,  
 A. E. DePrince, III,  R. A. DiStasio Jr.,  A. Dreuw,  B. D. Dunietz,  
 T. R. Furlani,  Chao-Ping Hsu,  Yousung Jung,  Jing Kong,  D. S. Lambrecht,  
 WanZhen Liang,  C. Ochsenfeld,  V. A. Rassolov,  L. V. Slipchenko,  
 J. E. Subotnik,  T. Van Voorhis,  J. M. Herbert,  A. I. Krylov,  
 P. M. W. Gill,  M. Head-Gordon

 Contributors to earlier versions of Q-Chem not listed above: 
 R. D. Adamson,  B. Austin,  J. Baker,  G. J. O. Beran,  K. Brandhorst,  
 S. T. Brown,  E. F. C. Byrd,  A. K. Chakraborty,  C.-L. Cheng,  
 Siu Hung Chien,  D. M. Chipman,  D. L. Crittenden,  H. Dachsel,  
 R. J. Doerksen,  A. D. Dutoi,  L. Fusti-Molnar,  W. A. Goddard III,  
 A. Golubeva-Zadorozhnaya,  S. R. Gwaltney,  G. Hawkins,  A. Heyden,  
 S. Hirata,  G. Kedziora,  F. J. Keil,  C. Kelley,  Jihan Kim,  R. A. King,  
 R. Z. Khaliullin,  P. P. Korambath,  W. Kurlancheek,  A. M. Lee,  M. S. Lee,  
 S. V. Levchenko,  Ching Yeh Lin,  D. Liotard,  R. C. Lochan,  I. Lotan,  
 P. E. Maslen,  N. Nair,  D. P. O'Neill,  D. Neuhauser,  E. Neuscamman,  
 C. M. Oana,  R. Olson,  B. Peters,  R. Peverati,  P. A. Pieniazek,  
 Y. M. Rhee,  J. Ritchie,  M. A. Rohrdanz,  E. Rosta,  N. J. Russ,  
 H. F. Schaefer III,  N. E. Schultz,  N. Shenvi,  A. C. Simmonett,  A. Sodt,  
 D. Stuck,  K. S. Thanthiriwatte,  V. Vanovschi,  Tao Wang,  A. Warshel,  
 C. F. Williams,  Q. Wu,  X. Xu,  W. Zhang

 Please cite Q-Chem as follows:
 Y. Shao et al., Mol. Phys. 113, 184-215 (2015)
 DOI: 10.1080/00268976.2014.952696

 Q-Chem 5.2.0 for Intel X86 EM64T Linux

 Parts of Q-Chem use Armadillo 8.300.2 (Tropical Shenanigans).
 http://arma.sourceforge.net/

 Q-Chem begins on Sun Sep 26 08:20:47 2021  

Host: cori01
0

     Scratch files written to /tmp/qchem22486//
 May1019 |scratch|qcdevops|jenkins|workspace|build_RNUM -1
Processing $rem in /global/common/cori/software/qchem/5.2/config/preferences:
	 MEM_TOTAL  96000 
NAlpha2: 82
NElect   82
Mult     1
Symmetry turned off for PCM/SM12/SMD calculation

 Q-Chem warning in module libgen/rem_setup.C, line 2803:

 Neither GIA nor STOLL is specified by user. Use STOLL as the default


Checking the input file for inconsistencies... 	...done.

--------------------------------------------------------------
User input:
--------------------------------------------------------------
$comment
SSI-050ASP-067PHE-1.pdb
$end

$molecule
-1 1
--
-1 1
C    1.497400096640    2.971792036420   -1.834964728146
C    0.676400096640    2.171792036420   -0.818964728146
O    0.989400096640    2.228792036420    0.392035271854
O   -0.282599903360    1.483792036420   -1.234964728146
H    0.911400096640    3.086792036420   -2.749964728146
H    2.391400096640    2.402792036420   -2.097964728146
H    1.782661096640    3.964472036420   -1.456524728146
--
0 1
C    1.961400096640   -1.250207963580    0.854035271854
C   -0.076599903360   -1.546207963580   -0.592964728146
C    0.471400096640   -1.351207963580    0.672035271854
C   -1.456599903360   -1.639207963580   -0.760964728146
C   -0.379599903360   -1.263207963580    1.773035271854
C   -2.297599903360   -1.548207963580    0.341035271854
C   -1.758599903360   -1.362207963580    1.609035271854
H    0.566400096640   -1.617207963580   -1.459964728146
H   -1.873599903360   -1.782207963580   -1.749964728146
H    2.194400096640   -0.249207963580    1.220035271854
H    2.433400096640   -1.374207963580   -0.115964728146
H    0.022400096640   -1.100207963580    2.763035271854
H   -3.370599903360   -1.620207963580    0.212035271854
H   -2.412599903360   -1.288207963580    2.469035271854
H    2.359159096640   -1.990337963580    1.563955271854
$end

$rem
JOBTYPE			EDA
EDA2			1
method			wB97X-V
BASIS			def2-TZVPD
XC_GRID			000099000590
NL_GRID			1
UNRESTRICTED		FALSE
MAX_SCF_CYCLES		200
SYMMETRY		FALSE
SYM_IGNORE		TRUE
MEM_STATIC		2000
BASIS_LIN_DEP_THRESH 	6
THRESH 			14
SCF_CONVERGENCE 	8
SCF_PRINT_FRGM 		TRUE
SOLVENT_METHOD          PCM
$end

$PCM
THEORY                  CPCM
METHOD                  SWIG
SOLVER                  INVERSION
RADII                   UFF
HPOINTS                 302
HEAVYPOINTS             302
PRINTLEVEL              0
$END

$SOLVENT
DIELECTRIC              78.390000 ! water
$END
--------------------------------------------------------------
 ----------------------------------------------------------------
             Standard Nuclear Orientation (Angstroms)
    I     Atom           X                Y                Z
 ----------------------------------------------------------------
    1      C       1.4974000966     2.9717920364    -1.8349647281
    2      C       0.6764000966     2.1717920364    -0.8189647281
    3      O       0.9894000966     2.2287920364     0.3920352719
    4      O      -0.2825999034     1.4837920364    -1.2349647281
    5      H       0.9114000966     3.0867920364    -2.7499647281
    6      H       2.3914000966     2.4027920364    -2.0979647281
    7      H       1.7826610966     3.9644720364    -1.4565247281
    8      C       1.9614000966    -1.2502079636     0.8540352719
    9      C      -0.0765999034    -1.5462079636    -0.5929647281
   10      C       0.4714000966    -1.3512079636     0.6720352719
   11      C      -1.4565999034    -1.6392079636    -0.7609647281
   12      C      -0.3795999034    -1.2632079636     1.7730352719
   13      C      -2.2975999034    -1.5482079636     0.3410352719
   14      C      -1.7585999034    -1.3622079636     1.6090352719
   15      H       0.5664000966    -1.6172079636    -1.4599647281
   16      H      -1.8735999034    -1.7822079636    -1.7499647281
   17      H       2.1944000966    -0.2492079636     1.2200352719
   18      H       2.4334000966    -1.3742079636    -0.1159647281
   19      H       0.0224000966    -1.1002079636     2.7630352719
   20      H      -3.3705999034    -1.6202079636     0.2120352719
   21      H      -2.4125999034    -1.2882079636     2.4690352719
   22      H       2.3591590966    -1.9903379636     1.5639552719
 ----------------------------------------------------------------
 Nuclear Repulsion Energy =         567.04460599 hartrees
 There are       41 alpha and       41 beta electrons
 Requested basis set is def2-TZVPD
 There are 200 shells and 512 basis functions

 Total QAlloc Memory Limit  96000 MB
 Mega-Array Size      1956 MB
 MEM_STATIC part      2000 MB
 Discretize the solute cavity surface with Lebedev spheres
	Using 302 Lebedev grid points for each H atom
	Using 302 Lebedev grid points for other atoms
	Atomic van der Waals radii will be scaled by 1.20
 Remove points where switching function is < 1.0e-08
 Keep 2592 surface tesserae and discard 4052 interior tesserae
 Molecular Surface Area = 262.223 Angst**2
 A cutoff of  1.0D-14 yielded  18115 shell pairs
 There are    120523 function pairs (    153330 Cartesian)
 Smallest overlap matrix eigenvalue = 4.94E-07
 Linear dependence detected in AO basis
 Tighter screening thresholds may be required for diffuse basis sets
 Use S2THRESH > 14 and THRESH = 14 in case of SCF convergence issues
 Number of orthogonalized atomic orbitals = 511
 Maximum deviation from orthogonality = 3.579E-10

 Scale SEOQF with 1.000000e-01/1.000000e-01/1.000000e-01

 Standard Electronic Orientation quadrupole field applied
 Nucleus-field energy     =     0.0000000121 hartrees

 -----------------------------------------------------------------------
  General SCF calculation program by
  Eric Jon Sundstrom, Paul Horn, Yuezhi Mao, Dmitri Zuev, Alec White,
  David Stuck, Shaama M.S., Shane Yost, Joonho Lee, David Small,
  Daniel Levine, Susi Lehtola, Hugh Burton, Evgeny Epifanovsky
 -----------------------------------------------------------------------
================================================================
                 ALMO-EDA with the EDA2 driver                  
================================================================
 The second-generation ALMO-EDA (for DFT):                      
 P. R. Horn, Y. Mao and M. Head-Gordon, PCCP, 18, 23067 (2016)  
 Decomposition of the frozen energy:                            
 P. R. Horn, Y. Mao and M. Head-Gordon, JCP, 144, 114107 (2016) 
 FERF model for polarization:                                   
 P. R. Horn and M. Head-Gordon, JCP, 143, 114111 (2015)         
Using eda2 option set 1
Option set summary: Frozen orbital wavefunction, initial wavefunction decomposition, and nDQ polarization.
--------------------------------
Printing EDA Options
--------------------------------
eda_child_super_basis      0
fragmo_guess_mode          0
child_mp                   1
child_mp_orders            232
cls_elec                   1
cls_disp                   0
scfmi_mode                 1
scfmi_occs                 0
scfmi_virts                0
frz_relax                  0
frz_relax_method           0
dc_pen_start               0
dc_pen_conv                0
dc_pen_increment           0
dc_pen_steps               0
dc_pen_thresh_factor       0
dc_pen_pre_newton_thresh   0
frz_ortho_decomp           1
frz_ortho_decomp_conv      6
frgm_method                2
scfmi_freeze_ss            0
separate_rehyb             0
plot_diff_den              0
eda_nocv                   0
eda_vct_relax              1
disp_free_x                0
disp_free_c                0
eda_bsse                   0
eda_pct_a                  0
eda_covp                   0
--------------------------------
Attempting to make child job directory: /tmp/qchem22486//Frg1/
Attempting to make child job directory: /tmp/qchem22486//Frg2/
Creating input file /tmp/qchem22486/Frg1.input
using default PutDataFrgm: nothing
calling putenv with: QCSCRATCH=/tmp/qchem22486/ 
calling putenv with: QCLOCALSCR=/tmp/qchem22486/ 
Spawning Job For Fragment 0
                  Welcome to Q-Chem
     A Quantum Leap Into The Future Of Chemistry


 Q-Chem 5.2, Q-Chem, Inc., Pleasanton, CA (2019)

 License issued to: National Energy Research Scientific Computing Center

 Yihan Shao,  Zhengting Gan,  E. Epifanovsky,  A. T. B. Gilbert,  M. Wormit,  
 J. Kussmann,  A. W. Lange,  A. Behn,  Jia Deng,  Xintian Feng,  D. Ghosh,  
 M. Goldey,  P. R. Horn,  L. D. Jacobson,  I. Kaliman,  T. Kus,  A. Landau,  
 Jie Liu,  E. I. Proynov,  R. M. Richard,  R. P. Steele,  E. J. Sundstrom,  
 H. L. Woodcock III,  P. M. Zimmerman,  D. Zuev,  B. Albrecht,  E. Alguire,  
 S. A. Baeppler,  D. Barton,  Z. Benda,  Y. A. Bernard,  E. J. Berquist,  
 K. B. Bravaya,  H. Burton,  D. Casanova,  Chun-Min Chang,  Yunqing Chen,  
 A. Chien,  K. D. Closser,  M. P. Coons,  S. Coriani,  S. Dasgupta,  
 A. L. Dempwolff,  M. Diedenhofen,  Hainam Do,  R. G. Edgar,  Po-Tung Fang,  
 S. Faraji,  S. Fatehi,  Qingguo Feng,  K. D. Fenk,  J. Fosso-Tande,  
 J. Gayvert,  Qinghui Ge,  A. Ghysels,  G. Gidofalvi,  J. Gomes,  
 J. Gonthier,  A. Gunina,  D. Hait,  M. W. D. Hanson-Heine,  
 P. H. P. Harbach,  A. W. Hauser,  M. F. Herbst,  J. E. Herr,  
 E. G. Hohenstein,  Z. C. Holden,  Kerwin Hui,  B. C. Huynh,  T.-C. Jagau,  
 Hyunjun Ji,  B. Kaduk,  K. Khistyaev,  Jaehoon Kim,  P. Klunzinger,  K. Koh,  
 D. Kosenkov,  L. Koulias,  T. Kowalczyk,  C. M. Krauter,  A. Kunitsa,  
 Ka Un Lao,  A. Laurent,  K. V. Lawler,  Joonho Lee,  D. Lefrancois,  
 S. Lehtola,  D. S. Levine,  Yi-Pei Li,  You-Sheng Lin,  Fenglai Liu,  
 E. Livshits,  A. Luenser,  P. Manohar,  E. Mansoor,  S. F. Manzer,  
 Shan-Ping Mao,  Yuezhi Mao,  N. Mardirossian,  A. V. Marenich,  
 T. Markovich,  L. A. Martinez-Martinez,  S. A. Maurer,  N. J. Mayhall,  
 S. C. McKenzie,  J.-M. Mewes,  P. Morgante,  A. F. Morrison,  
 J. W. Mullinax,  K. Nanda,  T. S. Nguyen-Beck,  R. Olivares-Amaya,  
 J. A. Parkhill,  Zheng Pei,  T. M. Perrine,  F. Plasser,  P. Pokhilko,  
 S. Prager,  A. Prociuk,  E. Ramos,  D. R. Rehn,  F. Rob,  M. Scheurer,  
 M. Schneider,  N. Sergueev,  S. M. Sharada,  S. Sharma,  D. W. Small,  
 T. Stauch,  T. Stein,  Yu-Chuan Su,  A. J. W. Thom,  A. Tkatchenko,  
 T. Tsuchimochi,  N. M. Tubman,  L. Vogt,  M. L. Vidal,  O. Vydrov,  
 M. A. Watson,  J. Wenzel,  M. de Wergifosse,  T. A. Wesolowski,  A. White,  
 J. Witte,  A. Yamada,  Jun Yang,  K. Yao,  S. Yeganeh,  S. R. Yost,  
 Zhi-Qiang You,  A. Zech,  Igor Ying Zhang,  Xing Zhang,  Yan Zhao,  
 Ying Zhu,  B. R. Brooks,  G. K. L. Chan,  C. J. Cramer,  M. S. Gordon,  
 W. J. Hehre,  A. Klamt,  M. W. Schmidt,  C. D. Sherrill,  D. G. Truhlar,  
 A. Aspuru-Guzik,  R. Baer,  A. T. Bell,  N. A. Besley,  Jeng-Da Chai,  
 A. E. DePrince, III,  R. A. DiStasio Jr.,  A. Dreuw,  B. D. Dunietz,  
 T. R. Furlani,  Chao-Ping Hsu,  Yousung Jung,  Jing Kong,  D. S. Lambrecht,  
 WanZhen Liang,  C. Ochsenfeld,  V. A. Rassolov,  L. V. Slipchenko,  
 J. E. Subotnik,  T. Van Voorhis,  J. M. Herbert,  A. I. Krylov,  
 P. M. W. Gill,  M. Head-Gordon

 Contributors to earlier versions of Q-Chem not listed above: 
 R. D. Adamson,  B. Austin,  J. Baker,  G. J. O. Beran,  K. Brandhorst,  
 S. T. Brown,  E. F. C. Byrd,  A. K. Chakraborty,  C.-L. Cheng,  
 Siu Hung Chien,  D. M. Chipman,  D. L. Crittenden,  H. Dachsel,  
 R. J. Doerksen,  A. D. Dutoi,  L. Fusti-Molnar,  W. A. Goddard III,  
 A. Golubeva-Zadorozhnaya,  S. R. Gwaltney,  G. Hawkins,  A. Heyden,  
 S. Hirata,  G. Kedziora,  F. J. Keil,  C. Kelley,  Jihan Kim,  R. A. King,  
 R. Z. Khaliullin,  P. P. Korambath,  W. Kurlancheek,  A. M. Lee,  M. S. Lee,  
 S. V. Levchenko,  Ching Yeh Lin,  D. Liotard,  R. C. Lochan,  I. Lotan,  
 P. E. Maslen,  N. Nair,  D. P. O'Neill,  D. Neuhauser,  E. Neuscamman,  
 C. M. Oana,  R. Olson,  B. Peters,  R. Peverati,  P. A. Pieniazek,  
 Y. M. Rhee,  J. Ritchie,  M. A. Rohrdanz,  E. Rosta,  N. J. Russ,  
 H. F. Schaefer III,  N. E. Schultz,  N. Shenvi,  A. C. Simmonett,  A. Sodt,  
 D. Stuck,  K. S. Thanthiriwatte,  V. Vanovschi,  Tao Wang,  A. Warshel,  
 C. F. Williams,  Q. Wu,  X. Xu,  W. Zhang

 Please cite Q-Chem as follows:
 Y. Shao et al., Mol. Phys. 113, 184-215 (2015)
 DOI: 10.1080/00268976.2014.952696

 Q-Chem 5.2.0 for Intel X86 EM64T Linux

 Parts of Q-Chem use Armadillo 8.300.2 (Tropical Shenanigans).
 http://arma.sourceforge.net/

 Q-Chem begins on Sun Sep 26 08:20:52 2021  

Host: cori01
0

     Scratch files written to /tmp/qchem22486//Frg1//
 May1019 |scratch|qcdevops|jenkins|workspace|build_RNUM -1
Processing $rem in /global/common/cori/software/qchem/5.2/config/preferences:
	 MEM_TOTAL  96000 
NAlpha2: 32
NElect   32
Mult     1
Symmetry turned off for PCM/SM12/SMD calculation

Checking the input file for inconsistencies... 	...done.

--------------------------------------------------------------
User input:
--------------------------------------------------------------
$molecule
-1 1
 6	1.4974000966	2.9717920364	-1.8349647281
 6	0.6764000966	2.1717920364	-0.8189647281
 8	0.9894000966	2.2287920364	0.3920352719
 8	-0.2825999034	1.4837920364	-1.2349647281
 1	0.9114000966	3.0867920364	-2.7499647281
 1	2.3914000966	2.4027920364	-2.0979647281
 1	1.7826610966	3.9644720364	-1.4565247281
$end
$rem
EDA2		1
METHOD		WB97X-V
BASIS		DEF2-TZVPD
XC_GRID		000099000590
NL_GRID		1
UNRESTRICTED		FALSE
MAX_SCF_CYCLES		200
SYMMETRY		FALSE
SYM_IGNORE		TRUE
BASIS_LIN_DEP_THRESH		6
THRESH		14
SCF_CONVERGENCE		8
SCF_PRINT_FRGM		TRUE
SOLVENT_METHOD		PCM
!required keywords
JOBTYPE		SP
SYM_IGNORE		TRUE
SUBSYSTEM		TRUE
GEN_SCFMAN		TRUE
CHILD_INSTRUCTION		2
SYM_IGNORE		TRUE
SCFMI		0
RI_K 0		
PARI_K 0		
MIN_PARI_K 0		
IARI_K 0		
OCC_RI_K 0		
PURECART		1111
MEM_STATIC		2000
MEM_TOTAL		96000
GUI		0
CHILD_MP		1
CHILD_MP_ORDERS		232
FRZ_RELAX		0
FRZ_RELAX_METHOD		0
EDA_CLS_ELEC		1
EDA_CLS_DISP		0
FRZ_ORTHO_DECOMP		1
EDA2		FALSE
FRGM_METHOD		FALSE
CIS_N_ROOTS  0
LOCAL_CIS    0
CIS_RLX_DNS  1
$end
$pcm
THEORY                  CPCM
METHOD                  SWIG
SOLVER                  INVERSION
RADII                   UFF
HPOINTS                 302
HEAVYPOINTS             302
PRINTLEVEL              0
$end
$solvent
DIELECTRIC              78.390000 ! water
$end
--------------------------------------------------------------
 ----------------------------------------------------------------
             Standard Nuclear Orientation (Angstroms)
    I     Atom           X                Y                Z
 ----------------------------------------------------------------
    1      C       1.4974000966     2.9717920364    -1.8349647281
    2      C       0.6764000966     2.1717920364    -0.8189647281
    3      O       0.9894000966     2.2287920364     0.3920352719
    4      O      -0.2825999034     1.4837920364    -1.2349647281
    5      H       0.9114000966     3.0867920364    -2.7499647281
    6      H       2.3914000966     2.4027920364    -2.0979647281
    7      H       1.7826610966     3.9644720364    -1.4565247281
 ----------------------------------------------------------------
 Nuclear Repulsion Energy =         112.40787159 hartrees
 There are       16 alpha and       16 beta electrons
 Requested basis set is def2-TZVPD
 There are 69 shells and 181 basis functions

 Total QAlloc Memory Limit  96000 MB
 Mega-Array Size      1956 MB
 MEM_STATIC part      2000 MB
 Discretize the solute cavity surface with Lebedev spheres
	Using 302 Lebedev grid points for each H atom
	Using 302 Lebedev grid points for other atoms
	Atomic van der Waals radii will be scaled by 1.20
 Remove points where switching function is < 1.0e-08
 Keep 1012 surface tesserae and discard 1102 interior tesserae
 Molecular Surface Area = 120.283 Angst**2

                       Distance Matrix (Angstroms)
             C (  1)   C (  2)   O (  3)   O (  4)   H (  5)   H (  6)
   C (  2)  1.531763
   O (  3)  2.402008  1.252094
   O (  4)  2.396361  1.251432  2.195481
   H (  5)  1.092633  2.149700  3.257977  2.508081
   H (  6)  1.091864  2.151843  2.862862  2.956282  1.755950
   H (  7)  1.100002  2.200908  2.656882  3.235454  1.789526  1.794673

 
 A cutoff of  1.0D-14 yielded   2391 shell pairs
 There are     16695 function pairs (     21491 Cartesian)
 Smallest overlap matrix eigenvalue = 1.72E-05

 Scale SEOQF with 1.000000e-01/1.000000e-01/1.000000e-01

 Standard Electronic Orientation quadrupole field applied
 Nucleus-field energy     =     0.0000000078 hartrees
 Guess from superposition of atomic densities
 Warning:  Energy on first SCF cycle will be non-variational
 SAD guess density has 30.625312 electrons

 -----------------------------------------------------------------------
  General SCF calculation program by
  Eric Jon Sundstrom, Paul Horn, Yuezhi Mao, Dmitri Zuev, Alec White,
  David Stuck, Shaama M.S., Shane Yost, Joonho Lee, David Small,
  Daniel Levine, Susi Lehtola, Hugh Burton, Evgeny Epifanovsky
 -----------------------------------------------------------------------
 Exchange:     0.1670 Hartree-Fock + 1.0000 wB97X-V + LR-HF
 Correlation:  1.0000 wB97X-V
 Using Euler-Maclaurin-Lebedev (99,590) quadrature formula
 Nonlocal Correlation:  VV10 with C = 0.0100 and b = 6.00 and scale = 1.00000
 Grid used for NLC:  SG-1 standard quadrature
Energy prior to optimization (guess energy) = -227.762026060566
Begin Timing: Total SCF Calculation
begin iterations for algorithm: DIIS         
the SCF tolerance is set to 1.00e-08
    1    -227.7620260606      1.66e-02     00000 
    2    -225.5929376719      2.55e-02     00000 
    3    -228.5771407663      4.13e-03     00000 
    4    -228.6361095171      1.37e-03     00000 
    5    -228.6422003275      1.98e-04     00000 
    6    -228.6424412021      9.59e-05     00000 
    7    -228.6424651596      5.83e-05     00000 
    8    -228.6424764355      1.41e-05     00000 
    9    -228.6424777316      2.93e-06     00000 
   10    -228.6424778338      4.74e-07     00000 
   11    -228.6424778369      2.18e-07     00000 
   12    -228.6424778374      6.51e-08     00000 
   13    -228.6424778374      1.57e-08     00000 
   14    -228.6424778374      2.72e-09     00000 Convergence criterion met
Timing for Total SCF: 288.00s (wall), 562.89s (cpu)

************** Final PCM Free Energy Summary **************
 G_electrostatic  =      -0.10186318 hartree =     -63.92011287 kcal/mol
 G_cavitation     =       0.00000000 hartree =       0.00000000 kcal/mol
 G_dispersion     =       0.00000000 hartree =       0.00000000 kcal/mol
 G_repulsion      =       0.00000000 hartree =       0.00000000 kcal/mol
 --------------------------------------------------
 Non-electrostatic Free Energy =       0.00000000 hartree =       0.00000000 kcal/mol
 Total                         =      -0.10186318 hartree =     -63.92011287 kcal/mol
 --------------------------------------------------
 SCF Energy (H0 + V/2)                       =    -228.64247784 
 Solute Internal Energy (H0)                 =    -228.54061465 
 Total Free Energy (H0 + V/2 + non-elec)     =    -228.64247784 hartree
                                             = -143475.32031589 kcal/mol
***********************************************************

E_pcm = -0.1018631843
Multipole orders to be included
        2
        3
computing dipole RHS
computing quadrupole RHS
total number of RHS in solve_reponses: 8
RHS batch sizes
        8
Beginning Block Conjugate Gradient Iterations. Batch Number: 0
computing hessian-vector products by finite difference
              1      6.58e-01     00000 Conjugate Gradient Iteration
computing hessian-vector products by finite difference
              2      2.43e-01     00000 Conjugate Gradient Iteration
computing hessian-vector products by finite difference
              3      6.40e-02     00000 Conjugate Gradient Iteration
computing hessian-vector products by finite difference
              4      1.68e-02     00000 Conjugate Gradient Iteration
computing hessian-vector products by finite difference
              5      2.94e-03     00000 Conjugate Gradient Iteration
computing hessian-vector products by finite difference
              6      6.72e-04     00000 Conjugate Gradient Iteration
computing hessian-vector products by finite difference
              7      1.13e-04     00000 Conjugate Gradient Iteration
computing hessian-vector products by finite difference
              8      1.38e-05     00000 Conjugate Gradient Iteration
computing hessian-vector products by finite difference
              9      3.48e-06     00000 Conjugate Gradient Iteration
computing hessian-vector products by finite difference
             10      5.56e-07     00000 Conjugate Gradient Iteration
computing hessian-vector products by finite difference
             11      8.11e-08     00000 Conjugate Gradient Iteration
computing hessian-vector products by finite difference
             12      9.24e-09     00000 CG Converged
batch 0 complete
Done Calculating Responses
TESTING ORTHOGONALIZATION OF MULTIPOLE BASIS
Multipole virts passed orthogonality test
Virts Per Order
        48
        80
 
 --------------------------------------------------------------
 
                    Orbital Energies (a.u.)
 --------------------------------------------------------------
 
 Alpha MOs
 -- Occupied --
-19.1220 -19.1214 -10.3257 -10.2409  -1.1319  -1.0306  -0.8276  -0.5917
 -0.5286  -0.5174  -0.5145  -0.4628  -0.4442  -0.3288  -0.3261  -0.3081
 -- Virtual --
  0.0632   0.0955   0.0957   0.1054   0.1302   0.1409   0.1427   0.1458
  0.1681   0.1895   0.1998   0.2201   0.2327   0.2352   0.2629   0.2696
  0.2987   0.3111   0.3339   0.3480   0.3574   0.3628   0.3729   0.3781
  0.3878   0.4075   0.4250   0.4286   0.4316   0.4585   0.4731   0.4771
  0.4930   0.4965   0.5045   0.5211   0.5602   0.5808   0.5948   0.6113
  0.6301   0.6455   0.6477   0.6555   0.6688   0.6798   0.6949   0.7090
  0.7234   0.7341   0.7865   0.8002   0.8110   0.8184   0.8506   0.8536
  0.8649   0.9806   0.9943   1.0034   1.0092   1.0446   1.0684   1.1119
  1.1578   1.2326   1.2563   1.2707   1.2877   1.3127   1.3546   1.3743
  1.4403   1.5594   1.6051   1.7411   1.8257   1.8685   1.8830   1.9219
  1.9319   1.9498   1.9626   1.9754   2.0157   2.1070   2.1325   2.1943
  2.2066   2.2210   2.3157   2.3490   2.4183   2.4572   2.4823   2.4966
  2.5674   2.5838   2.6351   2.6484   2.7981   2.8119   2.8653   2.9151
  2.9446   3.0282   3.0771   3.1525   3.2258   3.2396   3.2830   3.2980
  3.3480   3.3620   3.3935   3.4096   3.4253   3.5364   3.5913   3.6028
  3.6133   3.6707   3.7110   3.7362   3.7562   3.8417   3.9653   4.0500
  4.0830   4.1997   4.3277   4.5415   4.6293   4.6643   4.8092   4.8281
  4.9931   5.3330   5.3595   5.3685   5.3763   5.4990   5.7110   5.7768
  5.8205   6.0264   6.2379   6.3382   6.3586   6.6201   6.6319   6.7241
  6.7482   6.7619   6.9497   6.9828   7.0458   7.2473   7.3450   7.3872
  7.4161  22.5766  23.7204  44.2202  44.3626
 --------------------------------------------------------------
 
          Ground-State Mulliken Net Atomic Charges

     Atom                 Charge (a.u.)
  ----------------------------------------
      1 C                    -0.410822
      2 C                     0.295414
      3 O                    -0.677173
      4 O                    -0.673335
      5 H                     0.158783
      6 H                     0.134847
      7 H                     0.172286
  ----------------------------------------
  Sum of atomic charges =    -1.000000

 -----------------------------------------------------------------
                    Cartesian Multipole Moments
 -----------------------------------------------------------------
    Charge (ESU x 10^10)
                -4.8032
    Dipole Moment (Debye)
         X      -0.8234      Y      -8.0822      Z       0.9023
       Tot       8.1740
    Quadrupole Moments (Debye-Ang)
        XX     -29.2109     XY      -3.4928     YY     -40.3455
        XZ      -4.5149     YZ      -1.1170     ZZ     -31.5059
    Octopole Moments (Debye-Ang^2)
       XXX     -63.2268    XXY     -67.1596    XYY     -30.4360
       YYY    -202.3379    XXZ      21.7035    XYZ      -7.9508
       YYZ      17.6233    XZZ     -18.2440    YZZ     -67.1092
       ZZZ      80.5776
    Hexadecapole Moments (Debye-Ang^3)
      XXXX    -208.6193   XXXY    -177.3585   XXYY    -202.8287
      XYYY    -192.4180   YYYY    -928.9436   XXXZ      56.1312
      XXYZ      56.1332   XYYZ       6.9232   YYYZ     157.8174
      XXZZ     -84.3955   XYZZ     -56.0678   YYZZ    -211.9548
      XZZZ      60.5765   YZZZ     189.9505   ZZZZ    -306.1520
 -----------------------------------------------------------------
Archival summary:
1\1\nid00506\SP\ProcedureUnspecified\BasisUnspecified\223(1-,1)\meili\SunSep2609:42:532021SunSep2609:42:532021\0\\#,ProcedureUnspecified,BasisUnspecified,\\-1,1\C\O,1,1.25143\O,1,1.25209,2,122.555\C,1,1.53176,2,118.514,3,179.906,0\H,4,1.09186,1,109.054,2,-97.2656,0\H,4,1.09263,1,108.842,2,19.1304,0\H,4,1.1,1,112.465,2,140.526,0\\\@

 Total job time:  4924.62s(wall), 9643.03s(cpu) 
 Sun Sep 26 09:42:57 2021

        *************************************************************
        *                                                           *
        *  Thank you very much for using Q-Chem.  Have a nice day.  *
        *                                                           *
        *************************************************************


Done Job For Fragment 0
calling putenv with: QCSCRATCH=/global/cscratch1/sd/meili 
calling putenv with: QCLOCALSCR=/tmp 
calling putenv with: QCTHREADS=32 
Creating input file /tmp/qchem22486/Frg2.input
using default PutDataFrgm: nothing
calling putenv with: QCSCRATCH=/tmp/qchem22486/ 
calling putenv with: QCLOCALSCR=/tmp/qchem22486/ 
Spawning Job For Fragment 1
                  Welcome to Q-Chem
     A Quantum Leap Into The Future Of Chemistry


 Q-Chem 5.2, Q-Chem, Inc., Pleasanton, CA (2019)

 License issued to: National Energy Research Scientific Computing Center

 Yihan Shao,  Zhengting Gan,  E. Epifanovsky,  A. T. B. Gilbert,  M. Wormit,  
 J. Kussmann,  A. W. Lange,  A. Behn,  Jia Deng,  Xintian Feng,  D. Ghosh,  
 M. Goldey,  P. R. Horn,  L. D. Jacobson,  I. Kaliman,  T. Kus,  A. Landau,  
 Jie Liu,  E. I. Proynov,  R. M. Richard,  R. P. Steele,  E. J. Sundstrom,  
 H. L. Woodcock III,  P. M. Zimmerman,  D. Zuev,  B. Albrecht,  E. Alguire,  
 S. A. Baeppler,  D. Barton,  Z. Benda,  Y. A. Bernard,  E. J. Berquist,  
 K. B. Bravaya,  H. Burton,  D. Casanova,  Chun-Min Chang,  Yunqing Chen,  
 A. Chien,  K. D. Closser,  M. P. Coons,  S. Coriani,  S. Dasgupta,  
 A. L. Dempwolff,  M. Diedenhofen,  Hainam Do,  R. G. Edgar,  Po-Tung Fang,  
 S. Faraji,  S. Fatehi,  Qingguo Feng,  K. D. Fenk,  J. Fosso-Tande,  
 J. Gayvert,  Qinghui Ge,  A. Ghysels,  G. Gidofalvi,  J. Gomes,  
 J. Gonthier,  A. Gunina,  D. Hait,  M. W. D. Hanson-Heine,  
 P. H. P. Harbach,  A. W. Hauser,  M. F. Herbst,  J. E. Herr,  
 E. G. Hohenstein,  Z. C. Holden,  Kerwin Hui,  B. C. Huynh,  T.-C. Jagau,  
 Hyunjun Ji,  B. Kaduk,  K. Khistyaev,  Jaehoon Kim,  P. Klunzinger,  K. Koh,  
 D. Kosenkov,  L. Koulias,  T. Kowalczyk,  C. M. Krauter,  A. Kunitsa,  
 Ka Un Lao,  A. Laurent,  K. V. Lawler,  Joonho Lee,  D. Lefrancois,  
 S. Lehtola,  D. S. Levine,  Yi-Pei Li,  You-Sheng Lin,  Fenglai Liu,  
 E. Livshits,  A. Luenser,  P. Manohar,  E. Mansoor,  S. F. Manzer,  
 Shan-Ping Mao,  Yuezhi Mao,  N. Mardirossian,  A. V. Marenich,  
 T. Markovich,  L. A. Martinez-Martinez,  S. A. Maurer,  N. J. Mayhall,  
 S. C. McKenzie,  J.-M. Mewes,  P. Morgante,  A. F. Morrison,  
 J. W. Mullinax,  K. Nanda,  T. S. Nguyen-Beck,  R. Olivares-Amaya,  
 J. A. Parkhill,  Zheng Pei,  T. M. Perrine,  F. Plasser,  P. Pokhilko,  
 S. Prager,  A. Prociuk,  E. Ramos,  D. R. Rehn,  F. Rob,  M. Scheurer,  
 M. Schneider,  N. Sergueev,  S. M. Sharada,  S. Sharma,  D. W. Small,  
 T. Stauch,  T. Stein,  Yu-Chuan Su,  A. J. W. Thom,  A. Tkatchenko,  
 T. Tsuchimochi,  N. M. Tubman,  L. Vogt,  M. L. Vidal,  O. Vydrov,  
 M. A. Watson,  J. Wenzel,  M. de Wergifosse,  T. A. Wesolowski,  A. White,  
 J. Witte,  A. Yamada,  Jun Yang,  K. Yao,  S. Yeganeh,  S. R. Yost,  
 Zhi-Qiang You,  A. Zech,  Igor Ying Zhang,  Xing Zhang,  Yan Zhao,  
 Ying Zhu,  B. R. Brooks,  G. K. L. Chan,  C. J. Cramer,  M. S. Gordon,  
 W. J. Hehre,  A. Klamt,  M. W. Schmidt,  C. D. Sherrill,  D. G. Truhlar,  
 A. Aspuru-Guzik,  R. Baer,  A. T. Bell,  N. A. Besley,  Jeng-Da Chai,  
 A. E. DePrince, III,  R. A. DiStasio Jr.,  A. Dreuw,  B. D. Dunietz,  
 T. R. Furlani,  Chao-Ping Hsu,  Yousung Jung,  Jing Kong,  D. S. Lambrecht,  
 WanZhen Liang,  C. Ochsenfeld,  V. A. Rassolov,  L. V. Slipchenko,  
 J. E. Subotnik,  T. Van Voorhis,  J. M. Herbert,  A. I. Krylov,  
 P. M. W. Gill,  M. Head-Gordon

 Contributors to earlier versions of Q-Chem not listed above: 
 R. D. Adamson,  B. Austin,  J. Baker,  G. J. O. Beran,  K. Brandhorst,  
 S. T. Brown,  E. F. C. Byrd,  A. K. Chakraborty,  C.-L. Cheng,  
 Siu Hung Chien,  D. M. Chipman,  D. L. Crittenden,  H. Dachsel,  
 R. J. Doerksen,  A. D. Dutoi,  L. Fusti-Molnar,  W. A. Goddard III,  
 A. Golubeva-Zadorozhnaya,  S. R. Gwaltney,  G. Hawkins,  A. Heyden,  
 S. Hirata,  G. Kedziora,  F. J. Keil,  C. Kelley,  Jihan Kim,  R. A. King,  
 R. Z. Khaliullin,  P. P. Korambath,  W. Kurlancheek,  A. M. Lee,  M. S. Lee,  
 S. V. Levchenko,  Ching Yeh Lin,  D. Liotard,  R. C. Lochan,  I. Lotan,  
 P. E. Maslen,  N. Nair,  D. P. O'Neill,  D. Neuhauser,  E. Neuscamman,  
 C. M. Oana,  R. Olson,  B. Peters,  R. Peverati,  P. A. Pieniazek,  
 Y. M. Rhee,  J. Ritchie,  M. A. Rohrdanz,  E. Rosta,  N. J. Russ,  
 H. F. Schaefer III,  N. E. Schultz,  N. Shenvi,  A. C. Simmonett,  A. Sodt,  
 D. Stuck,  K. S. Thanthiriwatte,  V. Vanovschi,  Tao Wang,  A. Warshel,  
 C. F. Williams,  Q. Wu,  X. Xu,  W. Zhang

 Please cite Q-Chem as follows:
 Y. Shao et al., Mol. Phys. 113, 184-215 (2015)
 DOI: 10.1080/00268976.2014.952696

 Q-Chem 5.2.0 for Intel X86 EM64T Linux

 Parts of Q-Chem use Armadillo 8.300.2 (Tropical Shenanigans).
 http://arma.sourceforge.net/

 Q-Chem begins on Sun Sep 26 09:43:03 2021  

Host: cori01
0

     Scratch files written to /tmp/qchem22486//Frg2//
 May1019 |scratch|qcdevops|jenkins|workspace|build_RNUM -1
Processing $rem in /global/common/cori/software/qchem/5.2/config/preferences:
	 MEM_TOTAL  96000 
NAlpha2: 50
NElect   50
Mult     1
Symmetry turned off for PCM/SM12/SMD calculation

Checking the input file for inconsistencies... 	...done.

--------------------------------------------------------------
User input:
--------------------------------------------------------------
$molecule
0 1
 6	1.9614000966	-1.2502079636	0.8540352719
 6	-0.0765999034	-1.5462079636	-0.5929647281
 6	0.4714000966	-1.3512079636	0.6720352719
 6	-1.4565999034	-1.6392079636	-0.7609647281
 6	-0.3795999034	-1.2632079636	1.7730352719
 6	-2.2975999034	-1.5482079636	0.3410352719
 6	-1.7585999034	-1.3622079636	1.6090352719
 1	0.5664000966	-1.6172079636	-1.4599647281
 1	-1.8735999034	-1.7822079636	-1.7499647281
 1	2.1944000966	-0.2492079636	1.2200352719
 1	2.4334000966	-1.3742079636	-0.1159647281
 1	0.0224000966	-1.1002079636	2.7630352719
 1	-3.3705999034	-1.6202079636	0.2120352719
 1	-2.4125999034	-1.2882079636	2.4690352719
 1	2.3591590966	-1.9903379636	1.5639552719
$end
$rem
EDA2		1
METHOD		WB97X-V
BASIS		DEF2-TZVPD
XC_GRID		000099000590
NL_GRID		1
UNRESTRICTED		FALSE
MAX_SCF_CYCLES		200
SYMMETRY		FALSE
SYM_IGNORE		TRUE
BASIS_LIN_DEP_THRESH		6
THRESH		14
SCF_CONVERGENCE		8
SCF_PRINT_FRGM		TRUE
SOLVENT_METHOD		PCM
!required keywords
JOBTYPE		SP
SYM_IGNORE		TRUE
SUBSYSTEM		TRUE
GEN_SCFMAN		TRUE
CHILD_INSTRUCTION		2
SYM_IGNORE		TRUE
SCFMI		0
RI_K 0		
PARI_K 0		
MIN_PARI_K 0		
IARI_K 0		
OCC_RI_K 0		
PURECART		1111
MEM_STATIC		2000
MEM_TOTAL		96000
GUI		0
CHILD_MP		1
CHILD_MP_ORDERS		232
FRZ_RELAX		0
FRZ_RELAX_METHOD		0
EDA_CLS_ELEC		1
EDA_CLS_DISP		0
FRZ_ORTHO_DECOMP		1
EDA2		FALSE
FRGM_METHOD		FALSE
CIS_N_ROOTS  0
LOCAL_CIS    0
CIS_RLX_DNS  1
$end
$pcm
THEORY                  CPCM
METHOD                  SWIG
SOLVER                  INVERSION
RADII                   UFF
HPOINTS                 302
HEAVYPOINTS             302
PRINTLEVEL              0
$end
$solvent
DIELECTRIC              78.390000 ! water
$end
--------------------------------------------------------------
 ----------------------------------------------------------------
             Standard Nuclear Orientation (Angstroms)
    I     Atom           X                Y                Z
 ----------------------------------------------------------------
    1      C       1.9614000966    -1.2502079636     0.8540352719
    2      C      -0.0765999034    -1.5462079636    -0.5929647281
    3      C       0.4714000966    -1.3512079636     0.6720352719
    4      C      -1.4565999034    -1.6392079636    -0.7609647281
    5      C      -0.3795999034    -1.2632079636     1.7730352719
    6      C      -2.2975999034    -1.5482079636     0.3410352719
    7      C      -1.7585999034    -1.3622079636     1.6090352719
    8      H       0.5664000966    -1.6172079636    -1.4599647281
    9      H      -1.8735999034    -1.7822079636    -1.7499647281
   10      H       2.1944000966    -0.2492079636     1.2200352719
   11      H       2.4334000966    -1.3742079636    -0.1159647281
   12      H       0.0224000966    -1.1002079636     2.7630352719
   13      H      -3.3705999034    -1.6202079636     0.2120352719
   14      H      -2.4125999034    -1.2882079636     2.4690352719
   15      H       2.3591590966    -1.9903379636     1.5639552719
 ----------------------------------------------------------------
 Nuclear Repulsion Energy =         269.96563522 hartrees
 There are       25 alpha and       25 beta electrons
 Requested basis set is def2-TZVPD
 There are 131 shells and 331 basis functions

 Total QAlloc Memory Limit  96000 MB
 Mega-Array Size      1956 MB
 MEM_STATIC part      2000 MB
 Discretize the solute cavity surface with Lebedev spheres
	Using 302 Lebedev grid points for each H atom
	Using 302 Lebedev grid points for other atoms
	Atomic van der Waals radii will be scaled by 1.20
 Remove points where switching function is < 1.0e-08
 Keep 1807 surface tesserae and discard 2723 interior tesserae
 Molecular Surface Area = 178.254 Angst**2

                       Distance Matrix (Angstroms)
             C (  1)   C (  2)   C (  3)   C (  4)   C (  5)   C (  6)
   C (  2)  2.516917
   C (  3)  1.504468  1.392320
   C (  4)  3.800299  1.393296  2.419425
   C (  5)  2.514957  2.402052  1.394326  2.778932
   C (  6)  4.300123  2.409398  2.795663  1.389232  2.410513
   C (  7)  3.797495  2.777010  2.418882  2.405168  1.392242  1.390302
   H (  8)  2.726776  1.081748  2.150629  2.140471  3.387111  3.383912
   H (  9)  4.665947  2.150245  3.398657  1.082801  3.861726  2.146349
   H ( 10)  1.090984  3.182235  2.117413  4.380213  2.821255  4.757952
   H ( 11)  1.085845  2.560706  2.114454  3.952006  3.390223  4.756205
   H ( 12)  2.725161  3.386953  2.153342  3.859603  1.080867  3.383665
   H ( 13)  5.383241  3.391745  3.878779  2.147204  3.392676  1.083122
   H ( 14)  4.662783  3.859962  3.398622  3.386744  2.148983  2.146907
   H ( 15)  1.099996  3.283668  2.183493  4.482027  2.841344  4.834916
             C (  7)   H (  8)   H (  9)   H ( 10)   H ( 11)   H ( 12)
   H (  8)  3.858680
   H (  9)  3.387109  2.462707
   H ( 10)  4.125082  3.421141  5.264942
   H ( 11)  4.533060  2.313239  4.624572  1.762851
   H ( 12)  2.138299  4.289167  4.942379  2.796897  3.765188
   H ( 13)  2.148655  4.277331  2.473196  5.819358  5.818463  4.276734
   H ( 14)  1.082955  4.941632  4.281883  4.885076  5.493026  2.459879
   H ( 15)  4.165635  3.535152  5.379743  1.782403  1.790882  2.773187
             H ( 13)   H ( 14)
   H ( 14)  2.474275
   H ( 15)  5.898714  4.907325
 
 A cutoff of  1.0D-14 yielded   8361 shell pairs
 There are     54497 function pairs (     69451 Cartesian)
 Smallest overlap matrix eigenvalue = 5.52E-07
 Linear dependence detected in AO basis
 Tighter screening thresholds may be required for diffuse basis sets
 Use S2THRESH > 14 and THRESH = 14 in case of SCF convergence issues
 Number of orthogonalized atomic orbitals = 330
 Maximum deviation from orthogonality = 3.660E-10

 Scale SEOQF with 1.000000e-01/1.000000e-01/1.000000e-01

 Standard Electronic Orientation quadrupole field applied
 Nucleus-field energy     =     0.0000000043 hartrees
 Guess from superposition of atomic densities
 Warning:  Energy on first SCF cycle will be non-variational
 SAD guess density has 49.913408 electrons

 -----------------------------------------------------------------------
  General SCF calculation program by
  Eric Jon Sundstrom, Paul Horn, Yuezhi Mao, Dmitri Zuev, Alec White,
  David Stuck, Shaama M.S., Shane Yost, Joonho Lee, David Small,
  Daniel Levine, Susi Lehtola, Hugh Burton, Evgeny Epifanovsky
 -----------------------------------------------------------------------
 Exchange:     0.1670 Hartree-Fock + 1.0000 wB97X-V + LR-HF
 Correlation:  1.0000 wB97X-V
 Using Euler-Maclaurin-Lebedev (99,590) quadrature formula
 Nonlocal Correlation:  VV10 with C = 0.0100 and b = 6.00 and scale = 1.00000
 Grid used for NLC:  SG-1 standard quadrature
Energy prior to optimization (guess energy) = -271.519961084190
Begin Timing: Total SCF Calculation
begin iterations for algorithm: DIIS         
the SCF tolerance is set to 1.00e-08
    1    -271.5199610842      1.97e-03     00000 
    2    -271.5591991705      1.26e-03     00000 
    3    -271.5814468781      1.39e-04     00000 
    4    -271.5818635321      4.84e-05     00000 
    5    -271.5818982131      1.61e-05     00000 
    6    -271.5819027570      3.92e-06     00000 
    7    -271.5819030714      1.81e-06     00000 
    8    -271.5819031281      3.71e-07     00000 
    9    -271.5819031321      8.30e-08     00000 
   10    -271.5819031325      4.56e-08     00000 
   11    -271.5819031326      1.97e-08     00000 
   12    -271.5819031327      5.38e-09     00000 Convergence criterion met
Timing for Total SCF: 1451.00s (wall), 2882.50s (cpu)

************** Final PCM Free Energy Summary **************
 G_electrostatic  =      -0.00249986 hartree =      -1.56868793 kcal/mol
 G_cavitation     =       0.00000000 hartree =       0.00000000 kcal/mol
 G_dispersion     =       0.00000000 hartree =       0.00000000 kcal/mol
 G_repulsion      =       0.00000000 hartree =       0.00000000 kcal/mol
 --------------------------------------------------
 Non-electrostatic Free Energy =       0.00000000 hartree =       0.00000000 kcal/mol
 Total                         =      -0.00249986 hartree =      -1.56868793 kcal/mol
 --------------------------------------------------
 SCF Energy (H0 + V/2)                       =    -271.58190313 
 Solute Internal Energy (H0)                 =    -271.57940327 
 Total Free Energy (H0 + V/2 + non-elec)     =    -271.58190313 hartree
                                             = -170420.21636795 kcal/mol
***********************************************************

E_pcm = -0.0024998633
Multipole orders to be included
        2
        3
computing dipole RHS
computing quadrupole RHS
total number of RHS in solve_reponses: 8
RHS batch sizes
        8
Beginning Block Conjugate Gradient Iterations. Batch Number: 0
computing hessian-vector products by finite difference
              1      5.86e-01     00000 Conjugate Gradient Iteration
computing hessian-vector products by finite difference
              2      1.95e-01     00000 Conjugate Gradient Iteration
computing hessian-vector products by finite difference
              3      4.48e-02     00000 Conjugate Gradient Iteration
computing hessian-vector products by finite difference
              4      1.07e-02     00000 Conjugate Gradient Iteration
computing hessian-vector products by finite difference
              5      2.61e-03     00000 Conjugate Gradient Iteration
computing hessian-vector products by finite difference
              6      7.28e-04     00000 Conjugate Gradient Iteration
computing hessian-vector products by finite difference
              7      2.01e-04     00000 Conjugate Gradient Iteration
computing hessian-vector products by finite difference
              8      2.99e-05     00000 Conjugate Gradient Iteration
computing hessian-vector products by finite difference
              9      3.58e-06     00000 Conjugate Gradient Iteration
computing hessian-vector products by finite difference
             10      6.68e-07     00000 Conjugate Gradient Iteration
computing hessian-vector products by finite difference
             11      1.20e-07     00000 Conjugate Gradient Iteration
computing hessian-vector products by finite difference
             12      1.54e-08     00000 Conjugate Gradient Iteration
computing hessian-vector products by finite difference
             13      2.65e-09     00000 CG Converged
batch 0 complete
Done Calculating Responses
TESTING ORTHOGONALIZATION OF MULTIPOLE BASIS
Multipole virts passed orthogonality test
Virts Per Order
           75
          124
 
 --------------------------------------------------------------
 
                    Orbital Energies (a.u.)
 --------------------------------------------------------------
 
 Alpha MOs
 -- Occupied --
-10.2821 -10.2734 -10.2732 -10.2701 -10.2700 -10.2696 -10.2623  -0.9979
 -0.9080  -0.8793  -0.8139  -0.7307  -0.7060  -0.6300  -0.5751  -0.5670
 -0.5359  -0.5303  -0.5142  -0.4902  -0.4736  -0.4423  -0.4406  -0.3495
 -0.3382
 -- Virtual --
  0.0623   0.0631   0.0694   0.0790   0.0844   0.1043   0.1100   0.1130
  0.1354   0.1540   0.1648   0.1739   0.1804   0.1907   0.1935   0.1979
  0.2224   0.2284   0.2335   0.2412   0.2448   0.2553   0.2588   0.2706
  0.2797   0.2830   0.2874   0.2899   0.2932   0.3004   0.3012   0.3119
  0.3229   0.3251   0.3278   0.3407   0.3518   0.3526   0.3675   0.3708
  0.3725   0.3800   0.3861   0.3921   0.3931   0.3975   0.3996   0.4036
  0.4141   0.4252   0.4301   0.4368   0.4425   0.4466   0.4517   0.4615
  0.4670   0.4726   0.4789   0.4861   0.4964   0.4998   0.5070   0.5089
  0.5145   0.5198   0.5281   0.5435   0.5462   0.5505   0.5608   0.5636
  0.5704   0.5726   0.5872   0.5934   0.5988   0.6250   0.6335   0.6423
  0.6664   0.6787   0.6828   0.6852   0.6927   0.7025   0.7190   0.7252
  0.7287   0.7353   0.7426   0.7622   0.7641   0.7648   0.7730   0.7801
  0.7864   0.7924   0.7934   0.8026   0.8138   0.8239   0.8252   0.8266
  0.8332   0.8352   0.8495   0.8561   0.8645   0.8694   0.8747   0.8974
  0.9163   0.9263   0.9405   0.9463   0.9535   1.0024   1.0349   1.0387
  1.0525   1.0551   1.0639   1.0752   1.0906   1.1003   1.1010   1.1416
  1.1605   1.1705   1.2637   1.2754   1.2946   1.3298   1.3551   1.3592
  1.3735   1.4418   1.4527   1.4601   1.4643   1.4668   1.5289   1.5361
  1.6069   1.6122   1.6217   1.6311   1.6370   1.6795   1.7329   1.7660
  1.7813   1.7897   1.8074   1.8135   1.8355   1.8430   1.8828   1.9112
  1.9151   1.9214   1.9287   1.9723   1.9886   1.9905   2.0127   2.0272
  2.0349   2.0413   2.0691   2.0833   2.1049   2.1227   2.1714   2.1939
  2.2008   2.2311   2.2498   2.2747   2.2903   2.3132   2.3797   2.3991
  2.4082   2.4279   2.4535   2.5181   2.5480   2.5551   2.5620   2.5943
  2.6136   2.6508   2.6625   2.6767   2.7024   2.7094   2.7672   2.7730
  2.7785   2.8041   2.8109   2.8458   2.8623   2.8951   2.9111   2.9169
  2.9307   2.9378   2.9801   2.9836   2.9936   3.0111   3.0233   3.0523
  3.0563   3.0828   3.0950   3.1380   3.1584   3.1871   3.1948   3.2153
  3.2263   3.2628   3.2706   3.2848   3.3517   3.3549   3.3686   3.3794
  3.4169   3.4256   3.4407   3.4507   3.4562   3.4806   3.4881   3.4918
  3.5052   3.5370   3.5395   3.5458   3.5524   3.5662   3.5748   3.6076
  3.6246   3.6403   3.6584   3.6980   3.7221   3.7533   3.7587   3.8102
  3.8552   3.9050   3.9391   3.9443   3.9555   3.9881   4.0321   4.0552
  4.1308   4.2066   4.2672   4.2733   4.2824   4.3088   4.3243   4.3448
  4.3622   4.3738   4.3923   4.4034   4.4160   4.4498   4.4943   4.5417
  4.5971   4.6078   4.7901   4.7958   4.8148   4.8341   4.9154   4.9458
  5.0251   5.0434   5.1676   5.2672   5.3693   5.3920   5.4959   5.5331
  5.6713   5.8503  22.5842  22.6881  22.8900  22.9014  23.0113  23.0774
 23.4232
 --------------------------------------------------------------
 
          Ground-State Mulliken Net Atomic Charges

     Atom                 Charge (a.u.)
  ----------------------------------------
      1 C                    -1.011543
      2 C                    -0.410196
      3 C                     0.874689
      4 C                    -0.532320
      5 C                    -0.298442
      6 C                    -0.469142
      7 C                    -0.455104
      8 H                     0.275850
      9 H                     0.308068
     10 H                     0.223431
     11 H                     0.269464
     12 H                     0.344757
     13 H                     0.332188
     14 H                     0.309916
     15 H                     0.238385
  ----------------------------------------
  Sum of atomic charges =     0.000000

 -----------------------------------------------------------------
                    Cartesian Multipole Moments
 -----------------------------------------------------------------
    Charge (ESU x 10^10)
                 0.0000
    Dipole Moment (Debye)
         X       0.4768      Y       0.0872      Z       0.0976
       Tot       0.4944
    Quadrupole Moments (Debye-Ang)
        XX     -38.6278     XY      -0.2710     YY     -46.4253
        XZ       0.2961     YZ       0.9059     ZZ     -38.2022
    Octopole Moments (Debye-Ang^2)
       XXX      44.5465    XXY      53.4848    XYY      23.5190
       YYY     198.0205    XXZ     -21.7518    XYZ      -1.4130
       YYZ     -27.8511    XZZ      15.8393    YZZ      54.7995
       ZZZ     -65.6953
    Hexadecapole Moments (Debye-Ang^3)
      XXXX    -632.5104   XXXY     -78.7953   XXYY    -205.6980
      XYYY    -117.7313   YYYY    -632.1785   XXXZ       6.4787
      XXYZ      26.7034   XYYZ      12.6088   YYYZ      94.8430
      XXZZ    -161.8132   XYZZ     -29.4808   YYZZ    -160.9153
      XZZZ       8.6063   YZZZ      82.0251   ZZZZ    -361.6552
 -----------------------------------------------------------------
Archival summary:
1\1\nid00506\SP\ProcedureUnspecified\BasisUnspecified\78\meili\SunSep2617:56:382021SunSep2617:56:382021\0\\#,ProcedureUnspecified,BasisUnspecified,\\0,1\C\C,1,1.39232\H,2,1.08175,1,120.227\C,2,1.3933,1,120.579,3,-179.371,0\H,4,1.0828,2,120.025,1,179.463,0\C,4,1.38923,2,119.972,1,-0.527857,0\H,6,1.08312,4,120.058,2,179.993,0\C,6,1.3903,4,119.837,2,0.105732,0\H,8,1.08296,6,119.953,4,179.827,0\C,8,1.39224,6,120.063,4,0.202696,0\H,10,1.08087,8,119.144,6,178.866,0\C,1,1.50447,2,120.605,3,-0.606733,0\H,12,1.08585,1,108.347,2,-1.13362,0\H,12,1.09098,1,108.282,2,115.953,0\H,12,1.1,1,113.018,2,-123.34,0\\\@

 Total job time:  29620.09s(wall), 58692.70s(cpu) 
 Sun Sep 26 17:56:43 2021

        *************************************************************
        *                                                           *
        *  Thank you very much for using Q-Chem.  Have a nice day.  *
        *                                                           *
        *************************************************************


Done Job For Fragment 1
calling putenv with: QCSCRATCH=/global/cscratch1/sd/meili 
calling putenv with: QCLOCALSCR=/tmp 
calling putenv with: QCTHREADS=32 
Doing General SCFMI
 Exchange:     0.1670 Hartree-Fock + 1.0000 wB97X-V + LR-HF
 Correlation:  1.0000 wB97X-V
 Using Euler-Maclaurin-Lebedev (99,590) quadrature formula
 Nonlocal Correlation:  VV10 with C = 0.0100 and b = 6.00 and scale = 1.00000
 Grid used for NLC:  SG-1 standard quadrature
performing fock build before subrot guess so that all methods have access
Printing subrot_rss_gen Method Specification:
Occupied Subspace Method is 0
Virtual Subspace Method is 0
Energy of the unrelaxed supersystem initial determinant -500.114092299849
performing fock build before subrot guess so that all methods have access
Printing subrot_rss_gen Method Specification:
Occupied Subspace Method is 0
Virtual Subspace Method is 0
Energy of the unrelaxed supersystem initial determinant w/ solvent -500.216645485540
write pseudocanon occs and virts to disk
write pseudocanon orbital energies to disk
Tolerance of ortho_decomp_scf: 1.00e-06
GDM subspace size: 20
Beginning the Orthogonal Decomposition of the Initial Supersystem Wavefunction
    1    -500.0880199403      5.13e-02     ortho_decomp Preconditoned Steepest Descent
    2    -500.0952229532      1.62e-03     ortho_decomp BFGS Step
    3    -500.0952565782      1.07e-04     ortho_decomp BFGS Step
    4    -500.0952566110      4.24e-06     ortho_decomp BFGS Step
    5    -500.0952566112      1.69e-07     ortho_decomp 00000 Convergence criterion met
 Hartree-Fock
 Hartree-Fock
 Hartree-Fock
Doing General SCFMI
 Exchange:     0.1670 Hartree-Fock + 1.0000 wB97X-V + LR-HF
 Correlation:  1.0000 wB97X-V
 Using Euler-Maclaurin-Lebedev (99,590) quadrature formula
 Nonlocal Correlation:  VV10 with C = 0.0100 and b = 6.00 and scale = 1.00000
 Grid used for NLC:  SG-1 standard quadrature
performing fock build at end of subrot_r(subrot) constructor so that all methods have access
<S^2> of initial wavefunction before polarization iterations 0.0000000000
Beginning iterations for the determination of the polarized wavefunction
Energy prior to optimization (guess energy) = -500.216645485540
Begin Timing: Total SCF Calculation
begin iterations for algorithm: DIIS         
the SCF tolerance is set to 1.00e-08
    1    -500.2166454855      1.86e-04     00000 
    2    -500.2183861762      1.37e-04     00000 
    3    -500.2189761529      3.83e-05     00000 
    4    -500.2190390524      1.80e-05     00000 
    5    -500.2190568205      8.32e-06     00000 
    6    -500.2190608018      3.25e-06     00000 
    7    -500.2190616587      1.23e-06     00000 
    8    -500.2190617768      4.85e-07     00000 
    9    -500.2190618060      2.45e-07     00000 
   10    -500.2190618120      8.21e-08     00000 
   11    -500.2190618130      2.76e-08     00000 
   12    -500.2190618131      1.13e-08     00000 
   13    -500.2190618131      4.13e-09     00000 Convergence criterion met
write pseudocanon occs and virts to disk
write pseudocanon orbital energies to disk
Timing for Total SCF: 5347.00s (wall), 10633.70s (cpu)
<S^2> of polarized wavefunction after polarization iterations 0.0000000000
relaxing scfmi constraint to allow all rotations in the entire AO span
Doing General SCFMI
 Exchange:     0.1670 Hartree-Fock + 1.0000 wB97X-V + LR-HF
 Correlation:  1.0000 wB97X-V
 Using Euler-Maclaurin-Lebedev (99,590) quadrature formula
 Nonlocal Correlation:  VV10 with C = 0.0100 and b = 6.00 and scale = 1.00000
 Grid used for NLC:  SG-1 standard quadrature
performing fock build at end of subrot_r(subrot) constructor so that all methods have access
<S^2> of polarized wavefunction before ct-allowed iterations 0.0000000000
Beginning iterations for the determination of the CT-Allowed wavefunction
Energy prior to optimization (guess energy) = -500.219061813099
Begin Timing: Total SCF Calculation
begin iterations for algorithm: DIIS         
the SCF tolerance is set to 1.00e-08
    1    -500.2190618131      7.07e-05     00000 
    2    -500.2197540721      8.07e-06     00000 
    3    -500.2197861978      2.18e-06     00000 
    4    -500.2197880077      1.99e-06     00000 
    5    -500.2197884307      2.72e-07     00000 
    6    -500.2197884524      1.85e-07     00000 
    7    -500.2197884569      5.14e-08     00000 
    8    -500.2197884573      1.37e-08     00000 
    9    -500.2197884573      4.03e-09     00000 Convergence criterion met
write pseudocanon occs and virts to disk
write pseudocanon orbital energies to disk
Timing for Total SCF: 3653.00s (wall), 7239.60s (cpu)
<S^2> of ct_allowed wavefunction after ct-allowed iterations 0.0000000000

================================
        Results of EDA2         
================================
Basic EDA Quantities
--------------------
Fragment Energies (Ha):
1 -228.6424778374
2 -271.5819031327
--------------------
  E_prp (kJ/mol) = 0.0000
  E_sol (kJ/mol) = 4.7518
  E_frz (kJ/mol) = 15.5579
  E_pol (kJ/mol) = -6.3441
  E_vct (kJ/mol) = -1.9078
  E_int (kJ/mol) = 12.0578
--------------------


Initial Wavefunction Decomposition
--------------------
  --------------------
  Orthogonal Fragment Subspace Decomposition:
  --------------------
     E_elec   (ELEC)   (kJ/mol) = -14.5096
     E_pauli  (PAULI)  (kJ/mol) = 50.6744
     E_disp   (DISP)   (kJ/mol) = -20.6069
     --------------------
     Terms summing to E_pauli:
     --------------------
        E_kep_pauli       (kJ/mol) = 65.0116
        E_disp_free_pauli (kJ/mol) = -14.3372
  --------------------
  Classical Frozen Decomposition:
  --------------------
     E_cls_elec  (CLS ELEC)  (kJ/mol) = 12.9959
     E_cls_pauli (CLS PAULI) (kJ/mol) = 2.5620
    [E_mod_pauli (MOD PAULI) (kJ/mol) = 23.1689 (CLS PAULI - DISP from orthogonal decomposition) ]
  --------------------
--------------------

Simplified EDA Summary (kJ/mol)
--------------------
 PREPARATION     0.0000
 SOLVATION       4.7518
 FROZEN          36.1648      (does not include dispersion)
[PAULI           50.6744]     (if this is negligible, then frozen describes electrostatics)
 DISPERSION      -20.6069
 POLARIZATION    -6.3441
 CHARGE TRANSFER -1.9078
 TOTAL           12.0578     (PRP + SOL + FRZ + DISP + POL + CT)
--------------------
 
 --------------------------------------------------------------
 
                    Orbital Energies (a.u.)
 --------------------------------------------------------------
 
 Alpha MOs
 -- Occupied --
-19.1146 -19.1130 -10.3183 -10.2694 -10.2635 -10.2616 -10.2602 -10.2591
-10.2575 -10.2515 -10.2377  -1.1239  -1.0228  -0.9856  -0.8965  -0.8678
 -0.8240  -0.8030  -0.7199  -0.6953  -0.6200  -0.5861  -0.5641  -0.5574
 -0.5283  -0.5201  -0.5193  -0.5122  -0.5081  -0.5038  -0.4802  -0.4644
 -0.4544  -0.4381  -0.4320  -0.4299  -0.3387  -0.3282  -0.3191  -0.3133
 -0.3000
 -- Virtual --
  0.0603   0.0718   0.0760   0.0783   0.0808   0.0860   0.1009   0.1045
  0.1094   0.1128   0.1146   0.1336   0.1381   0.1417   0.1454   0.1532
  0.1556   0.1663   0.1758   0.1847   0.1921   0.1998   0.2011   0.2132
  0.2164   0.2218   0.2238   0.2362   0.2409   0.2476   0.2530   0.2554
  0.2571   0.2671   0.2710   0.2777   0.2812   0.2837   0.2876   0.2941
  0.2952   0.3004   0.3015   0.3105   0.3144   0.3182   0.3233   0.3267
  0.3274   0.3413   0.3423   0.3518   0.3528   0.3591   0.3610   0.3641
  0.3684   0.3714   0.3786   0.3805   0.3842   0.3886   0.3910   0.3952
  0.3975   0.4028   0.4080   0.4130   0.4177   0.4196   0.4261   0.4354
  0.4377   0.4413   0.4434   0.4468   0.4518   0.4553   0.4592   0.4625
  0.4681   0.4704   0.4775   0.4817   0.4843   0.4874   0.4922   0.4965
  0.5034   0.5103   0.5111   0.5186   0.5223   0.5270   0.5315   0.5368
  0.5414   0.5423   0.5578   0.5592   0.5640   0.5731   0.5754   0.5828
  0.5887   0.5926   0.5942   0.6050   0.6096   0.6141   0.6183   0.6267
  0.6339   0.6370   0.6477   0.6519   0.6630   0.6709   0.6776   0.6821
  0.6843   0.6917   0.6981   0.7014   0.7130   0.7184   0.7216   0.7280
  0.7339   0.7391   0.7479   0.7493   0.7506   0.7634   0.7665   0.7669
  0.7788   0.7822   0.7837   0.7867   0.7970   0.7987   0.8018   0.8107
  0.8127   0.8211   0.8247   0.8338   0.8355   0.8381   0.8423   0.8451
  0.8468   0.8539   0.8571   0.8676   0.8746   0.8777   0.8841   0.8884
  0.8935   0.8983   0.9052   0.9315   0.9359   0.9484   0.9566   0.9633
  0.9678   0.9838   0.9907   1.0089   1.0151   1.0251   1.0316   1.0417
  1.0533   1.0616   1.0678   1.0738   1.0832   1.0996   1.1124   1.1144
  1.1284   1.1339   1.1509   1.1632   1.1746   1.1891   1.2010   1.2237
  1.2346   1.2437   1.2672   1.2919   1.3177   1.3278   1.3341   1.3412
  1.3613   1.3798   1.3877   1.3928   1.4065   1.4106   1.4136   1.4360
  1.4471   1.4687   1.4807   1.4851   1.5019   1.5332   1.5493   1.5561
  1.5834   1.6116   1.6346   1.6476   1.6600   1.6708   1.6782   1.7030
  1.7553   1.7831   1.7899   1.7984   1.8113   1.8133   1.8354   1.8406
  1.8880   1.9000   1.9003   1.9261   1.9320   1.9389   1.9422   1.9574
  1.9641   1.9815   1.9832   1.9996   2.0100   2.0166   2.0282   2.0341
  2.0452   2.0535   2.0580   2.0690   2.0702   2.0833   2.0992   2.1082
  2.1191   2.1474   2.1651   2.1854   2.1954   2.2095   2.2166   2.2311
  2.2512   2.2574   2.2771   2.2963   2.3055   2.3081   2.3379   2.3516
  2.3647   2.4006   2.4055   2.4291   2.4407   2.4724   2.4773   2.4907
  2.5243   2.5275   2.5611   2.5690   2.5736   2.5826   2.5924   2.6037
  2.6231   2.6350   2.6577   2.6636   2.6900   2.6975   2.6987   2.7062
  2.7292   2.7479   2.7866   2.7953   2.8240   2.8284   2.8471   2.8614
  2.8644   2.8682   2.8801   2.8958   2.9242   2.9336   2.9444   2.9552
  2.9678   2.9793   2.9949   2.9982   3.0019   3.0230   3.0374   3.0580
  3.0799   3.0894   3.0984   3.1080   3.1180   3.1674   3.1748   3.1775
  3.1982   3.2183   3.2469   3.2503   3.2569   3.2809   3.3016   3.3089
  3.3124   3.3256   3.3321   3.3450   3.3748   3.3841   3.3927   3.3998
  3.4219   3.4255   3.4278   3.4461   3.4595   3.4673   3.4709   3.4826
  3.4935   3.5030   3.5113   3.5213   3.5293   3.5460   3.5623   3.5686
  3.5738   3.5840   3.5904   3.6089   3.6178   3.6287   3.6412   3.6479
  3.6602   3.6642   3.6889   3.7039   3.7177   3.7357   3.7397   3.7506
  3.7711   3.7828   3.8029   3.8192   3.8326   3.8708   3.8888   3.9437
  3.9589   3.9690   3.9839   4.0043   4.0274   4.0497   4.0811   4.0952
  4.1101   4.1476   4.2190   4.2263   4.2843   4.2925   4.3133   4.3333
  4.3533   4.3596   4.3670   4.3772   4.3976   4.4106   4.4266   4.4366
  4.4717   4.5122   4.5633   4.5683   4.6286   4.6448   4.6560   4.6873
  4.8081   4.8124   4.8314   4.8513   4.8549   4.9065   4.9411   4.9727
  5.0275   5.0479   5.0638   5.1850   5.2855   5.3526   5.3778   5.3837
  5.3871   5.4005   5.4054   5.5093   5.5201   5.5492   5.6890   5.7282
  5.7983   5.8338   5.8643   6.0540   6.2749   6.3666   6.3933   6.6575
  6.7125   6.7842   6.8029   6.8203   6.9813   7.0480   7.0785   7.2803
  7.3692   7.4352   7.4646  22.5935  22.6519  22.7265  22.9239  22.9420
 23.0545  23.1071  23.4419  23.7724  44.3521  44.4374
 --------------------------------------------------------------
 
          Ground-State Mulliken Net Atomic Charges

     Atom                 Charge (a.u.)
  ----------------------------------------
      1 C                    -0.550338
      2 C                     0.395037
      3 O                    -0.692682
      4 O                    -0.655177
      5 H                     0.180400
      6 H                     0.137138
      7 H                     0.190448
      8 C                    -1.159200
      9 C                    -0.214261
     10 C                     1.068323
     11 C                    -0.560948
     12 C                    -0.370578
     13 C                    -0.515834
     14 C                    -0.528339
     15 H                     0.274078
     16 H                     0.295703
     17 H                     0.174071
     18 H                     0.263955
     19 H                     0.339411
     20 H                     0.332599
     21 H                     0.314388
     22 H                     0.281807
  ----------------------------------------
  Sum of atomic charges =    -1.000000

 -----------------------------------------------------------------
                    Cartesian Multipole Moments
 -----------------------------------------------------------------
    Charge (ESU x 10^10)
                -4.8032
    Dipole Moment (Debye)
         X      -0.1825      Y      -7.5890      Z       0.7120
       Tot       7.6245
    Quadrupole Moments (Debye-Ang)
        XX     -69.8850     XY      -4.4629     YY     -90.0876
        XZ      -3.7941     YZ       0.6702     ZZ     -71.1995
    Octopole Moments (Debye-Ang^2)
       XXX     -17.1832    XXY     -11.1472    XYY      -7.1490
       YYY      -2.7371    XXZ      -0.9968    XYZ      -8.9202
       YYZ      -9.8861    XZZ      -1.9824    YZZ     -11.4059
       ZZZ      13.5195
    Hexadecapole Moments (Debye-Ang^3)
      XXXX    -863.0681   XXXY    -261.8984   XXYY    -420.7563
      XYYY    -318.4036   YYYY   -1595.3481   XXXZ      64.7331
      XXYZ      86.3926   XYYZ      20.7600   YYYZ     258.9156
      XXZZ    -252.7093   XYZZ     -88.1550   YYZZ    -382.6291
      XZZZ      71.7890   YZZZ     278.5153   ZZZZ    -681.5917
 -----------------------------------------------------------------
Archival summary:
1\1\nid00506\SP\ProcedureUnspecified\BasisUnspecified\2911(1-,1)\meili\SunSep2622:16:532021SunSep2622:16:532021\0\\#,ProcedureUnspecified,BasisUnspecified,\\-1,1\O\C,1,1.25143\O,2,1.25209,1,122.555\C,2,1.53176,1,118.514,3,179.906,0\H,4,1.09186,2,109.054,1,-97.2656,0\H,4,1.09263,2,108.842,1,19.1304,0\H,4,1.1,2,112.465,1,140.526,0\H,3,2.87717,2,110.11,1,72.2043,0\C,8,1.09098,3,127.174,2,-33.0196,0\H,9,1.08585,8,108.157,3,77.4147,0\H,9,1.1,8,108.882,3,-163.039,0\C,9,1.50447,8,108.282,3,-39.7935,0\C,12,1.39232,9,120.605,8,115.953,0\H,13,1.08175,12,120.227,9,-0.606733,0\C,13,1.3933,12,120.579,9,-179.978,0\H,15,1.0828,13,120.025,12,179.463,0\C,15,1.38923,13,119.972,12,-0.527857,0\H,17,1.08312,15,120.058,13,179.993,0\C,17,1.3903,15,119.837,13,0.105732,0\H,19,1.08296,17,119.953,15,179.827,0\C,19,1.39224,17,120.063,15,0.202696,0\H,21,1.08087,19,119.144,17,178.866,0\\\@

 Total job time:  50170.78s(wall), 31055.69s(cpu) 
 Sun Sep 26 22:16:57 2021

        *************************************************************
        *                                                           *
        *  Thank you very much for using Q-Chem.  Have a nice day.  *
        *                                                           *
        *************************************************************


