
Running Job 1 of 1 SSI-004ARG-095TYR-2_PCM_TZVPD.in
qchem SSI-004ARG-095TYR-2_PCM_TZVPD.in_26355.0 /tmp/qchem26355/ 0
/global/common/cori/software/qchem/5.2/exe/qcprog.exe_s SSI-004ARG-095TYR-2_PCM_TZVPD.in_26355.0 /tmp/qchem26355/
                  Welcome to Q-Chem
     A Quantum Leap Into The Future Of Chemistry


 Q-Chem 5.2, Q-Chem, Inc., Pleasanton, CA (2019)

 License issued to: National Energy Research Scientific Computing Center

 Yihan Shao,  Zhengting Gan,  E. Epifanovsky,  A. T. B. Gilbert,  M. Wormit,  
 J. Kussmann,  A. W. Lange,  A. Behn,  Jia Deng,  Xintian Feng,  D. Ghosh,  
 M. Goldey,  P. R. Horn,  L. D. Jacobson,  I. Kaliman,  T. Kus,  A. Landau,  
 Jie Liu,  E. I. Proynov,  R. M. Richard,  R. P. Steele,  E. J. Sundstrom,  
 H. L. Woodcock III,  P. M. Zimmerman,  D. Zuev,  B. Albrecht,  E. Alguire,  
 S. A. Baeppler,  D. Barton,  Z. Benda,  Y. A. Bernard,  E. J. Berquist,  
 K. B. Bravaya,  H. Burton,  D. Casanova,  Chun-Min Chang,  Yunqing Chen,  
 A. Chien,  K. D. Closser,  M. P. Coons,  S. Coriani,  S. Dasgupta,  
 A. L. Dempwolff,  M. Diedenhofen,  Hainam Do,  R. G. Edgar,  Po-Tung Fang,  
 S. Faraji,  S. Fatehi,  Qingguo Feng,  K. D. Fenk,  J. Fosso-Tande,  
 J. Gayvert,  Qinghui Ge,  A. Ghysels,  G. Gidofalvi,  J. Gomes,  
 J. Gonthier,  A. Gunina,  D. Hait,  M. W. D. Hanson-Heine,  
 P. H. P. Harbach,  A. W. Hauser,  M. F. Herbst,  J. E. Herr,  
 E. G. Hohenstein,  Z. C. Holden,  Kerwin Hui,  B. C. Huynh,  T.-C. Jagau,  
 Hyunjun Ji,  B. Kaduk,  K. Khistyaev,  Jaehoon Kim,  P. Klunzinger,  K. Koh,  
 D. Kosenkov,  L. Koulias,  T. Kowalczyk,  C. M. Krauter,  A. Kunitsa,  
 Ka Un Lao,  A. Laurent,  K. V. Lawler,  Joonho Lee,  D. Lefrancois,  
 S. Lehtola,  D. S. Levine,  Yi-Pei Li,  You-Sheng Lin,  Fenglai Liu,  
 E. Livshits,  A. Luenser,  P. Manohar,  E. Mansoor,  S. F. Manzer,  
 Shan-Ping Mao,  Yuezhi Mao,  N. Mardirossian,  A. V. Marenich,  
 T. Markovich,  L. A. Martinez-Martinez,  S. A. Maurer,  N. J. Mayhall,  
 S. C. McKenzie,  J.-M. Mewes,  P. Morgante,  A. F. Morrison,  
 J. W. Mullinax,  K. Nanda,  T. S. Nguyen-Beck,  R. Olivares-Amaya,  
 J. A. Parkhill,  Zheng Pei,  T. M. Perrine,  F. Plasser,  P. Pokhilko,  
 S. Prager,  A. Prociuk,  E. Ramos,  D. R. Rehn,  F. Rob,  M. Scheurer,  
 M. Schneider,  N. Sergueev,  S. M. Sharada,  S. Sharma,  D. W. Small,  
 T. Stauch,  T. Stein,  Yu-Chuan Su,  A. J. W. Thom,  A. Tkatchenko,  
 T. Tsuchimochi,  N. M. Tubman,  L. Vogt,  M. L. Vidal,  O. Vydrov,  
 M. A. Watson,  J. Wenzel,  M. de Wergifosse,  T. A. Wesolowski,  A. White,  
 J. Witte,  A. Yamada,  Jun Yang,  K. Yao,  S. Yeganeh,  S. R. Yost,  
 Zhi-Qiang You,  A. Zech,  Igor Ying Zhang,  Xing Zhang,  Yan Zhao,  
 Ying Zhu,  B. R. Brooks,  G. K. L. Chan,  C. J. Cramer,  M. S. Gordon,  
 W. J. Hehre,  A. Klamt,  M. W. Schmidt,  C. D. Sherrill,  D. G. Truhlar,  
 A. Aspuru-Guzik,  R. Baer,  A. T. Bell,  N. A. Besley,  Jeng-Da Chai,  
 A. E. DePrince, III,  R. A. DiStasio Jr.,  A. Dreuw,  B. D. Dunietz,  
 T. R. Furlani,  Chao-Ping Hsu,  Yousung Jung,  Jing Kong,  D. S. Lambrecht,  
 WanZhen Liang,  C. Ochsenfeld,  V. A. Rassolov,  L. V. Slipchenko,  
 J. E. Subotnik,  T. Van Voorhis,  J. M. Herbert,  A. I. Krylov,  
 P. M. W. Gill,  M. Head-Gordon

 Contributors to earlier versions of Q-Chem not listed above: 
 R. D. Adamson,  B. Austin,  J. Baker,  G. J. O. Beran,  K. Brandhorst,  
 S. T. Brown,  E. F. C. Byrd,  A. K. Chakraborty,  C.-L. Cheng,  
 Siu Hung Chien,  D. M. Chipman,  D. L. Crittenden,  H. Dachsel,  
 R. J. Doerksen,  A. D. Dutoi,  L. Fusti-Molnar,  W. A. Goddard III,  
 A. Golubeva-Zadorozhnaya,  S. R. Gwaltney,  G. Hawkins,  A. Heyden,  
 S. Hirata,  G. Kedziora,  F. J. Keil,  C. Kelley,  Jihan Kim,  R. A. King,  
 R. Z. Khaliullin,  P. P. Korambath,  W. Kurlancheek,  A. M. Lee,  M. S. Lee,  
 S. V. Levchenko,  Ching Yeh Lin,  D. Liotard,  R. C. Lochan,  I. Lotan,  
 P. E. Maslen,  N. Nair,  D. P. O'Neill,  D. Neuhauser,  E. Neuscamman,  
 C. M. Oana,  R. Olson,  B. Peters,  R. Peverati,  P. A. Pieniazek,  
 Y. M. Rhee,  J. Ritchie,  M. A. Rohrdanz,  E. Rosta,  N. J. Russ,  
 H. F. Schaefer III,  N. E. Schultz,  N. Shenvi,  A. C. Simmonett,  A. Sodt,  
 D. Stuck,  K. S. Thanthiriwatte,  V. Vanovschi,  Tao Wang,  A. Warshel,  
 C. F. Williams,  Q. Wu,  X. Xu,  W. Zhang

 Please cite Q-Chem as follows:
 Y. Shao et al., Mol. Phys. 113, 184-215 (2015)
 DOI: 10.1080/00268976.2014.952696

 Q-Chem 5.2.0 for Intel X86 EM64T Linux

 Parts of Q-Chem use Armadillo 8.300.2 (Tropical Shenanigans).
 http://arma.sourceforge.net/

 Q-Chem begins on Sun Sep 26 01:34:58 2021  

Host: cori01
0

     Scratch files written to /tmp/qchem26355//
 May1019 |scratch|qcdevops|jenkins|workspace|build_RNUM -1
Processing $rem in /global/common/cori/software/qchem/5.2/config/preferences:
	 MEM_TOTAL  96000 
NAlpha2: 98
NElect   98
Mult     1
Symmetry turned off for PCM/SM12/SMD calculation

 Q-Chem warning in module libgen/rem_setup.C, line 2803:

 Neither GIA nor STOLL is specified by user. Use STOLL as the default


Checking the input file for inconsistencies... 	...done.

--------------------------------------------------------------
User input:
--------------------------------------------------------------
$comment
SSI-004ARG-095TYR-2.pdb
$end

$molecule
1 1
--
1 1
C    2.416627839721    1.747476730733    0.496748058611
C    0.574627839721    2.412476730733   -1.072251941389
N    1.793627839721    1.948476730733   -0.817251941389
N   -0.143372160279    2.821476730733   -0.051251941389
N    0.067627839721    2.525476730733   -2.290251941389
H    2.450627839721    2.451476730733   -1.396251941389
H    0.241627839721    2.786476730733    0.880748058611
H   -1.051372160279    3.246476730733   -0.186251941389
H    0.040627839721    3.499476730733   -2.607251941389
H   -0.901372160279    2.214476730733   -2.364251941389
H    1.757627839721    1.152476730733    1.134748058611
H    2.592627839721    2.711476730733    0.983748058611
H    3.378677839721    1.220626730733    0.413748058611
--
0 1
C   -2.258372160279   -0.659523269267    2.733748058611
C   -1.416372160279   -0.424523269267    0.392748058611
C   -1.433372160279   -1.172523269267    1.577748058611
C   -0.661372160279   -0.831523269267   -0.698251941389
C    0.106627839721   -1.981523269267   -0.559251941389
C   -0.654372160279   -2.320523269267    1.707748058611
C    0.127627839721   -2.733523269267    0.625748058611
O    0.901627839721   -2.424523269267   -1.556251941389
H   -2.023372160279    0.470476730733    0.319748058611
H   -0.687372160279   -0.266523269267   -1.612251941389
H   -2.594372160279   -1.485523269267    3.362748058611
H   -3.140372160279   -0.168523269267    2.323748058611
H   -0.657372160279   -2.887523269267    2.627748058611
H    1.370627839721   -3.219523269267   -1.285251941389
H    0.736627839721   -3.623523269267    0.714748058611
H   -1.609632160279    0.020246730733    3.305628058611
$end

$rem
JOBTYPE			EDA
EDA2			1
method			wB97X-V
BASIS			def2-TZVPD
XC_GRID			000099000590
NL_GRID			1
UNRESTRICTED		FALSE
MAX_SCF_CYCLES		200
SYMMETRY		FALSE
SYM_IGNORE		TRUE
MEM_STATIC		2000
BASIS_LIN_DEP_THRESH 	6
THRESH 			14
SCF_CONVERGENCE 	8
SCF_PRINT_FRGM 		TRUE
SOLVENT_METHOD          PCM
$end

$PCM
THEORY                  CPCM
METHOD                  SWIG
SOLVER                  INVERSION
RADII                   UFF
HPOINTS                 302
HEAVYPOINTS             302
PRINTLEVEL              0
$END

$SOLVENT
DIELECTRIC              78.390000 ! water
$END
--------------------------------------------------------------
 ----------------------------------------------------------------
             Standard Nuclear Orientation (Angstroms)
    I     Atom           X                Y                Z
 ----------------------------------------------------------------
    1      C       2.4166278397     1.7474767307     0.4967480586
    2      C       0.5746278397     2.4124767307    -1.0722519414
    3      N       1.7936278397     1.9484767307    -0.8172519414
    4      N      -0.1433721603     2.8214767307    -0.0512519414
    5      N       0.0676278397     2.5254767307    -2.2902519414
    6      H       2.4506278397     2.4514767307    -1.3962519414
    7      H       0.2416278397     2.7864767307     0.8807480586
    8      H      -1.0513721603     3.2464767307    -0.1862519414
    9      H       0.0406278397     3.4994767307    -2.6072519414
   10      H      -0.9013721603     2.2144767307    -2.3642519414
   11      H       1.7576278397     1.1524767307     1.1347480586
   12      H       2.5926278397     2.7114767307     0.9837480586
   13      H       3.3786778397     1.2206267307     0.4137480586
   14      C      -2.2583721603    -0.6595232693     2.7337480586
   15      C      -1.4163721603    -0.4245232693     0.3927480586
   16      C      -1.4333721603    -1.1725232693     1.5777480586
   17      C      -0.6613721603    -0.8315232693    -0.6982519414
   18      C       0.1066278397    -1.9815232693    -0.5592519414
   19      C      -0.6543721603    -2.3205232693     1.7077480586
   20      C       0.1276278397    -2.7335232693     0.6257480586
   21      O       0.9016278397    -2.4245232693    -1.5562519414
   22      H      -2.0233721603     0.4704767307     0.3197480586
   23      H      -0.6873721603    -0.2665232693    -1.6122519414
   24      H      -2.5943721603    -1.4855232693     3.3627480586
   25      H      -3.1403721603    -0.1685232693     2.3237480586
   26      H      -0.6573721603    -2.8875232693     2.6277480586
   27      H       1.3706278397    -3.2195232693    -1.2852519414
   28      H       0.7366278397    -3.6235232693     0.7147480586
   29      H      -1.6096321603     0.0202467307     3.3056280586
 ----------------------------------------------------------------
 Nuclear Repulsion Energy =         795.71985864 hartrees
 There are       49 alpha and       49 beta electrons
 Requested basis set is def2-TZVPD
 There are 250 shells and 628 basis functions

 Total QAlloc Memory Limit  96000 MB
 Mega-Array Size      1956 MB
 MEM_STATIC part      2000 MB
 Discretize the solute cavity surface with Lebedev spheres
	Using 302 Lebedev grid points for each H atom
	Using 302 Lebedev grid points for other atoms
	Atomic van der Waals radii will be scaled by 1.20
 Remove points where switching function is < 1.0e-08
 Keep 3147 surface tesserae and discard 5611 interior tesserae
 Molecular Surface Area = 305.934 Angst**2
 A cutoff of  1.0D-14 yielded  27479 shell pairs
 There are    174803 function pairs (    219765 Cartesian)
 Smallest overlap matrix eigenvalue = 4.81E-07
 Linear dependence detected in AO basis
 Tighter screening thresholds may be required for diffuse basis sets
 Use S2THRESH > 14 and THRESH = 14 in case of SCF convergence issues
 Number of orthogonalized atomic orbitals = 626
 Maximum deviation from orthogonality = 2.398E-10

 Scale SEOQF with 1.000000e-01/1.000000e-01/1.000000e-01

 Standard Electronic Orientation quadrupole field applied
 Nucleus-field energy     =     0.0000000146 hartrees

 -----------------------------------------------------------------------
  General SCF calculation program by
  Eric Jon Sundstrom, Paul Horn, Yuezhi Mao, Dmitri Zuev, Alec White,
  David Stuck, Shaama M.S., Shane Yost, Joonho Lee, David Small,
  Daniel Levine, Susi Lehtola, Hugh Burton, Evgeny Epifanovsky
 -----------------------------------------------------------------------
================================================================
                 ALMO-EDA with the EDA2 driver                  
================================================================
 The second-generation ALMO-EDA (for DFT):                      
 P. R. Horn, Y. Mao and M. Head-Gordon, PCCP, 18, 23067 (2016)  
 Decomposition of the frozen energy:                            
 P. R. Horn, Y. Mao and M. Head-Gordon, JCP, 144, 114107 (2016) 
 FERF model for polarization:                                   
 P. R. Horn and M. Head-Gordon, JCP, 143, 114111 (2015)         
Using eda2 option set 1
Option set summary: Frozen orbital wavefunction, initial wavefunction decomposition, and nDQ polarization.
--------------------------------
Printing EDA Options
--------------------------------
eda_child_super_basis      0
fragmo_guess_mode          0
child_mp                   1
child_mp_orders            232
cls_elec                   1
cls_disp                   0
scfmi_mode                 1
scfmi_occs                 0
scfmi_virts                0
frz_relax                  0
frz_relax_method           0
dc_pen_start               0
dc_pen_conv                0
dc_pen_increment           0
dc_pen_steps               0
dc_pen_thresh_factor       0
dc_pen_pre_newton_thresh   0
frz_ortho_decomp           1
frz_ortho_decomp_conv      6
frgm_method                2
scfmi_freeze_ss            0
separate_rehyb             0
plot_diff_den              0
eda_nocv                   0
eda_vct_relax              1
disp_free_x                0
disp_free_c                0
eda_bsse                   0
eda_pct_a                  0
eda_covp                   0
--------------------------------
Attempting to make child job directory: /tmp/qchem26355//Frg1/
Attempting to make child job directory: /tmp/qchem26355//Frg2/
Creating input file /tmp/qchem26355/Frg1.input
using default PutDataFrgm: nothing
calling putenv with: QCSCRATCH=/tmp/qchem26355/ 
calling putenv with: QCLOCALSCR=/tmp/qchem26355/ 
Spawning Job For Fragment 0
                  Welcome to Q-Chem
     A Quantum Leap Into The Future Of Chemistry


 Q-Chem 5.2, Q-Chem, Inc., Pleasanton, CA (2019)

 License issued to: National Energy Research Scientific Computing Center

 Yihan Shao,  Zhengting Gan,  E. Epifanovsky,  A. T. B. Gilbert,  M. Wormit,  
 J. Kussmann,  A. W. Lange,  A. Behn,  Jia Deng,  Xintian Feng,  D. Ghosh,  
 M. Goldey,  P. R. Horn,  L. D. Jacobson,  I. Kaliman,  T. Kus,  A. Landau,  
 Jie Liu,  E. I. Proynov,  R. M. Richard,  R. P. Steele,  E. J. Sundstrom,  
 H. L. Woodcock III,  P. M. Zimmerman,  D. Zuev,  B. Albrecht,  E. Alguire,  
 S. A. Baeppler,  D. Barton,  Z. Benda,  Y. A. Bernard,  E. J. Berquist,  
 K. B. Bravaya,  H. Burton,  D. Casanova,  Chun-Min Chang,  Yunqing Chen,  
 A. Chien,  K. D. Closser,  M. P. Coons,  S. Coriani,  S. Dasgupta,  
 A. L. Dempwolff,  M. Diedenhofen,  Hainam Do,  R. G. Edgar,  Po-Tung Fang,  
 S. Faraji,  S. Fatehi,  Qingguo Feng,  K. D. Fenk,  J. Fosso-Tande,  
 J. Gayvert,  Qinghui Ge,  A. Ghysels,  G. Gidofalvi,  J. Gomes,  
 J. Gonthier,  A. Gunina,  D. Hait,  M. W. D. Hanson-Heine,  
 P. H. P. Harbach,  A. W. Hauser,  M. F. Herbst,  J. E. Herr,  
 E. G. Hohenstein,  Z. C. Holden,  Kerwin Hui,  B. C. Huynh,  T.-C. Jagau,  
 Hyunjun Ji,  B. Kaduk,  K. Khistyaev,  Jaehoon Kim,  P. Klunzinger,  K. Koh,  
 D. Kosenkov,  L. Koulias,  T. Kowalczyk,  C. M. Krauter,  A. Kunitsa,  
 Ka Un Lao,  A. Laurent,  K. V. Lawler,  Joonho Lee,  D. Lefrancois,  
 S. Lehtola,  D. S. Levine,  Yi-Pei Li,  You-Sheng Lin,  Fenglai Liu,  
 E. Livshits,  A. Luenser,  P. Manohar,  E. Mansoor,  S. F. Manzer,  
 Shan-Ping Mao,  Yuezhi Mao,  N. Mardirossian,  A. V. Marenich,  
 T. Markovich,  L. A. Martinez-Martinez,  S. A. Maurer,  N. J. Mayhall,  
 S. C. McKenzie,  J.-M. Mewes,  P. Morgante,  A. F. Morrison,  
 J. W. Mullinax,  K. Nanda,  T. S. Nguyen-Beck,  R. Olivares-Amaya,  
 J. A. Parkhill,  Zheng Pei,  T. M. Perrine,  F. Plasser,  P. Pokhilko,  
 S. Prager,  A. Prociuk,  E. Ramos,  D. R. Rehn,  F. Rob,  M. Scheurer,  
 M. Schneider,  N. Sergueev,  S. M. Sharada,  S. Sharma,  D. W. Small,  
 T. Stauch,  T. Stein,  Yu-Chuan Su,  A. J. W. Thom,  A. Tkatchenko,  
 T. Tsuchimochi,  N. M. Tubman,  L. Vogt,  M. L. Vidal,  O. Vydrov,  
 M. A. Watson,  J. Wenzel,  M. de Wergifosse,  T. A. Wesolowski,  A. White,  
 J. Witte,  A. Yamada,  Jun Yang,  K. Yao,  S. Yeganeh,  S. R. Yost,  
 Zhi-Qiang You,  A. Zech,  Igor Ying Zhang,  Xing Zhang,  Yan Zhao,  
 Ying Zhu,  B. R. Brooks,  G. K. L. Chan,  C. J. Cramer,  M. S. Gordon,  
 W. J. Hehre,  A. Klamt,  M. W. Schmidt,  C. D. Sherrill,  D. G. Truhlar,  
 A. Aspuru-Guzik,  R. Baer,  A. T. Bell,  N. A. Besley,  Jeng-Da Chai,  
 A. E. DePrince, III,  R. A. DiStasio Jr.,  A. Dreuw,  B. D. Dunietz,  
 T. R. Furlani,  Chao-Ping Hsu,  Yousung Jung,  Jing Kong,  D. S. Lambrecht,  
 WanZhen Liang,  C. Ochsenfeld,  V. A. Rassolov,  L. V. Slipchenko,  
 J. E. Subotnik,  T. Van Voorhis,  J. M. Herbert,  A. I. Krylov,  
 P. M. W. Gill,  M. Head-Gordon

 Contributors to earlier versions of Q-Chem not listed above: 
 R. D. Adamson,  B. Austin,  J. Baker,  G. J. O. Beran,  K. Brandhorst,  
 S. T. Brown,  E. F. C. Byrd,  A. K. Chakraborty,  C.-L. Cheng,  
 Siu Hung Chien,  D. M. Chipman,  D. L. Crittenden,  H. Dachsel,  
 R. J. Doerksen,  A. D. Dutoi,  L. Fusti-Molnar,  W. A. Goddard III,  
 A. Golubeva-Zadorozhnaya,  S. R. Gwaltney,  G. Hawkins,  A. Heyden,  
 S. Hirata,  G. Kedziora,  F. J. Keil,  C. Kelley,  Jihan Kim,  R. A. King,  
 R. Z. Khaliullin,  P. P. Korambath,  W. Kurlancheek,  A. M. Lee,  M. S. Lee,  
 S. V. Levchenko,  Ching Yeh Lin,  D. Liotard,  R. C. Lochan,  I. Lotan,  
 P. E. Maslen,  N. Nair,  D. P. O'Neill,  D. Neuhauser,  E. Neuscamman,  
 C. M. Oana,  R. Olson,  B. Peters,  R. Peverati,  P. A. Pieniazek,  
 Y. M. Rhee,  J. Ritchie,  M. A. Rohrdanz,  E. Rosta,  N. J. Russ,  
 H. F. Schaefer III,  N. E. Schultz,  N. Shenvi,  A. C. Simmonett,  A. Sodt,  
 D. Stuck,  K. S. Thanthiriwatte,  V. Vanovschi,  Tao Wang,  A. Warshel,  
 C. F. Williams,  Q. Wu,  X. Xu,  W. Zhang

 Please cite Q-Chem as follows:
 Y. Shao et al., Mol. Phys. 113, 184-215 (2015)
 DOI: 10.1080/00268976.2014.952696

 Q-Chem 5.2.0 for Intel X86 EM64T Linux

 Parts of Q-Chem use Armadillo 8.300.2 (Tropical Shenanigans).
 http://arma.sourceforge.net/

 Q-Chem begins on Sun Sep 26 01:35:05 2021  

Host: cori01
0

     Scratch files written to /tmp/qchem26355//Frg1//
 May1019 |scratch|qcdevops|jenkins|workspace|build_RNUM -1
Processing $rem in /global/common/cori/software/qchem/5.2/config/preferences:
	 MEM_TOTAL  96000 
NAlpha2: 40
NElect   40
Mult     1
Symmetry turned off for PCM/SM12/SMD calculation

Checking the input file for inconsistencies... 	...done.

--------------------------------------------------------------
User input:
--------------------------------------------------------------
$molecule
1 1
 6	2.4166278397	1.7474767307	0.4967480586
 6	0.5746278397	2.4124767307	-1.0722519414
 7	1.7936278397	1.9484767307	-0.8172519414
 7	-0.1433721603	2.8214767307	-0.0512519414
 7	0.0676278397	2.5254767307	-2.2902519414
 1	2.4506278397	2.4514767307	-1.3962519414
 1	0.2416278397	2.7864767307	0.8807480586
 1	-1.0513721603	3.2464767307	-0.1862519414
 1	0.0406278397	3.4994767307	-2.6072519414
 1	-0.9013721603	2.2144767307	-2.3642519414
 1	1.7576278397	1.1524767307	1.1347480586
 1	2.5926278397	2.7114767307	0.9837480586
 1	3.3786778397	1.2206267307	0.4137480586
$end
$rem
EDA2		1
METHOD		WB97X-V
BASIS		DEF2-TZVPD
XC_GRID		000099000590
NL_GRID		1
UNRESTRICTED		FALSE
MAX_SCF_CYCLES		200
SYMMETRY		FALSE
SYM_IGNORE		TRUE
BASIS_LIN_DEP_THRESH		6
THRESH		14
SCF_CONVERGENCE		8
SCF_PRINT_FRGM		TRUE
SOLVENT_METHOD		PCM
!required keywords
JOBTYPE		SP
SYM_IGNORE		TRUE
SUBSYSTEM		TRUE
GEN_SCFMAN		TRUE
CHILD_INSTRUCTION		2
SYM_IGNORE		TRUE
SCFMI		0
RI_K 0		
PARI_K 0		
MIN_PARI_K 0		
IARI_K 0		
OCC_RI_K 0		
PURECART		1111
MEM_STATIC		2000
MEM_TOTAL		96000
GUI		0
CHILD_MP		1
CHILD_MP_ORDERS		232
FRZ_RELAX		0
FRZ_RELAX_METHOD		0
EDA_CLS_ELEC		1
EDA_CLS_DISP		0
FRZ_ORTHO_DECOMP		1
EDA2		FALSE
FRGM_METHOD		FALSE
CIS_N_ROOTS  0
LOCAL_CIS    0
CIS_RLX_DNS  1
$end
$pcm
THEORY                  CPCM
METHOD                  SWIG
SOLVER                  INVERSION
RADII                   UFF
HPOINTS                 302
HEAVYPOINTS             302
PRINTLEVEL              0
$end
$solvent
DIELECTRIC              78.390000 ! water
$end
--------------------------------------------------------------
 ----------------------------------------------------------------
             Standard Nuclear Orientation (Angstroms)
    I     Atom           X                Y                Z
 ----------------------------------------------------------------
    1      C       2.4166278397     1.7474767307     0.4967480586
    2      C       0.5746278397     2.4124767307    -1.0722519414
    3      N       1.7936278397     1.9484767307    -0.8172519414
    4      N      -0.1433721603     2.8214767307    -0.0512519414
    5      N       0.0676278397     2.5254767307    -2.2902519414
    6      H       2.4506278397     2.4514767307    -1.3962519414
    7      H       0.2416278397     2.7864767307     0.8807480586
    8      H      -1.0513721603     3.2464767307    -0.1862519414
    9      H       0.0406278397     3.4994767307    -2.6072519414
   10      H      -0.9013721603     2.2144767307    -2.3642519414
   11      H       1.7576278397     1.1524767307     1.1347480586
   12      H       2.5926278397     2.7114767307     0.9837480586
   13      H       3.3786778397     1.2206267307     0.4137480586
 ----------------------------------------------------------------
 Nuclear Repulsion Energy =         194.21595232 hartrees
 There are       20 alpha and       20 beta electrons
 Requested basis set is def2-TZVPD
 There are 105 shells and 257 basis functions

 Total QAlloc Memory Limit  96000 MB
 Mega-Array Size      1956 MB
 MEM_STATIC part      2000 MB
 Discretize the solute cavity surface with Lebedev spheres
	Using 302 Lebedev grid points for each H atom
	Using 302 Lebedev grid points for other atoms
	Atomic van der Waals radii will be scaled by 1.20
 Remove points where switching function is < 1.0e-08
 Keep 1565 surface tesserae and discard 2361 interior tesserae
 Molecular Surface Area = 153.780 Angst**2

                       Distance Matrix (Angstroms)
             C (  1)   C (  2)   N (  3)   N (  4)   N (  5)   H (  6)
   C (  2)  2.509372
   N (  3)  1.468035  1.329015
   N (  4)  2.829731  1.313486  2.258507
   N (  5)  3.726990  1.324138  2.341310  2.268316
   H (  6)  2.019956  1.904173  1.009900  2.945295  2.546252
   H (  7)  2.440820  2.016178  2.448296  1.008997  3.186477  3.190084
   H (  8)  3.839338  2.030869  3.190139  1.011590  2.489743  3.789476
   H (  9)  4.283655  1.955237  2.946644  2.650788  1.024643  2.893601
   H ( 10)  4.405966  1.971559  3.118812  2.508582  1.020372  3.497013
   H ( 11)  1.093321  2.803201  2.108368  2.793914  4.058553  2.928073
   H ( 12)  1.094276  2.896353  2.112858  2.927289  4.138755  2.398367
   H ( 13)  1.100000  3.389897  2.134833  3.896637  4.469597  2.377471
             H (  7)   H (  8)   H (  9)   H ( 10)   H ( 11)   H ( 12)
   H (  8)  1.738372
   H (  9)  3.565798  2.667904
   H ( 10)  3.487644  2.414789  1.611719
   H ( 11)  2.243374  3.744377  4.739099  4.521186
   H ( 12)  2.354450  3.864435  4.475369  4.864581  1.774967
   H ( 13)  3.537097  4.908096  5.046006  5.198447  1.775469  1.779159

 
 A cutoff of  1.0D-14 yielded   5443 shell pairs
 There are     33147 function pairs (     41473 Cartesian)
 Smallest overlap matrix eigenvalue = 1.73E-05

 Scale SEOQF with 1.000000e-01/1.000000e-01/1.000000e-01

 Standard Electronic Orientation quadrupole field applied
 Nucleus-field energy     =     0.0000000125 hartrees
 Guess from superposition of atomic densities
 Warning:  Energy on first SCF cycle will be non-variational
 SAD guess density has 40.388232 electrons

 -----------------------------------------------------------------------
  General SCF calculation program by
  Eric Jon Sundstrom, Paul Horn, Yuezhi Mao, Dmitri Zuev, Alec White,
  David Stuck, Shaama M.S., Shane Yost, Joonho Lee, David Small,
  Daniel Levine, Susi Lehtola, Hugh Burton, Evgeny Epifanovsky
 -----------------------------------------------------------------------
 Exchange:     0.1670 Hartree-Fock + 1.0000 wB97X-V + LR-HF
 Correlation:  1.0000 wB97X-V
 Using Euler-Maclaurin-Lebedev (99,590) quadrature formula
 Nonlocal Correlation:  VV10 with C = 0.0100 and b = 6.00 and scale = 1.00000
 Grid used for NLC:  SG-1 standard quadrature
Energy prior to optimization (guess energy) = -244.657559312510
Begin Timing: Total SCF Calculation
begin iterations for algorithm: DIIS         
the SCF tolerance is set to 1.00e-08
    1    -244.6575593125      8.11e-03     00000 
    2    -244.8718076715      6.51e-03     00000 
    3    -245.1358055133      3.93e-04     00000 
    4    -245.1369742777      2.20e-04     00000 
    5    -245.1373420047      5.29e-05     00000 
    6    -245.1373716410      1.77e-05     00000 
    7    -245.1373757583      7.21e-06     00000 
    8    -245.1373763387      1.95e-06     00000 
    9    -245.1373764221      1.07e-06     00000 
   10    -245.1373764347      2.52e-07     00000 
   11    -245.1373764363      8.22e-08     00000 
   12    -245.1373764364      2.98e-08     00000 
   13    -245.1373764364      7.74e-09     00000 Convergence criterion met
Timing for Total SCF: 768.00s (wall), 1511.03s (cpu)

************** Final PCM Free Energy Summary **************
 G_electrostatic  =      -0.08567934 hartree =     -53.76459529 kcal/mol
 G_cavitation     =       0.00000000 hartree =       0.00000000 kcal/mol
 G_dispersion     =       0.00000000 hartree =       0.00000000 kcal/mol
 G_repulsion      =       0.00000000 hartree =       0.00000000 kcal/mol
 --------------------------------------------------
 Non-electrostatic Free Energy =       0.00000000 hartree =       0.00000000 kcal/mol
 Total                         =      -0.08567934 hartree =     -53.76459529 kcal/mol
 --------------------------------------------------
 SCF Energy (H0 + V/2)                       =    -245.13737644 
 Solute Internal Energy (H0)                 =    -245.05169710 
 Total Free Energy (H0 + V/2 + non-elec)     =    -245.13737644 hartree
                                             = -153826.02540995 kcal/mol
***********************************************************

E_pcm = -0.0856793368
Multipole orders to be included
        2
        3
computing dipole RHS
computing quadrupole RHS
total number of RHS in solve_reponses: 8
RHS batch sizes
        8
Beginning Block Conjugate Gradient Iterations. Batch Number: 0
computing hessian-vector products by finite difference
              1      4.65e-01     00000 Conjugate Gradient Iteration
computing hessian-vector products by finite difference
              2      1.73e-01     00000 Conjugate Gradient Iteration
computing hessian-vector products by finite difference
              3      5.32e-02     00000 Conjugate Gradient Iteration
computing hessian-vector products by finite difference
              4      1.53e-02     00000 Conjugate Gradient Iteration
computing hessian-vector products by finite difference
              5      2.51e-03     00000 Conjugate Gradient Iteration
computing hessian-vector products by finite difference
              6      4.87e-04     00000 Conjugate Gradient Iteration
computing hessian-vector products by finite difference
              7      8.23e-05     00000 Conjugate Gradient Iteration
computing hessian-vector products by finite difference
              8      1.11e-05     00000 Conjugate Gradient Iteration
computing hessian-vector products by finite difference
              9      1.60e-06     00000 Conjugate Gradient Iteration
computing hessian-vector products by finite difference
             10      2.06e-07     00000 Conjugate Gradient Iteration
computing hessian-vector products by finite difference
             11      2.45e-08     00000 Conjugate Gradient Iteration
computing hessian-vector products by finite difference
             12      3.73e-09     00000 CG Converged
batch 0 complete
Done Calculating Responses
TESTING ORTHOGONALIZATION OF MULTIPOLE BASIS
Multipole virts passed orthogonality test
Virts Per Order
           60
          100
 
 --------------------------------------------------------------
 
                    Orbital Energies (a.u.)
 --------------------------------------------------------------
 
 Alpha MOs
 -- Occupied --
-14.4965 -14.4863 -14.4556 -10.4608 -10.3336  -1.2115  -1.0957  -1.0725
 -0.8858  -0.7901  -0.7415  -0.7105  -0.6864  -0.6452  -0.6110  -0.5788
 -0.5331  -0.5136  -0.4370  -0.4168
 -- Virtual --
  0.0165   0.0464   0.0735   0.0912   0.1140   0.1208   0.1278   0.1403
  0.1498   0.1566   0.1665   0.1774   0.1864   0.2008   0.2152   0.2194
  0.2221   0.2426   0.2491   0.2531   0.2614   0.2748   0.2823   0.2885
  0.3002   0.3081   0.3156   0.3177   0.3229   0.3327   0.3376   0.3461
  0.3489   0.3519   0.3725   0.3876   0.3974   0.4045   0.4134   0.4158
  0.4222   0.4262   0.4350   0.4382   0.4434   0.4537   0.4731   0.4799
  0.4914   0.4949   0.5014   0.5113   0.5165   0.5255   0.5269   0.5421
  0.5514   0.5563   0.5704   0.5768   0.6011   0.6095   0.6272   0.6308
  0.6489   0.6544   0.6733   0.6999   0.7070   0.7214   0.7320   0.7444
  0.7604   0.7750   0.7863   0.7958   0.8028   0.8147   0.8374   0.8395
  0.8684   0.8799   0.8815   0.8932   0.8963   0.9250   0.9504   0.9622
  0.9785   1.0062   1.0266   1.0531   1.0692   1.0905   1.1119   1.1214
  1.1536   1.1567   1.1968   1.2245   1.2659   1.2911   1.3404   1.3746
  1.4219   1.4293   1.4567   1.5361   1.5434   1.5629   1.5966   1.6131
  1.7043   1.7322   1.7532   1.7783   1.8011   1.8181   1.8299   1.8396
  1.8670   1.8807   1.9147   1.9244   1.9518   1.9775   2.0072   2.0458
  2.0653   2.0821   2.1350   2.1520   2.1801   2.2015   2.2544   2.2822
  2.2937   2.3190   2.3372   2.3553   2.3869   2.4315   2.4958   2.5121
  2.5214   2.5533   2.5888   2.6013   2.6128   2.6323   2.6832   2.7271
  2.7484   2.7745   2.8058   2.8587   2.8667   2.8896   2.9214   2.9507
  2.9528   3.0347   3.0851   3.0983   3.1236   3.1332   3.1495   3.1769
  3.2313   3.2449   3.2754   3.3285   3.3386   3.3686   3.3798   3.4101
  3.4193   3.4403   3.4925   3.5569   3.6001   3.6629   3.7249   3.7264
  3.7595   3.7992   3.8506   3.8915   3.9631   4.1358   4.1428   4.2151
  4.2203   4.3032   4.3457   4.3735   4.4421   4.4721   4.5414   4.5990
  4.6329   4.8271   4.8401   4.8840   4.8957   4.9162   4.9640   4.9859
  5.0583   5.0799   5.1293   5.1542   5.1688   5.2071   5.2397   5.2790
  5.3298   5.3476   5.3682   5.4297   5.4556   5.5226   5.6136   5.6304
  5.6907   5.7391   5.7842   5.9044   5.9849   6.0507   6.2660   6.4245
 22.6351  23.5980  32.2918  32.4471  32.7630
 --------------------------------------------------------------
 
          Ground-State Mulliken Net Atomic Charges

     Atom                 Charge (a.u.)
  ----------------------------------------
      1 C                    -0.799708
      2 C                     0.240719
      3 N                    -0.039685
      4 N                    -0.190352
      5 N                    -0.435689
      6 H                     0.275485
      7 H                     0.190989
      8 H                     0.208091
      9 H                     0.325667
     10 H                     0.322320
     11 H                     0.354302
     12 H                     0.344912
     13 H                     0.202949
  ----------------------------------------
  Sum of atomic charges =     1.000000

 -----------------------------------------------------------------
                    Cartesian Multipole Moments
 -----------------------------------------------------------------
    Charge (ESU x 10^10)
                 4.8032
    Dipole Moment (Debye)
         X       2.4697      Y      13.9019      Z      -2.0682
       Tot      14.2702
    Quadrupole Moments (Debye-Ang)
        XX     -14.3554     XY       4.6254     YY      11.4690
        XZ       3.1507     YZ     -10.1257     ZZ     -22.1337
    Octopole Moments (Debye-Ang^2)
       XXX     -53.7145    XXY     -33.1703    XYY     -21.3492
       YYY     -79.1635    XXZ      14.6395    XYZ       2.6315
       YYZ     -18.2826    XZZ     -33.7892    YZZ     -37.6080
       ZZZ      54.9047
    Hexadecapole Moments (Debye-Ang^3)
      XXXX    -304.4168   XXXY     -98.1165   XXYY    -151.0304
      XYYY    -152.0842   YYYY    -617.1573   XXXZ      -0.1322
      XXYZ      30.8284   XYYZ       0.9313   YYYZ      15.8718
      XXZZ    -103.7127   XYZZ     -58.0418   YYZZ    -106.3228
      XZZZ      28.5364   YZZZ     109.6136   ZZZZ    -308.0669
 -----------------------------------------------------------------
Archival summary:
1\1\nid00509\SP\ProcedureUnspecified\BasisUnspecified\328(1+,1)\meili\SunSep2605:27:412021SunSep2605:27:412021\0\\#,ProcedureUnspecified,BasisUnspecified,\\1,1\C\N,1,1.31349\H,2,1.009,1,119.909\H,2,1.01159,1,121.181,3,174.762,0\N,1,1.32414,2,118.629,3,-177.002,0\H,5,1.02037,1,113.848,2,-45.6132,0\H,5,1.02464,1,112.073,2,72.1027,0\N,1,1.32902,2,117.449,3,0.778353,0\H,8,1.0099,1,108.229,2,-126.553,0\C,8,1.46803,1,127.502,2,4.58455,0\H,10,1.09332,8,109.94,1,52.0622,0\H,10,1.09428,8,110.242,1,-67.4635,0\H,10,1.1,8,111.666,1,172.034,0\\\@

 Total job time:  13959.84s(wall), 27592.34s(cpu) 
 Sun Sep 26 05:27:45 2021

        *************************************************************
        *                                                           *
        *  Thank you very much for using Q-Chem.  Have a nice day.  *
        *                                                           *
        *************************************************************


Done Job For Fragment 0
calling putenv with: QCSCRATCH=/global/cscratch1/sd/meili 
calling putenv with: QCLOCALSCR=/tmp 
calling putenv with: QCTHREADS=32 
Creating input file /tmp/qchem26355/Frg2.input
using default PutDataFrgm: nothing
calling putenv with: QCSCRATCH=/tmp/qchem26355/ 
calling putenv with: QCLOCALSCR=/tmp/qchem26355/ 
Spawning Job For Fragment 1
                  Welcome to Q-Chem
     A Quantum Leap Into The Future Of Chemistry


 Q-Chem 5.2, Q-Chem, Inc., Pleasanton, CA (2019)

 License issued to: National Energy Research Scientific Computing Center

 Yihan Shao,  Zhengting Gan,  E. Epifanovsky,  A. T. B. Gilbert,  M. Wormit,  
 J. Kussmann,  A. W. Lange,  A. Behn,  Jia Deng,  Xintian Feng,  D. Ghosh,  
 M. Goldey,  P. R. Horn,  L. D. Jacobson,  I. Kaliman,  T. Kus,  A. Landau,  
 Jie Liu,  E. I. Proynov,  R. M. Richard,  R. P. Steele,  E. J. Sundstrom,  
 H. L. Woodcock III,  P. M. Zimmerman,  D. Zuev,  B. Albrecht,  E. Alguire,  
 S. A. Baeppler,  D. Barton,  Z. Benda,  Y. A. Bernard,  E. J. Berquist,  
 K. B. Bravaya,  H. Burton,  D. Casanova,  Chun-Min Chang,  Yunqing Chen,  
 A. Chien,  K. D. Closser,  M. P. Coons,  S. Coriani,  S. Dasgupta,  
 A. L. Dempwolff,  M. Diedenhofen,  Hainam Do,  R. G. Edgar,  Po-Tung Fang,  
 S. Faraji,  S. Fatehi,  Qingguo Feng,  K. D. Fenk,  J. Fosso-Tande,  
 J. Gayvert,  Qinghui Ge,  A. Ghysels,  G. Gidofalvi,  J. Gomes,  
 J. Gonthier,  A. Gunina,  D. Hait,  M. W. D. Hanson-Heine,  
 P. H. P. Harbach,  A. W. Hauser,  M. F. Herbst,  J. E. Herr,  
 E. G. Hohenstein,  Z. C. Holden,  Kerwin Hui,  B. C. Huynh,  T.-C. Jagau,  
 Hyunjun Ji,  B. Kaduk,  K. Khistyaev,  Jaehoon Kim,  P. Klunzinger,  K. Koh,  
 D. Kosenkov,  L. Koulias,  T. Kowalczyk,  C. M. Krauter,  A. Kunitsa,  
 Ka Un Lao,  A. Laurent,  K. V. Lawler,  Joonho Lee,  D. Lefrancois,  
 S. Lehtola,  D. S. Levine,  Yi-Pei Li,  You-Sheng Lin,  Fenglai Liu,  
 E. Livshits,  A. Luenser,  P. Manohar,  E. Mansoor,  S. F. Manzer,  
 Shan-Ping Mao,  Yuezhi Mao,  N. Mardirossian,  A. V. Marenich,  
 T. Markovich,  L. A. Martinez-Martinez,  S. A. Maurer,  N. J. Mayhall,  
 S. C. McKenzie,  J.-M. Mewes,  P. Morgante,  A. F. Morrison,  
 J. W. Mullinax,  K. Nanda,  T. S. Nguyen-Beck,  R. Olivares-Amaya,  
 J. A. Parkhill,  Zheng Pei,  T. M. Perrine,  F. Plasser,  P. Pokhilko,  
 S. Prager,  A. Prociuk,  E. Ramos,  D. R. Rehn,  F. Rob,  M. Scheurer,  
 M. Schneider,  N. Sergueev,  S. M. Sharada,  S. Sharma,  D. W. Small,  
 T. Stauch,  T. Stein,  Yu-Chuan Su,  A. J. W. Thom,  A. Tkatchenko,  
 T. Tsuchimochi,  N. M. Tubman,  L. Vogt,  M. L. Vidal,  O. Vydrov,  
 M. A. Watson,  J. Wenzel,  M. de Wergifosse,  T. A. Wesolowski,  A. White,  
 J. Witte,  A. Yamada,  Jun Yang,  K. Yao,  S. Yeganeh,  S. R. Yost,  
 Zhi-Qiang You,  A. Zech,  Igor Ying Zhang,  Xing Zhang,  Yan Zhao,  
 Ying Zhu,  B. R. Brooks,  G. K. L. Chan,  C. J. Cramer,  M. S. Gordon,  
 W. J. Hehre,  A. Klamt,  M. W. Schmidt,  C. D. Sherrill,  D. G. Truhlar,  
 A. Aspuru-Guzik,  R. Baer,  A. T. Bell,  N. A. Besley,  Jeng-Da Chai,  
 A. E. DePrince, III,  R. A. DiStasio Jr.,  A. Dreuw,  B. D. Dunietz,  
 T. R. Furlani,  Chao-Ping Hsu,  Yousung Jung,  Jing Kong,  D. S. Lambrecht,  
 WanZhen Liang,  C. Ochsenfeld,  V. A. Rassolov,  L. V. Slipchenko,  
 J. E. Subotnik,  T. Van Voorhis,  J. M. Herbert,  A. I. Krylov,  
 P. M. W. Gill,  M. Head-Gordon

 Contributors to earlier versions of Q-Chem not listed above: 
 R. D. Adamson,  B. Austin,  J. Baker,  G. J. O. Beran,  K. Brandhorst,  
 S. T. Brown,  E. F. C. Byrd,  A. K. Chakraborty,  C.-L. Cheng,  
 Siu Hung Chien,  D. M. Chipman,  D. L. Crittenden,  H. Dachsel,  
 R. J. Doerksen,  A. D. Dutoi,  L. Fusti-Molnar,  W. A. Goddard III,  
 A. Golubeva-Zadorozhnaya,  S. R. Gwaltney,  G. Hawkins,  A. Heyden,  
 S. Hirata,  G. Kedziora,  F. J. Keil,  C. Kelley,  Jihan Kim,  R. A. King,  
 R. Z. Khaliullin,  P. P. Korambath,  W. Kurlancheek,  A. M. Lee,  M. S. Lee,  
 S. V. Levchenko,  Ching Yeh Lin,  D. Liotard,  R. C. Lochan,  I. Lotan,  
 P. E. Maslen,  N. Nair,  D. P. O'Neill,  D. Neuhauser,  E. Neuscamman,  
 C. M. Oana,  R. Olson,  B. Peters,  R. Peverati,  P. A. Pieniazek,  
 Y. M. Rhee,  J. Ritchie,  M. A. Rohrdanz,  E. Rosta,  N. J. Russ,  
 H. F. Schaefer III,  N. E. Schultz,  N. Shenvi,  A. C. Simmonett,  A. Sodt,  
 D. Stuck,  K. S. Thanthiriwatte,  V. Vanovschi,  Tao Wang,  A. Warshel,  
 C. F. Williams,  Q. Wu,  X. Xu,  W. Zhang

 Please cite Q-Chem as follows:
 Y. Shao et al., Mol. Phys. 113, 184-215 (2015)
 DOI: 10.1080/00268976.2014.952696

 Q-Chem 5.2.0 for Intel X86 EM64T Linux

 Parts of Q-Chem use Armadillo 8.300.2 (Tropical Shenanigans).
 http://arma.sourceforge.net/

 Q-Chem begins on Sun Sep 26 05:27:48 2021  

Host: cori01
0

     Scratch files written to /tmp/qchem26355//Frg2//
 May1019 |scratch|qcdevops|jenkins|workspace|build_RNUM -1
Processing $rem in /global/common/cori/software/qchem/5.2/config/preferences:
	 MEM_TOTAL  96000 
NAlpha2: 58
NElect   58
Mult     1
Symmetry turned off for PCM/SM12/SMD calculation

Checking the input file for inconsistencies... 	...done.

--------------------------------------------------------------
User input:
--------------------------------------------------------------
$molecule
0 1
 6	-2.2583721603	-0.6595232693	2.7337480586
 6	-1.4163721603	-0.4245232693	0.3927480586
 6	-1.4333721603	-1.1725232693	1.5777480586
 6	-0.6613721603	-0.8315232693	-0.6982519414
 6	0.1066278397	-1.9815232693	-0.5592519414
 6	-0.6543721603	-2.3205232693	1.7077480586
 6	0.1276278397	-2.7335232693	0.6257480586
 8	0.9016278397	-2.4245232693	-1.5562519414
 1	-2.0233721603	0.4704767307	0.3197480586
 1	-0.6873721603	-0.2665232693	-1.6122519414
 1	-2.5943721603	-1.4855232693	3.3627480586
 1	-3.1403721603	-0.1685232693	2.3237480586
 1	-0.6573721603	-2.8875232693	2.6277480586
 1	1.3706278397	-3.2195232693	-1.2852519414
 1	0.7366278397	-3.6235232693	0.7147480586
 1	-1.6096321603	0.0202467307	3.3056280586
$end
$rem
EDA2		1
METHOD		WB97X-V
BASIS		DEF2-TZVPD
XC_GRID		000099000590
NL_GRID		1
UNRESTRICTED		FALSE
MAX_SCF_CYCLES		200
SYMMETRY		FALSE
SYM_IGNORE		TRUE
BASIS_LIN_DEP_THRESH		6
THRESH		14
SCF_CONVERGENCE		8
SCF_PRINT_FRGM		TRUE
SOLVENT_METHOD		PCM
!required keywords
JOBTYPE		SP
SYM_IGNORE		TRUE
SUBSYSTEM		TRUE
GEN_SCFMAN		TRUE
CHILD_INSTRUCTION		2
SYM_IGNORE		TRUE
SCFMI		0
RI_K 0		
PARI_K 0		
MIN_PARI_K 0		
IARI_K 0		
OCC_RI_K 0		
PURECART		1111
MEM_STATIC		2000
MEM_TOTAL		96000
GUI		0
CHILD_MP		1
CHILD_MP_ORDERS		232
FRZ_RELAX		0
FRZ_RELAX_METHOD		0
EDA_CLS_ELEC		1
EDA_CLS_DISP		0
FRZ_ORTHO_DECOMP		1
EDA2		FALSE
FRGM_METHOD		FALSE
CIS_N_ROOTS  0
LOCAL_CIS    0
CIS_RLX_DNS  1
$end
$pcm
THEORY                  CPCM
METHOD                  SWIG
SOLVER                  INVERSION
RADII                   UFF
HPOINTS                 302
HEAVYPOINTS             302
PRINTLEVEL              0
$end
$solvent
DIELECTRIC              78.390000 ! water
$end
--------------------------------------------------------------
 ----------------------------------------------------------------
             Standard Nuclear Orientation (Angstroms)
    I     Atom           X                Y                Z
 ----------------------------------------------------------------
    1      C      -2.2583721603    -0.6595232693     2.7337480586
    2      C      -1.4163721603    -0.4245232693     0.3927480586
    3      C      -1.4333721603    -1.1725232693     1.5777480586
    4      C      -0.6613721603    -0.8315232693    -0.6982519414
    5      C       0.1066278397    -1.9815232693    -0.5592519414
    6      C      -0.6543721603    -2.3205232693     1.7077480586
    7      C       0.1276278397    -2.7335232693     0.6257480586
    8      O       0.9016278397    -2.4245232693    -1.5562519414
    9      H      -2.0233721603     0.4704767307     0.3197480586
   10      H      -0.6873721603    -0.2665232693    -1.6122519414
   11      H      -2.5943721603    -1.4855232693     3.3627480586
   12      H      -3.1403721603    -0.1685232693     2.3237480586
   13      H      -0.6573721603    -2.8875232693     2.6277480586
   14      H       1.3706278397    -3.2195232693    -1.2852519414
   15      H       0.7366278397    -3.6235232693     0.7147480586
   16      H      -1.6096321603     0.0202467307     3.3056280586
 ----------------------------------------------------------------
 Nuclear Repulsion Energy =         343.92315661 hartrees
 There are       29 alpha and       29 beta electrons
 Requested basis set is def2-TZVPD
 There are 145 shells and 371 basis functions

 Total QAlloc Memory Limit  96000 MB
 Mega-Array Size      1956 MB
 MEM_STATIC part      2000 MB
 Discretize the solute cavity surface with Lebedev spheres
	Using 302 Lebedev grid points for each H atom
	Using 302 Lebedev grid points for other atoms
	Atomic van der Waals radii will be scaled by 1.20
 Remove points where switching function is < 1.0e-08
 Keep 1842 surface tesserae and discard 2990 interior tesserae
 Molecular Surface Area = 189.538 Angst**2
 A cutoff of  1.0D-14 yielded  10060 shell pairs
 There are     67188 function pairs (     85911 Cartesian)
 Smallest overlap matrix eigenvalue = 5.76E-07
 Linear dependence detected in AO basis
 Tighter screening thresholds may be required for diffuse basis sets
 Use S2THRESH > 14 and THRESH = 14 in case of SCF convergence issues
 Number of orthogonalized atomic orbitals = 370
 Maximum deviation from orthogonality = 1.303E-10

 Scale SEOQF with 1.000000e-01/1.000000e-01/1.000000e-01

 Standard Electronic Orientation quadrupole field applied
 Nucleus-field energy     =     0.0000000020 hartrees
 Guess from superposition of atomic densities
 Warning:  Energy on first SCF cycle will be non-variational
 SAD guess density has 57.738434 electrons

 -----------------------------------------------------------------------
  General SCF calculation program by
  Eric Jon Sundstrom, Paul Horn, Yuezhi Mao, Dmitri Zuev, Alec White,
  David Stuck, Shaama M.S., Shane Yost, Joonho Lee, David Small,
  Daniel Levine, Susi Lehtola, Hugh Burton, Evgeny Epifanovsky
 -----------------------------------------------------------------------
 Exchange:     0.1670 Hartree-Fock + 1.0000 wB97X-V + LR-HF
 Correlation:  1.0000 wB97X-V
 Using Euler-Maclaurin-Lebedev (99,590) quadrature formula
 Nonlocal Correlation:  VV10 with C = 0.0100 and b = 6.00 and scale = 1.00000
 Grid used for NLC:  SG-1 standard quadrature
Energy prior to optimization (guess energy) = -346.490471247829
Begin Timing: Total SCF Calculation
begin iterations for algorithm: DIIS         
the SCF tolerance is set to 1.00e-08
    1    -346.4904712478      5.19e-03     00000 
    2    -346.4274739884      5.61e-03     00000 
    3    -346.8080237516      5.34e-04     00000 
    4    -346.8121331875      1.81e-04     00000 
    5    -346.8127417651      2.55e-05     00000 
    6    -346.8127609120      1.41e-05     00000 
    7    -346.8127648558      4.00e-06     00000 
    8    -346.8127653262      1.30e-06     00000 
    9    -346.8127653937      5.67e-07     00000 
   10    -346.8127654062      1.51e-07     00000 
   11    -346.8127654086      6.04e-08     00000 
   12    -346.8127654089      3.14e-08     00000 
   13    -346.8127654090      8.29e-09     00000 Convergence criterion met
Timing for Total SCF: 2103.00s (wall), 4175.94s (cpu)

************** Final PCM Free Energy Summary **************
 G_electrostatic  =      -0.00557961 hartree =      -3.50125758 kcal/mol
 G_cavitation     =       0.00000000 hartree =       0.00000000 kcal/mol
 G_dispersion     =       0.00000000 hartree =       0.00000000 kcal/mol
 G_repulsion      =       0.00000000 hartree =       0.00000000 kcal/mol
 --------------------------------------------------
 Non-electrostatic Free Energy =       0.00000000 hartree =       0.00000000 kcal/mol
 Total                         =      -0.00557961 hartree =      -3.50125758 kcal/mol
 --------------------------------------------------
 SCF Energy (H0 + V/2)                       =    -346.81276541 
 Solute Internal Energy (H0)                 =    -346.80718580 
 Total Free Energy (H0 + V/2 + non-elec)     =    -346.81276541 hartree
                                             = -217628.29495784 kcal/mol
***********************************************************

E_pcm = -0.0055796091
Multipole orders to be included
        2
        3
computing dipole RHS
computing quadrupole RHS
total number of RHS in solve_reponses: 8
RHS batch sizes
        8
Beginning Block Conjugate Gradient Iterations. Batch Number: 0
computing hessian-vector products by finite difference
              1      6.14e-01     00000 Conjugate Gradient Iteration
computing hessian-vector products by finite difference
              2      1.91e-01     00000 Conjugate Gradient Iteration
computing hessian-vector products by finite difference
              3      4.75e-02     00000 Conjugate Gradient Iteration
computing hessian-vector products by finite difference
              4      1.43e-02     00000 Conjugate Gradient Iteration
computing hessian-vector products by finite difference
              5      4.46e-03     00000 Conjugate Gradient Iteration
computing hessian-vector products by finite difference
              6      1.62e-03     00000 Conjugate Gradient Iteration
computing hessian-vector products by finite difference
              7      3.99e-04     00000 Conjugate Gradient Iteration
computing hessian-vector products by finite difference
              8      8.12e-05     00000 Conjugate Gradient Iteration
computing hessian-vector products by finite difference
              9      1.55e-05     00000 Conjugate Gradient Iteration
computing hessian-vector products by finite difference
             10      3.96e-06     00000 Conjugate Gradient Iteration
computing hessian-vector products by finite difference
             11      8.91e-07     00000 Conjugate Gradient Iteration
computing hessian-vector products by finite difference
             12      1.63e-07     00000 Conjugate Gradient Iteration
computing hessian-vector products by finite difference
             13      3.02e-08     00000 Conjugate Gradient Iteration
computing hessian-vector products by finite difference
             14      5.80e-09     00000 CG Converged
batch 0 complete
Done Calculating Responses
TESTING ORTHOGONALIZATION OF MULTIPOLE BASIS
Multipole virts passed orthogonality test
Virts Per Order
           87
          145
 
 --------------------------------------------------------------
 
                    Orbital Energies (a.u.)
 --------------------------------------------------------------
 
 Alpha MOs
 -- Occupied --
-19.2433 -10.3358 -10.2750 -10.2745 -10.2740 -10.2729 -10.2717 -10.2604
 -1.2006  -0.9940  -0.9002  -0.8859  -0.8067  -0.7496  -0.7148  -0.6659
 -0.6031  -0.5814  -0.5510  -0.5450  -0.5388  -0.5258  -0.5083  -0.4762
 -0.4514  -0.4424  -0.4419  -0.3545  -0.3088
 -- Virtual --
  0.0573   0.0583   0.0689   0.0790   0.0828   0.0948   0.1077   0.1099
  0.1145   0.1314   0.1439   0.1494   0.1528   0.1714   0.1742   0.1915
  0.1993   0.2073   0.2203   0.2236   0.2327   0.2380   0.2469   0.2515
  0.2641   0.2665   0.2676   0.2731   0.2823   0.2937   0.2966   0.3020
  0.3045   0.3093   0.3145   0.3249   0.3356   0.3415   0.3441   0.3478
  0.3554   0.3564   0.3616   0.3709   0.3774   0.3776   0.3816   0.3916
  0.3921   0.3960   0.4004   0.4093   0.4153   0.4192   0.4222   0.4330
  0.4427   0.4450   0.4560   0.4613   0.4661   0.4695   0.4802   0.4853
  0.4892   0.4954   0.4970   0.5046   0.5133   0.5168   0.5253   0.5347
  0.5387   0.5451   0.5469   0.5563   0.5659   0.5722   0.5821   0.5959
  0.5984   0.6052   0.6226   0.6305   0.6469   0.6522   0.6612   0.6665
  0.6774   0.6816   0.6861   0.6906   0.6971   0.6981   0.7181   0.7264
  0.7315   0.7407   0.7472   0.7511   0.7556   0.7729   0.7822   0.7845
  0.7859   0.7911   0.7967   0.8018   0.8045   0.8124   0.8293   0.8382
  0.8402   0.8453   0.8527   0.8581   0.8665   0.8763   0.8793   0.8889
  0.9034   0.9084   0.9330   0.9485   0.9586   0.9738   0.9875   1.0048
  1.0184   1.0320   1.0401   1.0440   1.0563   1.0645   1.0790   1.0879
  1.1026   1.1222   1.1417   1.1759   1.1990   1.2399   1.2597   1.2838
  1.2975   1.3125   1.3291   1.3500   1.3569   1.3796   1.3986   1.4237
  1.4550   1.4690   1.4708   1.4805   1.5217   1.5618   1.6034   1.6116
  1.6221   1.6428   1.6785   1.6841   1.6949   1.7215   1.7815   1.8000
  1.8173   1.8237   1.8334   1.8616   1.8670   1.8839   1.9174   1.9267
  1.9523   1.9596   1.9754   1.9885   2.0088   2.0266   2.0353   2.0487
  2.0560   2.0710   2.0868   2.0969   2.1167   2.1380   2.1868   2.2118
  2.2254   2.2352   2.2701   2.2790   2.3144   2.3215   2.3509   2.3603
  2.3882   2.4151   2.4304   2.4662   2.4800   2.4881   2.5147   2.5506
  2.5797   2.5940   2.6014   2.6295   2.6406   2.6677   2.6935   2.7299
  2.7456   2.7625   2.7765   2.7982   2.8330   2.8430   2.8638   2.8669
  2.9003   2.9162   2.9318   2.9458   2.9607   2.9683   2.9792   3.0049
  3.0123   3.0405   3.0694   3.0791   3.1244   3.1323   3.1541   3.1691
  3.1963   3.2078   3.2234   3.2354   3.2449   3.2599   3.2752   3.2899
  3.3426   3.3527   3.3861   3.3898   3.4034   3.4294   3.4516   3.4623
  3.4736   3.4824   3.5007   3.5023   3.5161   3.5239   3.5366   3.5519
  3.5561   3.5626   3.5704   3.5905   3.6027   3.6182   3.6463   3.6595
  3.6893   3.6954   3.7202   3.7541   3.7864   3.8098   3.8322   3.8808
  3.9358   3.9528   3.9768   3.9954   4.0370   4.0944   4.1256   4.1791
  4.2295   4.2592   4.2655   4.2995   4.3070   4.3260   4.3358   4.3512
  4.3602   4.3876   4.4075   4.4581   4.5139   4.5637   4.6063   4.6298
  4.7315   4.7519   4.7964   4.8029   4.8933   4.9102   5.0329   5.0534
  5.0941   5.1183   5.1583   5.3145   5.3182   5.4119   5.4445   5.5301
  5.6143   5.6512   5.7183   5.7538   5.9658   6.1997   6.4976   6.5940
  6.6333   6.8788   7.0435   7.2973   7.4567  22.6553  22.6899  22.9122
 22.9996  23.0248  23.1855  23.4987  44.4287
 --------------------------------------------------------------
 
          Ground-State Mulliken Net Atomic Charges

     Atom                 Charge (a.u.)
  ----------------------------------------
      1 C                    -1.031073
      2 C                    -0.352423
      3 C                     0.618584
      4 C                    -0.905347
      5 C                     0.934074
      6 C                    -0.751862
      7 C                    -0.314373
      8 O                    -0.479756
      9 H                     0.306531
     10 H                     0.335337
     11 H                     0.282429
     12 H                     0.277474
     13 H                     0.314743
     14 H                     0.283690
     15 H                     0.271839
     16 H                     0.210132
  ----------------------------------------
  Sum of atomic charges =     0.000000

 -----------------------------------------------------------------
                    Cartesian Multipole Moments
 -----------------------------------------------------------------
    Charge (ESU x 10^10)
                 0.0000
    Dipole Moment (Debye)
         X       0.2013      Y      -1.0250      Z       1.3610
       Tot       1.7157
    Quadrupole Moments (Debye-Ang)
        XX     -46.8119     XY      -6.1256     YY     -38.9948
        XZ      -1.1002     YZ      -3.5240     ZZ     -47.9134
    Octopole Moments (Debye-Ang^2)
       XXX     104.0562    XXY      72.1643    XYY      57.6558
       YYY     180.1703    XXZ     -27.8558    XYZ       5.0910
       YYZ     -23.6169    XZZ      28.2760    YZZ      72.4415
       ZZZ     -73.8548
    Hexadecapole Moments (Debye-Ang^3)
      XXXX    -504.8020   XXXY     -67.7874   XXYY    -230.8843
      XYYY    -138.2831   YYYY    -828.2365   XXXZ     219.2032
      XXYZ      31.5388   XYYZ      57.6350   YYYZ      82.4836
      XXZZ    -210.9448   XYZZ      -3.6971   YYZZ    -274.7260
      XZZZ     226.8320   YZZZ      43.6502   ZZZZ    -750.7673
 -----------------------------------------------------------------
Archival summary:
1\1\nid00509\SP\ProcedureUnspecified\BasisUnspecified\178\meili\SunSep2617:19:092021SunSep2617:19:092021\0\\#,ProcedureUnspecified,BasisUnspecified,\\0,1\C\O,1,1.34992\H,2,0.961991,1,110.503\C,1,1.38984,2,121.541,3,178.982,0\H,4,1.07485,1,122.233,2,2.40545,0\C,4,1.38779,1,117.688,2,-177.937,0\H,6,1.08388,4,119.596,1,179.738,0\C,6,1.40143,4,120.984,1,-1.92854,0\C,8,1.39343,6,120.786,4,2.29551,0\H,9,1.08069,8,120.672,6,179.06,0\C,9,1.39743,8,118.953,6,-1.28416,0\H,11,1.08208,9,119.626,8,-179.992,0\C,8,1.51001,6,118.205,4,178.989,0\H,13,1.08954,8,107.896,6,34.136,0\H,13,1.09124,8,110.631,6,152.058,0\H,13,1.1,8,106.603,6,-87.799,0\\\@

 Total job time:  42685.63s(wall), 84754.73s(cpu) 
 Sun Sep 26 17:19:14 2021

        *************************************************************
        *                                                           *
        *  Thank you very much for using Q-Chem.  Have a nice day.  *
        *                                                           *
        *************************************************************


Done Job For Fragment 1
calling putenv with: QCSCRATCH=/global/cscratch1/sd/meili 
calling putenv with: QCLOCALSCR=/tmp 
calling putenv with: QCTHREADS=32 
Doing General SCFMI
 Exchange:     0.1670 Hartree-Fock + 1.0000 wB97X-V + LR-HF
 Correlation:  1.0000 wB97X-V
 Using Euler-Maclaurin-Lebedev (99,590) quadrature formula
 Nonlocal Correlation:  VV10 with C = 0.0100 and b = 6.00 and scale = 1.00000
 Grid used for NLC:  SG-1 standard quadrature
performing fock build before subrot guess so that all methods have access
Printing subrot_rss_gen Method Specification:
Occupied Subspace Method is 0
Virtual Subspace Method is 0
Energy of the unrelaxed supersystem initial determinant -591.864448342351
performing fock build before subrot guess so that all methods have access
Printing subrot_rss_gen Method Specification:
Occupied Subspace Method is 0
Virtual Subspace Method is 0
Energy of the unrelaxed supersystem initial determinant w/ solvent -591.952199150933
write pseudocanon occs and virts to disk
write pseudocanon orbital energies to disk
Tolerance of ortho_decomp_scf: 1.00e-06
GDM subspace size: 20
Beginning the Orthogonal Decomposition of the Initial Supersystem Wavefunction
    1    -591.8476806623      1.82e-02     ortho_decomp Preconditoned Steepest Descent
    2    -591.8488143176      4.00e-04     ortho_decomp BFGS Step
    3    -591.8488171904      2.80e-05     ortho_decomp BFGS Step
    4    -591.8488171948      9.96e-07     ortho_decomp 00000 Convergence criterion met
 Hartree-Fock
 Hartree-Fock
 Hartree-Fock
Doing General SCFMI
 Exchange:     0.1670 Hartree-Fock + 1.0000 wB97X-V + LR-HF
 Correlation:  1.0000 wB97X-V
 Using Euler-Maclaurin-Lebedev (99,590) quadrature formula
 Nonlocal Correlation:  VV10 with C = 0.0100 and b = 6.00 and scale = 1.00000
 Grid used for NLC:  SG-1 standard quadrature
performing fock build at end of subrot_r(subrot) constructor so that all methods have access
<S^2> of initial wavefunction before polarization iterations 0.0000000000
Beginning iterations for the determination of the polarized wavefunction
Energy prior to optimization (guess energy) = -591.952199150933
Begin Timing: Total SCF Calculation
begin iterations for algorithm: DIIS         
the SCF tolerance is set to 1.00e-08
    1    -591.9521991509      7.06e-05     00000 
    2    -591.9527860630      3.11e-05     00000 
    3    -591.9528523667      1.51e-05     00000 
    4    -591.9528730532      6.31e-06     00000 
    5    -591.9528775459      2.07e-06     00000 
    6    -591.9528783523      8.36e-07     00000 
    7    -591.9528784259      3.13e-07     00000 
    8    -591.9528784355      9.06e-08     00000 
    9    -591.9528784362      4.10e-08     00000 
   10    -591.9528784363      1.31e-08     00000 
   11    -591.9528784363      4.83e-09     00000 Convergence criterion met
write pseudocanon occs and virts to disk
write pseudocanon orbital energies to disk
Timing for Total SCF: 8944.00s (wall), 17782.29s (cpu)
<S^2> of polarized wavefunction after polarization iterations 0.0000000000
relaxing scfmi constraint to allow all rotations in the entire AO span
Doing General SCFMI
 Exchange:     0.1670 Hartree-Fock + 1.0000 wB97X-V + LR-HF
 Correlation:  1.0000 wB97X-V
 Using Euler-Maclaurin-Lebedev (99,590) quadrature formula
 Nonlocal Correlation:  VV10 with C = 0.0100 and b = 6.00 and scale = 1.00000
 Grid used for NLC:  SG-1 standard quadrature
performing fock build at end of subrot_r(subrot) constructor so that all methods have access
<S^2> of polarized wavefunction before ct-allowed iterations 0.0000000000
Beginning iterations for the determination of the CT-Allowed wavefunction
Energy prior to optimization (guess energy) = -591.952878436283
Begin Timing: Total SCF Calculation
begin iterations for algorithm: DIIS         
the SCF tolerance is set to 1.00e-08
    1    -591.9528784363      6.27e-05     00000 
    2    -591.9534736712      5.34e-06     00000 
    3    -591.9534911746      9.73e-07     00000 
    4    -591.9534919964      3.79e-07     00000 
    5    -591.9534920311      1.55e-07     00000 
    6    -591.9534920394      3.43e-08     00000 
    7    -591.9534920397      1.28e-08     00000 
    8    -591.9534920398      4.54e-09     00000 Convergence criterion met
write pseudocanon occs and virts to disk
write pseudocanon orbital energies to disk
Timing for Total SCF: 6204.00s (wall), 12334.15s (cpu)
<S^2> of ct_allowed wavefunction after ct-allowed iterations 0.0000000000

================================
        Results of EDA2         
================================
Basic EDA Quantities
--------------------
Fragment Energies (Ha):
1 -245.1373764364
2 -346.8127654090
--------------------
  E_prp (kJ/mol) = -0.0000
  E_sol (kJ/mol) = 9.2107
  E_frz (kJ/mol) = -14.6122
  E_pol (kJ/mol) = -1.7835
  E_vct (kJ/mol) = -1.6110
  E_int (kJ/mol) = -8.7960
--------------------


Initial Wavefunction Decomposition
--------------------
  --------------------
  Orthogonal Fragment Subspace Decomposition:
  --------------------
     E_elec   (ELEC)   (kJ/mol) = -18.7840
     E_pauli  (PAULI)  (kJ/mol) = 20.2077
     E_disp   (DISP)   (kJ/mol) = -16.0360
     --------------------
     Terms summing to E_pauli:
     --------------------
        E_kep_pauli       (kJ/mol) = 26.4278
        E_disp_free_pauli (kJ/mol) = -6.2201
  --------------------
  Classical Frozen Decomposition:
  --------------------
     E_cls_elec  (CLS ELEC)  (kJ/mol) = -10.5913
     E_cls_pauli (CLS PAULI) (kJ/mol) = -4.0209
    [E_mod_pauli (MOD PAULI) (kJ/mol) = 12.0150 (CLS PAULI - DISP from orthogonal decomposition) ]
  --------------------
--------------------

Simplified EDA Summary (kJ/mol)
--------------------
 PREPARATION     -0.0000
 SOLVATION       9.2107
 FROZEN          1.4237      (does not include dispersion)
[PAULI           20.2077]     (if this is negligible, then frozen describes electrostatics)
 DISPERSION      -16.0360
 POLARIZATION    -1.7835
 CHARGE TRANSFER -1.6110
 TOTAL           -8.7960     (PRP + SOL + FRZ + DISP + POL + CT)
--------------------
 
 --------------------------------------------------------------
 
                    Orbital Energies (a.u.)
 --------------------------------------------------------------
 
 Alpha MOs
 -- Occupied --
-19.2467 -14.4980 -14.4877 -14.4582 -10.4623 -10.3409 -10.3343 -10.2802
-10.2792 -10.2786 -10.2785 -10.2770 -10.2630  -1.2133  -1.2041  -1.0972
 -1.0745  -0.9989  -0.9045  -0.8910  -0.8868  -0.8104  -0.7915  -0.7541
 -0.7432  -0.7205  -0.7121  -0.6893  -0.6701  -0.6469  -0.6125  -0.6074
 -0.5866  -0.5798  -0.5556  -0.5489  -0.5445  -0.5336  -0.5290  -0.5160
 -0.5112  -0.4797  -0.4556  -0.4470  -0.4464  -0.4388  -0.4178  -0.3598
 -0.3130
 -- Virtual --
  0.0128   0.0446   0.0524   0.0593   0.0644   0.0689   0.0792   0.0868
  0.0937   0.0947   0.1030   0.1071   0.1174   0.1175   0.1262   0.1331
  0.1350   0.1384   0.1434   0.1568   0.1611   0.1620   0.1679   0.1729
  0.1797   0.1839   0.1891   0.1965   0.2044   0.2089   0.2156   0.2171
  0.2205   0.2218   0.2307   0.2344   0.2375   0.2423   0.2441   0.2484
  0.2509   0.2559   0.2632   0.2669   0.2680   0.2789   0.2792   0.2844
  0.2917   0.2931   0.2961   0.2994   0.3039   0.3071   0.3095   0.3132
  0.3180   0.3196   0.3299   0.3324   0.3363   0.3371   0.3390   0.3434
  0.3444   0.3459   0.3478   0.3535   0.3556   0.3603   0.3661   0.3702
  0.3730   0.3765   0.3787   0.3835   0.3875   0.3931   0.3947   0.3993
  0.4019   0.4041   0.4087   0.4111   0.4131   0.4181   0.4204   0.4257
  0.4304   0.4335   0.4371   0.4400   0.4452   0.4473   0.4520   0.4582
  0.4605   0.4668   0.4699   0.4723   0.4775   0.4793   0.4844   0.4887
  0.4888   0.4924   0.4970   0.4991   0.5020   0.5060   0.5114   0.5142
  0.5178   0.5209   0.5248   0.5309   0.5360   0.5385   0.5425   0.5468
  0.5510   0.5561   0.5588   0.5638   0.5702   0.5737   0.5787   0.5846
  0.5888   0.5898   0.6014   0.6045   0.6095   0.6166   0.6222   0.6242
  0.6319   0.6357   0.6367   0.6459   0.6488   0.6546   0.6609   0.6668
  0.6688   0.6776   0.6816   0.6839   0.6864   0.6927   0.7024   0.7088
  0.7140   0.7176   0.7221   0.7268   0.7285   0.7377   0.7389   0.7430
  0.7483   0.7514   0.7541   0.7604   0.7640   0.7678   0.7689   0.7724
  0.7796   0.7826   0.7930   0.7956   0.7967   0.8035   0.8084   0.8105
  0.8175   0.8201   0.8262   0.8292   0.8332   0.8403   0.8449   0.8471
  0.8532   0.8567   0.8635   0.8661   0.8774   0.8787   0.8801   0.8928
  0.8965   0.9019   0.9138   0.9167   0.9198   0.9216   0.9303   0.9312
  0.9386   0.9437   0.9481   0.9608   0.9693   0.9740   0.9882   0.9962
  0.9975   1.0062   1.0150   1.0236   1.0280   1.0343   1.0420   1.0468
  1.0559   1.0597   1.0729   1.0768   1.0815   1.0943   1.1017   1.1111
  1.1204   1.1364   1.1475   1.1545   1.1583   1.1663   1.1762   1.1838
  1.2015   1.2075   1.2225   1.2362   1.2380   1.2569   1.2675   1.2739
  1.2849   1.2921   1.3017   1.3220   1.3445   1.3546   1.3599   1.3688
  1.3876   1.3997   1.4055   1.4179   1.4297   1.4438   1.4675   1.4725
  1.4805   1.4869   1.4943   1.5078   1.5148   1.5284   1.5350   1.5656
  1.5857   1.5899   1.6016   1.6159   1.6240   1.6440   1.6519   1.6534
  1.6878   1.7014   1.7156   1.7421   1.7522   1.7625   1.7776   1.7928
  1.8057   1.8155   1.8205   1.8304   1.8469   1.8483   1.8630   1.8712
  1.8818   1.8916   1.9033   1.9123   1.9196   1.9359   1.9410   1.9501
  1.9546   1.9572   1.9752   1.9765   1.9896   2.0007   2.0097   2.0287
  2.0403   2.0477   2.0567   2.0640   2.0713   2.0786   2.0870   2.0939
  2.1015   2.1103   2.1149   2.1271   2.1485   2.1741   2.1768   2.1966
  2.2116   2.2219   2.2266   2.2333   2.2496   2.2690   2.2818   2.2984
  2.3053   2.3150   2.3259   2.3348   2.3480   2.3617   2.3637   2.3782
  2.3836   2.4025   2.4095   2.4330   2.4428   2.4562   2.4738   2.4776
  2.4829   2.4981   2.5198   2.5344   2.5466   2.5703   2.5753   2.5963
  2.5997   2.6065   2.6238   2.6350   2.6383   2.6402   2.6567   2.6700
  2.6798   2.6826   2.7140   2.7247   2.7396   2.7439   2.7499   2.7648
  2.7824   2.7981   2.8038   2.8142   2.8244   2.8448   2.8589   2.8616
  2.8781   2.8879   2.9048   2.9099   2.9192   2.9343   2.9470   2.9537
  2.9640   2.9776   2.9910   2.9964   3.0026   3.0235   3.0357   3.0441
  3.0607   3.0769   3.0813   3.0909   3.1019   3.1239   3.1323   3.1399
  3.1493   3.1646   3.1724   3.1817   3.1895   3.2040   3.2139   3.2322
  3.2338   3.2539   3.2631   3.2749   3.2757   3.2874   3.2927   3.2985
  3.3067   3.3328   3.3580   3.3622   3.3702   3.3823   3.3920   3.4010
  3.4119   3.4235   3.4270   3.4338   3.4427   3.4466   3.4655   3.4722
  3.4836   3.4914   3.5027   3.5160   3.5228   3.5279   3.5378   3.5463
  3.5625   3.5648   3.5719   3.5751   3.5808   3.6010   3.6136   3.6169
  3.6304   3.6481   3.6616   3.6701   3.6850   3.6988   3.7104   3.7252
  3.7458   3.7527   3.7683   3.7879   3.7952   3.8165   3.8265   3.8438
  3.8781   3.8929   3.9194   3.9481   3.9615   3.9845   3.9894   4.0144
  4.0504   4.0988   4.1431   4.1545   4.1678   4.1811   4.2290   4.2380
  4.2460   4.2663   4.2751   4.3100   4.3171   4.3289   4.3338   4.3407
  4.3598   4.3687   4.3722   4.3948   4.4105   4.4145   4.4557   4.4742
  4.4870   4.5171   4.5546   4.5717   4.6103   4.6185   4.6429   4.6636
  4.7324   4.7587   4.8011   4.8079   4.8550   4.8640   4.9023   4.9129
  4.9217   4.9302   4.9373   4.9925   4.9968   5.0399   5.0609   5.0828
  5.1027   5.1109   5.1211   5.1495   5.1649   5.1778   5.1925   5.2444
  5.2817   5.2985   5.3126   5.3208   5.3509   5.3704   5.4008   5.4166
  5.4443   5.4585   5.4876   5.5295   5.5568   5.6138   5.6328   5.6442
  5.6534   5.7055   5.7184   5.7410   5.7646   5.8110   5.9240   5.9666
  5.9956   6.0707   6.1996   6.2791   6.4300   6.4949   6.6012   6.6588
  6.8869   7.0497   7.3019   7.4653  22.6579  22.6736  22.7664  22.9562
 23.0132  23.0540  23.2065  23.5058  23.6271  32.4767  32.5674  32.8018
 44.4746
 --------------------------------------------------------------
 
          Ground-State Mulliken Net Atomic Charges

     Atom                 Charge (a.u.)
  ----------------------------------------
      1 C                    -0.812374
      2 C                     0.084877
      3 N                     0.041557
      4 N                    -0.142031
      5 N                    -0.422720
      6 H                     0.283684
      7 H                     0.195236
      8 H                     0.236397
      9 H                     0.307052
     10 H                     0.322566
     11 H                     0.325959
     12 H                     0.370043
     13 H                     0.198195
     14 C                    -1.085304
     15 C                    -0.356715
     16 C                     0.602304
     17 C                    -0.704142
     18 C                     0.752998
     19 C                    -0.630312
     20 C                    -0.456146
     21 O                    -0.495875
     22 H                     0.304536
     23 H                     0.328701
     24 H                     0.299624
     25 H                     0.275121
     26 H                     0.356890
     27 H                     0.298525
     28 H                     0.306845
     29 H                     0.214510
  ----------------------------------------
  Sum of atomic charges =     1.000000

 -----------------------------------------------------------------
                    Cartesian Multipole Moments
 -----------------------------------------------------------------
    Charge (ESU x 10^10)
                 4.8032
    Dipole Moment (Debye)
         X       2.7062      Y      12.5801      Z      -0.5163
       Tot      12.8782
    Quadrupole Moments (Debye-Ang)
        XX     -60.7863     XY      -1.2322     YY     -26.4590
        XZ       1.7327     YZ     -13.8535     ZZ     -69.6429
    Octopole Moments (Debye-Ang^2)
       XXX      50.0336    XXY      38.6039    XYY      36.5457
       YYY      99.1147    XXZ     -12.6202    XYZ       7.9209
       YYZ     -41.7064    XZZ      -5.9175    YZZ      34.1334
       ZZZ     -17.7809
    Hexadecapole Moments (Debye-Ang^3)
      XXXX    -805.7464   XXXY    -164.6150   XXYY    -380.0648
      XYYY    -289.6151   YYYY   -1432.1511   XXXZ     217.2115
      XXYZ      61.8598   XYYZ      57.5453   YYYZ      95.2182
      XXZZ    -312.6386   XYZZ     -60.7910   YYZZ    -377.0855
      XZZZ     252.6547   YZZZ     150.8501   ZZZZ   -1053.5930
 -----------------------------------------------------------------
Archival summary:
1\1\nid00509\SP\ProcedureUnspecified\BasisUnspecified\13916(1+,1)\meili\MonSep2700:39:432021MonSep2700:39:432021\0\\#,ProcedureUnspecified,BasisUnspecified,\\1,1\N\H,1,1.0099\C,1,1.32902,2,108.229\N,3,1.31349,1,117.449,2,-126.553,0\H,4,1.009,3,119.909,1,0.778353,0\H,4,1.01159,3,121.181,1,175.541,0\N,3,1.32414,1,123.882,2,51.1,0\H,7,1.02037,3,113.848,1,136.76,0\H,7,1.02464,3,112.073,1,-105.524,0\C,1,1.46803,2,107.775,3,-141.139,0\H,10,1.09332,1,109.94,2,-176.632,0\H,10,1.09428,1,110.242,2,63.8421,0\H,10,1.1,1,111.666,2,-56.6604,0\H,8,2.60128,7,101.047,3,-59.4501,0\C,14,1.07485,8,138.518,7,83.9985,0\C,15,1.38779,14,120.078,8,34.4485,0\H,16,1.08388,15,119.596,14,-0.596552,0\C,15,1.38984,14,122.233,8,-145.902,0\O,18,1.34992,15,121.541,14,2.40545,0\H,19,0.961991,18,110.503,15,178.982,0\C,16,1.40143,15,120.984,14,177.737,0\C,21,1.39343,16,120.786,15,2.29551,0\H,22,1.08069,21,120.672,16,179.06,0\C,22,1.39743,21,118.953,16,-1.28416,0\H,24,1.08208,22,119.626,21,-179.992,0\C,21,1.51001,16,118.205,15,178.989,0\H,26,1.08954,21,107.896,16,34.136,0\H,26,1.09124,21,110.631,16,152.058,0\H,26,1.1,21,106.603,16,-87.799,0\\\@

 Total job time:  83090.66s(wall), 52588.57s(cpu) 
 Mon Sep 27 00:39:48 2021

        *************************************************************
        *                                                           *
        *  Thank you very much for using Q-Chem.  Have a nice day.  *
        *                                                           *
        *************************************************************


