
Running Job 1 of 1 SSI-014TYR-082PHE-1_PCM_TZVPD.in
qchem SSI-014TYR-082PHE-1_PCM_TZVPD.in_48039.0 /tmp/qchem48039/ 0
/global/common/cori/software/qchem/5.2/exe/qcprog.exe_s SSI-014TYR-082PHE-1_PCM_TZVPD.in_48039.0 /tmp/qchem48039/
                  Welcome to Q-Chem
     A Quantum Leap Into The Future Of Chemistry


 Q-Chem 5.2, Q-Chem, Inc., Pleasanton, CA (2019)

 License issued to: National Energy Research Scientific Computing Center

 Yihan Shao,  Zhengting Gan,  E. Epifanovsky,  A. T. B. Gilbert,  M. Wormit,  
 J. Kussmann,  A. W. Lange,  A. Behn,  Jia Deng,  Xintian Feng,  D. Ghosh,  
 M. Goldey,  P. R. Horn,  L. D. Jacobson,  I. Kaliman,  T. Kus,  A. Landau,  
 Jie Liu,  E. I. Proynov,  R. M. Richard,  R. P. Steele,  E. J. Sundstrom,  
 H. L. Woodcock III,  P. M. Zimmerman,  D. Zuev,  B. Albrecht,  E. Alguire,  
 S. A. Baeppler,  D. Barton,  Z. Benda,  Y. A. Bernard,  E. J. Berquist,  
 K. B. Bravaya,  H. Burton,  D. Casanova,  Chun-Min Chang,  Yunqing Chen,  
 A. Chien,  K. D. Closser,  M. P. Coons,  S. Coriani,  S. Dasgupta,  
 A. L. Dempwolff,  M. Diedenhofen,  Hainam Do,  R. G. Edgar,  Po-Tung Fang,  
 S. Faraji,  S. Fatehi,  Qingguo Feng,  K. D. Fenk,  J. Fosso-Tande,  
 J. Gayvert,  Qinghui Ge,  A. Ghysels,  G. Gidofalvi,  J. Gomes,  
 J. Gonthier,  A. Gunina,  D. Hait,  M. W. D. Hanson-Heine,  
 P. H. P. Harbach,  A. W. Hauser,  M. F. Herbst,  J. E. Herr,  
 E. G. Hohenstein,  Z. C. Holden,  Kerwin Hui,  B. C. Huynh,  T.-C. Jagau,  
 Hyunjun Ji,  B. Kaduk,  K. Khistyaev,  Jaehoon Kim,  P. Klunzinger,  K. Koh,  
 D. Kosenkov,  L. Koulias,  T. Kowalczyk,  C. M. Krauter,  A. Kunitsa,  
 Ka Un Lao,  A. Laurent,  K. V. Lawler,  Joonho Lee,  D. Lefrancois,  
 S. Lehtola,  D. S. Levine,  Yi-Pei Li,  You-Sheng Lin,  Fenglai Liu,  
 E. Livshits,  A. Luenser,  P. Manohar,  E. Mansoor,  S. F. Manzer,  
 Shan-Ping Mao,  Yuezhi Mao,  N. Mardirossian,  A. V. Marenich,  
 T. Markovich,  L. A. Martinez-Martinez,  S. A. Maurer,  N. J. Mayhall,  
 S. C. McKenzie,  J.-M. Mewes,  P. Morgante,  A. F. Morrison,  
 J. W. Mullinax,  K. Nanda,  T. S. Nguyen-Beck,  R. Olivares-Amaya,  
 J. A. Parkhill,  Zheng Pei,  T. M. Perrine,  F. Plasser,  P. Pokhilko,  
 S. Prager,  A. Prociuk,  E. Ramos,  D. R. Rehn,  F. Rob,  M. Scheurer,  
 M. Schneider,  N. Sergueev,  S. M. Sharada,  S. Sharma,  D. W. Small,  
 T. Stauch,  T. Stein,  Yu-Chuan Su,  A. J. W. Thom,  A. Tkatchenko,  
 T. Tsuchimochi,  N. M. Tubman,  L. Vogt,  M. L. Vidal,  O. Vydrov,  
 M. A. Watson,  J. Wenzel,  M. de Wergifosse,  T. A. Wesolowski,  A. White,  
 J. Witte,  A. Yamada,  Jun Yang,  K. Yao,  S. Yeganeh,  S. R. Yost,  
 Zhi-Qiang You,  A. Zech,  Igor Ying Zhang,  Xing Zhang,  Yan Zhao,  
 Ying Zhu,  B. R. Brooks,  G. K. L. Chan,  C. J. Cramer,  M. S. Gordon,  
 W. J. Hehre,  A. Klamt,  M. W. Schmidt,  C. D. Sherrill,  D. G. Truhlar,  
 A. Aspuru-Guzik,  R. Baer,  A. T. Bell,  N. A. Besley,  Jeng-Da Chai,  
 A. E. DePrince, III,  R. A. DiStasio Jr.,  A. Dreuw,  B. D. Dunietz,  
 T. R. Furlani,  Chao-Ping Hsu,  Yousung Jung,  Jing Kong,  D. S. Lambrecht,  
 WanZhen Liang,  C. Ochsenfeld,  V. A. Rassolov,  L. V. Slipchenko,  
 J. E. Subotnik,  T. Van Voorhis,  J. M. Herbert,  A. I. Krylov,  
 P. M. W. Gill,  M. Head-Gordon

 Contributors to earlier versions of Q-Chem not listed above: 
 R. D. Adamson,  B. Austin,  J. Baker,  G. J. O. Beran,  K. Brandhorst,  
 S. T. Brown,  E. F. C. Byrd,  A. K. Chakraborty,  C.-L. Cheng,  
 Siu Hung Chien,  D. M. Chipman,  D. L. Crittenden,  H. Dachsel,  
 R. J. Doerksen,  A. D. Dutoi,  L. Fusti-Molnar,  W. A. Goddard III,  
 A. Golubeva-Zadorozhnaya,  S. R. Gwaltney,  G. Hawkins,  A. Heyden,  
 S. Hirata,  G. Kedziora,  F. J. Keil,  C. Kelley,  Jihan Kim,  R. A. King,  
 R. Z. Khaliullin,  P. P. Korambath,  W. Kurlancheek,  A. M. Lee,  M. S. Lee,  
 S. V. Levchenko,  Ching Yeh Lin,  D. Liotard,  R. C. Lochan,  I. Lotan,  
 P. E. Maslen,  N. Nair,  D. P. O'Neill,  D. Neuhauser,  E. Neuscamman,  
 C. M. Oana,  R. Olson,  B. Peters,  R. Peverati,  P. A. Pieniazek,  
 Y. M. Rhee,  J. Ritchie,  M. A. Rohrdanz,  E. Rosta,  N. J. Russ,  
 H. F. Schaefer III,  N. E. Schultz,  N. Shenvi,  A. C. Simmonett,  A. Sodt,  
 D. Stuck,  K. S. Thanthiriwatte,  V. Vanovschi,  Tao Wang,  A. Warshel,  
 C. F. Williams,  Q. Wu,  X. Xu,  W. Zhang

 Please cite Q-Chem as follows:
 Y. Shao et al., Mol. Phys. 113, 184-215 (2015)
 DOI: 10.1080/00268976.2014.952696

 Q-Chem 5.2.0 for Intel X86 EM64T Linux

 Parts of Q-Chem use Armadillo 8.300.2 (Tropical Shenanigans).
 http://arma.sourceforge.net/

 Q-Chem begins on Sun Sep 26 03:18:06 2021  

Host: cori01
0

     Scratch files written to /tmp/qchem48039//
 May1019 |scratch|qcdevops|jenkins|workspace|build_RNUM -1
Processing $rem in /global/common/cori/software/qchem/5.2/config/preferences:
	 MEM_TOTAL  96000 
NAlpha2: 108
NElect   108
Mult     1
Symmetry turned off for PCM/SM12/SMD calculation

 Q-Chem warning in module libgen/rem_setup.C, line 2803:

 Neither GIA nor STOLL is specified by user. Use STOLL as the default


Checking the input file for inconsistencies... 	...done.

--------------------------------------------------------------
User input:
--------------------------------------------------------------
$comment
SSI-014TYR-082PHE-1.pdb
$end

$molecule
0 1
--
0 1
C    2.228984637940   -2.558992821656    0.910242642324
C    1.501984637940   -0.441992821656    2.082242642324
C    2.183984637940   -1.053992821656    1.032242642324
C    1.458984637940    0.963007178344    2.180242642324
C    2.844984637940   -0.244992821656    0.097242642324
C    2.132984637940    1.745007178344    1.235242642324
C    2.827984637940    1.141007178344    0.196242642324
O    2.108984637940    3.111007178344    1.314242642324
H    1.047984637940   -1.053992821656    2.835242642324
H    0.929984637940    1.441007178344    2.991242642324
H    2.318984637940   -2.809992821656   -0.145757357676
H    1.284984637940   -2.982992821656    1.250242642324
H    3.368984637940   -0.704992821656   -0.729757357676
H    3.343984637940    1.740007178344   -0.539757357676
H    2.665984637940    3.516007178344    0.646242642324
H    3.063564637940   -3.028218821656    1.451822642324
--
0 1
C   -3.864015362060    0.129007178344   -3.305757357676
C   -1.519015362060   -0.873992821656    0.169242642324
C   -1.163015362060    0.216007178344   -0.632757357676
C   -2.655015362060   -1.633992821656   -0.147757357676
C   -1.941015362060    0.539007178344   -1.742757357676
C   -3.428015362060   -1.298992821656   -1.258757357676
C   -3.067015362060   -0.215992821656   -2.071757357676
H   -0.922015362060   -1.131992821656    1.030242642324
H   -0.285015362060    0.800007178344   -0.393757357676
H   -2.932015362060   -2.474992821656    0.471242642324
H   -1.655015362060    1.375007178344   -2.364757357676
H   -4.299015362060   -1.890992821656   -1.498757357676
H   -4.311015362060   -0.788992821656   -3.686757357676
H   -3.180015362060    0.489007178344   -4.072757357676
H   -4.653827362060    0.876495178344   -3.140047357676
$end

$rem
JOBTYPE			EDA
EDA2			1
method			wB97X-V
BASIS			def2-TZVPD
XC_GRID			000099000590
NL_GRID			1
UNRESTRICTED		FALSE
MAX_SCF_CYCLES		200
SYMMETRY		FALSE
SYM_IGNORE		TRUE
MEM_STATIC		2000
BASIS_LIN_DEP_THRESH 	6
THRESH 			14
SCF_CONVERGENCE 	8
SCF_PRINT_FRGM 		TRUE
SOLVENT_METHOD          PCM
$end

$PCM
THEORY                  CPCM
METHOD                  SWIG
SOLVER                  INVERSION
RADII                   UFF
HPOINTS                 302
HEAVYPOINTS             302
PRINTLEVEL              0
$END

$SOLVENT
DIELECTRIC              78.390000 ! water
$END
--------------------------------------------------------------
 ----------------------------------------------------------------
             Standard Nuclear Orientation (Angstroms)
    I     Atom           X                Y                Z
 ----------------------------------------------------------------
    1      C       2.2289846379    -2.5589928217     0.9102426423
    2      C       1.5019846379    -0.4419928217     2.0822426423
    3      C       2.1839846379    -1.0539928217     1.0322426423
    4      C       1.4589846379     0.9630071783     2.1802426423
    5      C       2.8449846379    -0.2449928217     0.0972426423
    6      C       2.1329846379     1.7450071783     1.2352426423
    7      C       2.8279846379     1.1410071783     0.1962426423
    8      O       2.1089846379     3.1110071783     1.3142426423
    9      H       1.0479846379    -1.0539928217     2.8352426423
   10      H       0.9299846379     1.4410071783     2.9912426423
   11      H       2.3189846379    -2.8099928217    -0.1457573577
   12      H       1.2849846379    -2.9829928217     1.2502426423
   13      H       3.3689846379    -0.7049928217    -0.7297573577
   14      H       3.3439846379     1.7400071783    -0.5397573577
   15      H       2.6659846379     3.5160071783     0.6462426423
   16      H       3.0635646379    -3.0282188217     1.4518226423
   17      C      -3.8640153621     0.1290071783    -3.3057573577
   18      C      -1.5190153621    -0.8739928217     0.1692426423
   19      C      -1.1630153621     0.2160071783    -0.6327573577
   20      C      -2.6550153621    -1.6339928217    -0.1477573577
   21      C      -1.9410153621     0.5390071783    -1.7427573577
   22      C      -3.4280153621    -1.2989928217    -1.2587573577
   23      C      -3.0670153621    -0.2159928217    -2.0717573577
   24      H      -0.9220153621    -1.1319928217     1.0302426423
   25      H      -0.2850153621     0.8000071783    -0.3937573577
   26      H      -2.9320153621    -2.4749928217     0.4712426423
   27      H      -1.6550153621     1.3750071783    -2.3647573577
   28      H      -4.2990153621    -1.8909928217    -1.4987573577
   29      H      -4.3110153621    -0.7889928217    -3.6867573577
   30      H      -3.1800153621     0.4890071783    -4.0727573577
   31      H      -4.6538273621     0.8764951783    -3.1400473577
 ----------------------------------------------------------------
 Nuclear Repulsion Energy =         886.88353148 hartrees
 There are       54 alpha and       54 beta electrons
 Requested basis set is def2-TZVPD
 There are 276 shells and 702 basis functions

 Total QAlloc Memory Limit  96000 MB
 Mega-Array Size      1956 MB
 MEM_STATIC part      2000 MB
 Discretize the solute cavity surface with Lebedev spheres
	Using 302 Lebedev grid points for each H atom
	Using 302 Lebedev grid points for other atoms
	Atomic van der Waals radii will be scaled by 1.20
 Remove points where switching function is < 1.0e-08
 Keep 3368 surface tesserae and discard 5994 interior tesserae
 Molecular Surface Area = 331.121 Angst**2
 A cutoff of  1.0D-14 yielded  32230 shell pairs
 There are    209130 function pairs (    264129 Cartesian)
 Smallest overlap matrix eigenvalue = 4.60E-07
 Linear dependence detected in AO basis
 Tighter screening thresholds may be required for diffuse basis sets
 Use S2THRESH > 14 and THRESH = 14 in case of SCF convergence issues
 Number of orthogonalized atomic orbitals = 699
 Maximum deviation from orthogonality = 2.886E-10

 Scale SEOQF with 1.000000e-01/1.000000e-01/1.000000e-01

 Standard Electronic Orientation quadrupole field applied
 Nucleus-field energy     =     0.0000000118 hartrees

 -----------------------------------------------------------------------
  General SCF calculation program by
  Eric Jon Sundstrom, Paul Horn, Yuezhi Mao, Dmitri Zuev, Alec White,
  David Stuck, Shaama M.S., Shane Yost, Joonho Lee, David Small,
  Daniel Levine, Susi Lehtola, Hugh Burton, Evgeny Epifanovsky
 -----------------------------------------------------------------------
================================================================
                 ALMO-EDA with the EDA2 driver                  
================================================================
 The second-generation ALMO-EDA (for DFT):                      
 P. R. Horn, Y. Mao and M. Head-Gordon, PCCP, 18, 23067 (2016)  
 Decomposition of the frozen energy:                            
 P. R. Horn, Y. Mao and M. Head-Gordon, JCP, 144, 114107 (2016) 
 FERF model for polarization:                                   
 P. R. Horn and M. Head-Gordon, JCP, 143, 114111 (2015)         
Using eda2 option set 1
Option set summary: Frozen orbital wavefunction, initial wavefunction decomposition, and nDQ polarization.
--------------------------------
Printing EDA Options
--------------------------------
eda_child_super_basis      0
fragmo_guess_mode          0
child_mp                   1
child_mp_orders            232
cls_elec                   1
cls_disp                   0
scfmi_mode                 1
scfmi_occs                 0
scfmi_virts                0
frz_relax                  0
frz_relax_method           0
dc_pen_start               0
dc_pen_conv                0
dc_pen_increment           0
dc_pen_steps               0
dc_pen_thresh_factor       0
dc_pen_pre_newton_thresh   0
frz_ortho_decomp           1
frz_ortho_decomp_conv      6
frgm_method                2
scfmi_freeze_ss            0
separate_rehyb             0
plot_diff_den              0
eda_nocv                   0
eda_vct_relax              1
disp_free_x                0
disp_free_c                0
eda_bsse                   0
eda_pct_a                  0
eda_covp                   0
--------------------------------
Attempting to make child job directory: /tmp/qchem48039//Frg1/
Attempting to make child job directory: /tmp/qchem48039//Frg2/
Creating input file /tmp/qchem48039/Frg1.input
using default PutDataFrgm: nothing
calling putenv with: QCSCRATCH=/tmp/qchem48039/ 
calling putenv with: QCLOCALSCR=/tmp/qchem48039/ 
Spawning Job For Fragment 0
                  Welcome to Q-Chem
     A Quantum Leap Into The Future Of Chemistry


 Q-Chem 5.2, Q-Chem, Inc., Pleasanton, CA (2019)

 License issued to: National Energy Research Scientific Computing Center

 Yihan Shao,  Zhengting Gan,  E. Epifanovsky,  A. T. B. Gilbert,  M. Wormit,  
 J. Kussmann,  A. W. Lange,  A. Behn,  Jia Deng,  Xintian Feng,  D. Ghosh,  
 M. Goldey,  P. R. Horn,  L. D. Jacobson,  I. Kaliman,  T. Kus,  A. Landau,  
 Jie Liu,  E. I. Proynov,  R. M. Richard,  R. P. Steele,  E. J. Sundstrom,  
 H. L. Woodcock III,  P. M. Zimmerman,  D. Zuev,  B. Albrecht,  E. Alguire,  
 S. A. Baeppler,  D. Barton,  Z. Benda,  Y. A. Bernard,  E. J. Berquist,  
 K. B. Bravaya,  H. Burton,  D. Casanova,  Chun-Min Chang,  Yunqing Chen,  
 A. Chien,  K. D. Closser,  M. P. Coons,  S. Coriani,  S. Dasgupta,  
 A. L. Dempwolff,  M. Diedenhofen,  Hainam Do,  R. G. Edgar,  Po-Tung Fang,  
 S. Faraji,  S. Fatehi,  Qingguo Feng,  K. D. Fenk,  J. Fosso-Tande,  
 J. Gayvert,  Qinghui Ge,  A. Ghysels,  G. Gidofalvi,  J. Gomes,  
 J. Gonthier,  A. Gunina,  D. Hait,  M. W. D. Hanson-Heine,  
 P. H. P. Harbach,  A. W. Hauser,  M. F. Herbst,  J. E. Herr,  
 E. G. Hohenstein,  Z. C. Holden,  Kerwin Hui,  B. C. Huynh,  T.-C. Jagau,  
 Hyunjun Ji,  B. Kaduk,  K. Khistyaev,  Jaehoon Kim,  P. Klunzinger,  K. Koh,  
 D. Kosenkov,  L. Koulias,  T. Kowalczyk,  C. M. Krauter,  A. Kunitsa,  
 Ka Un Lao,  A. Laurent,  K. V. Lawler,  Joonho Lee,  D. Lefrancois,  
 S. Lehtola,  D. S. Levine,  Yi-Pei Li,  You-Sheng Lin,  Fenglai Liu,  
 E. Livshits,  A. Luenser,  P. Manohar,  E. Mansoor,  S. F. Manzer,  
 Shan-Ping Mao,  Yuezhi Mao,  N. Mardirossian,  A. V. Marenich,  
 T. Markovich,  L. A. Martinez-Martinez,  S. A. Maurer,  N. J. Mayhall,  
 S. C. McKenzie,  J.-M. Mewes,  P. Morgante,  A. F. Morrison,  
 J. W. Mullinax,  K. Nanda,  T. S. Nguyen-Beck,  R. Olivares-Amaya,  
 J. A. Parkhill,  Zheng Pei,  T. M. Perrine,  F. Plasser,  P. Pokhilko,  
 S. Prager,  A. Prociuk,  E. Ramos,  D. R. Rehn,  F. Rob,  M. Scheurer,  
 M. Schneider,  N. Sergueev,  S. M. Sharada,  S. Sharma,  D. W. Small,  
 T. Stauch,  T. Stein,  Yu-Chuan Su,  A. J. W. Thom,  A. Tkatchenko,  
 T. Tsuchimochi,  N. M. Tubman,  L. Vogt,  M. L. Vidal,  O. Vydrov,  
 M. A. Watson,  J. Wenzel,  M. de Wergifosse,  T. A. Wesolowski,  A. White,  
 J. Witte,  A. Yamada,  Jun Yang,  K. Yao,  S. Yeganeh,  S. R. Yost,  
 Zhi-Qiang You,  A. Zech,  Igor Ying Zhang,  Xing Zhang,  Yan Zhao,  
 Ying Zhu,  B. R. Brooks,  G. K. L. Chan,  C. J. Cramer,  M. S. Gordon,  
 W. J. Hehre,  A. Klamt,  M. W. Schmidt,  C. D. Sherrill,  D. G. Truhlar,  
 A. Aspuru-Guzik,  R. Baer,  A. T. Bell,  N. A. Besley,  Jeng-Da Chai,  
 A. E. DePrince, III,  R. A. DiStasio Jr.,  A. Dreuw,  B. D. Dunietz,  
 T. R. Furlani,  Chao-Ping Hsu,  Yousung Jung,  Jing Kong,  D. S. Lambrecht,  
 WanZhen Liang,  C. Ochsenfeld,  V. A. Rassolov,  L. V. Slipchenko,  
 J. E. Subotnik,  T. Van Voorhis,  J. M. Herbert,  A. I. Krylov,  
 P. M. W. Gill,  M. Head-Gordon

 Contributors to earlier versions of Q-Chem not listed above: 
 R. D. Adamson,  B. Austin,  J. Baker,  G. J. O. Beran,  K. Brandhorst,  
 S. T. Brown,  E. F. C. Byrd,  A. K. Chakraborty,  C.-L. Cheng,  
 Siu Hung Chien,  D. M. Chipman,  D. L. Crittenden,  H. Dachsel,  
 R. J. Doerksen,  A. D. Dutoi,  L. Fusti-Molnar,  W. A. Goddard III,  
 A. Golubeva-Zadorozhnaya,  S. R. Gwaltney,  G. Hawkins,  A. Heyden,  
 S. Hirata,  G. Kedziora,  F. J. Keil,  C. Kelley,  Jihan Kim,  R. A. King,  
 R. Z. Khaliullin,  P. P. Korambath,  W. Kurlancheek,  A. M. Lee,  M. S. Lee,  
 S. V. Levchenko,  Ching Yeh Lin,  D. Liotard,  R. C. Lochan,  I. Lotan,  
 P. E. Maslen,  N. Nair,  D. P. O'Neill,  D. Neuhauser,  E. Neuscamman,  
 C. M. Oana,  R. Olson,  B. Peters,  R. Peverati,  P. A. Pieniazek,  
 Y. M. Rhee,  J. Ritchie,  M. A. Rohrdanz,  E. Rosta,  N. J. Russ,  
 H. F. Schaefer III,  N. E. Schultz,  N. Shenvi,  A. C. Simmonett,  A. Sodt,  
 D. Stuck,  K. S. Thanthiriwatte,  V. Vanovschi,  Tao Wang,  A. Warshel,  
 C. F. Williams,  Q. Wu,  X. Xu,  W. Zhang

 Please cite Q-Chem as follows:
 Y. Shao et al., Mol. Phys. 113, 184-215 (2015)
 DOI: 10.1080/00268976.2014.952696

 Q-Chem 5.2.0 for Intel X86 EM64T Linux

 Parts of Q-Chem use Armadillo 8.300.2 (Tropical Shenanigans).
 http://arma.sourceforge.net/

 Q-Chem begins on Sun Sep 26 03:23:55 2021  

Host: cori01
0

     Scratch files written to /tmp/qchem48039//Frg1//
 May1019 |scratch|qcdevops|jenkins|workspace|build_RNUM -1
Processing $rem in /global/common/cori/software/qchem/5.2/config/preferences:
	 MEM_TOTAL  96000 
NAlpha2: 58
NElect   58
Mult     1
Symmetry turned off for PCM/SM12/SMD calculation

Checking the input file for inconsistencies... 	...done.

--------------------------------------------------------------
User input:
--------------------------------------------------------------
$molecule
0 1
 6	2.2289846379	-2.5589928217	0.9102426423
 6	1.5019846379	-0.4419928217	2.0822426423
 6	2.1839846379	-1.0539928217	1.0322426423
 6	1.4589846379	0.9630071783	2.1802426423
 6	2.8449846379	-0.2449928217	0.0972426423
 6	2.1329846379	1.7450071783	1.2352426423
 6	2.8279846379	1.1410071783	0.1962426423
 8	2.1089846379	3.1110071783	1.3142426423
 1	1.0479846379	-1.0539928217	2.8352426423
 1	0.9299846379	1.4410071783	2.9912426423
 1	2.3189846379	-2.8099928217	-0.1457573577
 1	1.2849846379	-2.9829928217	1.2502426423
 1	3.3689846379	-0.7049928217	-0.7297573577
 1	3.3439846379	1.7400071783	-0.5397573577
 1	2.6659846379	3.5160071783	0.6462426423
 1	3.0635646379	-3.0282188217	1.4518226423
$end
$rem
EDA2		1
METHOD		WB97X-V
BASIS		DEF2-TZVPD
XC_GRID		000099000590
NL_GRID		1
UNRESTRICTED		FALSE
MAX_SCF_CYCLES		200
SYMMETRY		FALSE
SYM_IGNORE		TRUE
BASIS_LIN_DEP_THRESH		6
THRESH		14
SCF_CONVERGENCE		8
SCF_PRINT_FRGM		TRUE
SOLVENT_METHOD		PCM
!required keywords
JOBTYPE		SP
SYM_IGNORE		TRUE
SUBSYSTEM		TRUE
GEN_SCFMAN		TRUE
CHILD_INSTRUCTION		2
SYM_IGNORE		TRUE
SCFMI		0
RI_K 0		
PARI_K 0		
MIN_PARI_K 0		
IARI_K 0		
OCC_RI_K 0		
PURECART		1111
MEM_STATIC		2000
MEM_TOTAL		96000
GUI		0
CHILD_MP		1
CHILD_MP_ORDERS		232
FRZ_RELAX		0
FRZ_RELAX_METHOD		0
EDA_CLS_ELEC		1
EDA_CLS_DISP		0
FRZ_ORTHO_DECOMP		1
EDA2		FALSE
FRGM_METHOD		FALSE
CIS_N_ROOTS  0
LOCAL_CIS    0
CIS_RLX_DNS  1
$end
$pcm
THEORY                  CPCM
METHOD                  SWIG
SOLVER                  INVERSION
RADII                   UFF
HPOINTS                 302
HEAVYPOINTS             302
PRINTLEVEL              0
$end
$solvent
DIELECTRIC              78.390000 ! water
$end
--------------------------------------------------------------
 ----------------------------------------------------------------
             Standard Nuclear Orientation (Angstroms)
    I     Atom           X                Y                Z
 ----------------------------------------------------------------
    1      C       2.2289846379    -2.5589928217     0.9102426423
    2      C       1.5019846379    -0.4419928217     2.0822426423
    3      C       2.1839846379    -1.0539928217     1.0322426423
    4      C       1.4589846379     0.9630071783     2.1802426423
    5      C       2.8449846379    -0.2449928217     0.0972426423
    6      C       2.1329846379     1.7450071783     1.2352426423
    7      C       2.8279846379     1.1410071783     0.1962426423
    8      O       2.1089846379     3.1110071783     1.3142426423
    9      H       1.0479846379    -1.0539928217     2.8352426423
   10      H       0.9299846379     1.4410071783     2.9912426423
   11      H       2.3189846379    -2.8099928217    -0.1457573577
   12      H       1.2849846379    -2.9829928217     1.2502426423
   13      H       3.3689846379    -0.7049928217    -0.7297573577
   14      H       3.3439846379     1.7400071783    -0.5397573577
   15      H       2.6659846379     3.5160071783     0.6462426423
   16      H       3.0635646379    -3.0282188217     1.4518226423
 ----------------------------------------------------------------
 Nuclear Repulsion Energy =         342.33842030 hartrees
 There are       29 alpha and       29 beta electrons
 Requested basis set is def2-TZVPD
 There are 145 shells and 371 basis functions

 Total QAlloc Memory Limit  96000 MB
 Mega-Array Size      1956 MB
 MEM_STATIC part      2000 MB
 Discretize the solute cavity surface with Lebedev spheres
	Using 302 Lebedev grid points for each H atom
	Using 302 Lebedev grid points for other atoms
	Atomic van der Waals radii will be scaled by 1.20
 Remove points where switching function is < 1.0e-08
 Keep 1877 surface tesserae and discard 2955 interior tesserae
 Molecular Surface Area = 190.506 Angst**2
 A cutoff of  1.0D-14 yielded  10040 shell pairs
 There are     67056 function pairs (     85746 Cartesian)
 Smallest overlap matrix eigenvalue = 5.74E-07
 Linear dependence detected in AO basis
 Tighter screening thresholds may be required for diffuse basis sets
 Use S2THRESH > 14 and THRESH = 14 in case of SCF convergence issues
 Number of orthogonalized atomic orbitals = 370
 Maximum deviation from orthogonality = 2.403E-10

 Scale SEOQF with 1.000000e-01/1.000000e-01/1.000000e-01

 Standard Electronic Orientation quadrupole field applied
 Nucleus-field energy     =     0.0000000129 hartrees
 Guess from superposition of atomic densities
 Warning:  Energy on first SCF cycle will be non-variational
 SAD guess density has 57.738434 electrons

 -----------------------------------------------------------------------
  General SCF calculation program by
  Eric Jon Sundstrom, Paul Horn, Yuezhi Mao, Dmitri Zuev, Alec White,
  David Stuck, Shaama M.S., Shane Yost, Joonho Lee, David Small,
  Daniel Levine, Susi Lehtola, Hugh Burton, Evgeny Epifanovsky
 -----------------------------------------------------------------------
 Exchange:     0.1670 Hartree-Fock + 1.0000 wB97X-V + LR-HF
 Correlation:  1.0000 wB97X-V
 Using Euler-Maclaurin-Lebedev (99,590) quadrature formula
 Nonlocal Correlation:  VV10 with C = 0.0100 and b = 6.00 and scale = 1.00000
 Grid used for NLC:  SG-1 standard quadrature
Energy prior to optimization (guess energy) = -346.496150123095
Begin Timing: Total SCF Calculation
begin iterations for algorithm: DIIS         
the SCF tolerance is set to 1.00e-08
    1    -346.4961501231      5.17e-03     00000 
    2    -346.4292607444      5.62e-03     00000 
    3    -346.8112047447      5.33e-04     00000 
    4    -346.8153178724      1.80e-04     00000 
    5    -346.8159229705      2.48e-05     00000 
    6    -346.8159427122      1.21e-05     00000 
    7    -346.8159458466      3.93e-06     00000 
    8    -346.8159462769      1.24e-06     00000 
    9    -346.8159463363      5.86e-07     00000 
   10    -346.8159463477      1.50e-07     00000 
   11    -346.8159463499      6.91e-08     00000 
   12    -346.8159463502      3.52e-08     00000 
   13    -346.8159463503      7.69e-09     00000 Convergence criterion met
Timing for Total SCF: 2205.00s (wall), 4357.30s (cpu)

************** Final PCM Free Energy Summary **************
 G_electrostatic  =      -0.00566446 hartree =      -3.55450470 kcal/mol
 G_cavitation     =       0.00000000 hartree =       0.00000000 kcal/mol
 G_dispersion     =       0.00000000 hartree =       0.00000000 kcal/mol
 G_repulsion      =       0.00000000 hartree =       0.00000000 kcal/mol
 --------------------------------------------------
 Non-electrostatic Free Energy =       0.00000000 hartree =       0.00000000 kcal/mol
 Total                         =      -0.00566446 hartree =      -3.55450470 kcal/mol
 --------------------------------------------------
 SCF Energy (H0 + V/2)                       =    -346.81594635 
 Solute Internal Energy (H0)                 =    -346.81028189 
 Total Free Energy (H0 + V/2 + non-elec)     =    -346.81594635 hartree
                                             = -217630.29102863 kcal/mol
***********************************************************

E_pcm = -0.0056644638
Multipole orders to be included
        2
        3
computing dipole RHS
computing quadrupole RHS
total number of RHS in solve_reponses: 8
RHS batch sizes
        8
Beginning Block Conjugate Gradient Iterations. Batch Number: 0
computing hessian-vector products by finite difference
              1      6.29e-01     00000 Conjugate Gradient Iteration
computing hessian-vector products by finite difference
              2      1.96e-01     00000 Conjugate Gradient Iteration
computing hessian-vector products by finite difference
              3      4.93e-02     00000 Conjugate Gradient Iteration
computing hessian-vector products by finite difference
              4      1.48e-02     00000 Conjugate Gradient Iteration
computing hessian-vector products by finite difference
              5      5.13e-03     00000 Conjugate Gradient Iteration
computing hessian-vector products by finite difference
              6      1.46e-03     00000 Conjugate Gradient Iteration
computing hessian-vector products by finite difference
              7      3.60e-04     00000 Conjugate Gradient Iteration
computing hessian-vector products by finite difference
              8      7.09e-05     00000 Conjugate Gradient Iteration
computing hessian-vector products by finite difference
              9      1.24e-05     00000 Conjugate Gradient Iteration
computing hessian-vector products by finite difference
             10      2.33e-06     00000 Conjugate Gradient Iteration
computing hessian-vector products by finite difference
             11      5.34e-07     00000 Conjugate Gradient Iteration
computing hessian-vector products by finite difference
             12      9.74e-08     00000 Conjugate Gradient Iteration
computing hessian-vector products by finite difference
             13      2.07e-08     00000 Conjugate Gradient Iteration
computing hessian-vector products by finite difference
             14      4.29e-09     00000 CG Converged
batch 0 complete
Done Calculating Responses
TESTING ORTHOGONALIZATION OF MULTIPOLE BASIS
Multipole virts passed orthogonality test
Virts Per Order
           87
          145
 
 --------------------------------------------------------------
 
                    Orbital Energies (a.u.)
 --------------------------------------------------------------
 
 Alpha MOs
 -- Occupied --
-19.2448 -10.3373 -10.2776 -10.2762 -10.2753 -10.2752 -10.2724 -10.2618
 -1.1943  -0.9943  -0.9017  -0.8837  -0.8110  -0.7486  -0.7154  -0.6669
 -0.6032  -0.5813  -0.5513  -0.5413  -0.5342  -0.5213  -0.5115  -0.4767
 -0.4566  -0.4432  -0.4415  -0.3524  -0.3142
 -- Virtual --
  0.0571   0.0580   0.0681   0.0769   0.0831   0.0942   0.1084   0.1101
  0.1138   0.1310   0.1448   0.1513   0.1535   0.1710   0.1721   0.1922
  0.1998   0.2052   0.2157   0.2218   0.2347   0.2396   0.2493   0.2524
  0.2629   0.2646   0.2700   0.2723   0.2837   0.2942   0.2951   0.3005
  0.3032   0.3089   0.3095   0.3252   0.3322   0.3386   0.3410   0.3458
  0.3524   0.3569   0.3584   0.3715   0.3755   0.3769   0.3821   0.3915
  0.3933   0.3947   0.3996   0.4084   0.4120   0.4207   0.4230   0.4309
  0.4377   0.4462   0.4534   0.4567   0.4660   0.4701   0.4763   0.4784
  0.4855   0.4909   0.4999   0.5032   0.5124   0.5158   0.5212   0.5359
  0.5403   0.5473   0.5487   0.5588   0.5599   0.5668   0.5833   0.5936
  0.5968   0.6046   0.6183   0.6267   0.6429   0.6558   0.6638   0.6690
  0.6764   0.6812   0.6869   0.6928   0.6956   0.6983   0.7154   0.7267
  0.7295   0.7422   0.7430   0.7492   0.7567   0.7758   0.7792   0.7830
  0.7884   0.7905   0.7942   0.7982   0.8053   0.8135   0.8290   0.8323
  0.8372   0.8449   0.8518   0.8576   0.8656   0.8737   0.8794   0.8945
  0.8970   0.9088   0.9218   0.9495   0.9601   0.9690   0.9849   1.0122
  1.0228   1.0307   1.0374   1.0469   1.0553   1.0710   1.0742   1.0794
  1.1007   1.1168   1.1335   1.1737   1.1947   1.2370   1.2538   1.2872
  1.3028   1.3111   1.3286   1.3502   1.3627   1.3832   1.3877   1.4287
  1.4573   1.4623   1.4744   1.4777   1.5264   1.5592   1.6000   1.6145
  1.6249   1.6348   1.6841   1.6886   1.7005   1.7239   1.7892   1.7978
  1.8205   1.8216   1.8331   1.8623   1.8670   1.8801   1.9180   1.9219
  1.9393   1.9474   1.9626   1.9865   1.9983   2.0275   2.0320   2.0491
  2.0576   2.0749   2.0929   2.0994   2.1149   2.1515   2.1925   2.2049
  2.2131   2.2347   2.2695   2.2782   2.2959   2.3103   2.3495   2.3650
  2.3947   2.4028   2.4214   2.4590   2.4920   2.4944   2.5176   2.5500
  2.5830   2.5913   2.6143   2.6433   2.6482   2.6730   2.6849   2.7373
  2.7398   2.7602   2.7718   2.7928   2.8181   2.8298   2.8623   2.8739
  2.8969   2.9194   2.9398   2.9449   2.9607   2.9657   2.9695   3.0029
  3.0120   3.0436   3.0704   3.0811   3.0996   3.1127   3.1421   3.1579
  3.1776   3.2032   3.2186   3.2304   3.2470   3.2497   3.2691   3.2925
  3.3189   3.3465   3.3784   3.3814   3.3905   3.4188   3.4486   3.4525
  3.4640   3.4705   3.4930   3.5065   3.5134   3.5161   3.5309   3.5440
  3.5601   3.5698   3.5787   3.5895   3.5992   3.6154   3.6438   3.6556
  3.6761   3.6997   3.7329   3.7551   3.7929   3.8227   3.8346   3.8781
  3.9246   3.9530   3.9739   3.9881   4.0343   4.0813   4.1289   4.1618
  4.2401   4.2693   4.2810   4.2986   4.3108   4.3163   4.3371   4.3617
  4.3626   4.3857   4.4267   4.4399   4.4782   4.5357   4.5906   4.6072
  4.7197   4.7338   4.7785   4.8077   4.8692   4.9142   5.0231   5.0516
  5.0858   5.1154   5.1644   5.2966   5.3138   5.3953   5.4399   5.5324
  5.6084   5.6396   5.7006   5.7578   5.9353   6.2063   6.4691   6.5889
  6.6369   6.8691   7.0123   7.3003   7.4517  22.6569  22.6789  22.9278
 22.9644  23.0267  23.1667  23.4867  44.4117
 --------------------------------------------------------------
 
          Ground-State Mulliken Net Atomic Charges

     Atom                 Charge (a.u.)
  ----------------------------------------
      1 C                    -1.042167
      2 C                    -0.420555
      3 C                     0.584422
      4 C                    -0.759696
      5 C                    -0.623534
      6 C                     0.827857
      7 C                    -0.405382
      8 O                    -0.484452
      9 H                     0.351552
     10 H                     0.333442
     11 H                     0.277374
     12 H                     0.276737
     13 H                     0.308839
     14 H                     0.272683
     15 H                     0.290259
     16 H                     0.212621
  ----------------------------------------
  Sum of atomic charges =     0.000000

 -----------------------------------------------------------------
                    Cartesian Multipole Moments
 -----------------------------------------------------------------
    Charge (ESU x 10^10)
                 0.0000
    Dipole Moment (Debye)
         X       1.1008      Y      -0.5377      Z      -1.3227
       Tot       1.8029
    Quadrupole Moments (Debye-Ang)
        XX     -43.7637     XY       2.9812     YY     -43.9836
        XZ      -5.9931     YZ      -5.5347     ZZ     -48.2792
    Octopole Moments (Debye-Ang^2)
       XXX    -299.7763    XXY       4.2810    XYY     -80.4883
       YYY     -28.0104    XXZ     -73.7966    XYZ     -11.1737
       YYZ     -66.5786    XZZ    -112.8187    YZZ     -21.9860
       ZZZ    -157.4717
    Hexadecapole Moments (Debye-Ang^3)
      XXXX   -1472.0124   XXXY     -16.6343   XXYY    -319.8685
      XYYY      -4.9160   YYYY    -924.6733   XXXZ    -350.1706
      XXYZ     -45.0691   XYYZ    -121.7360   YYYZ    -119.5134
      XXZZ    -378.6272   XYZZ     -50.1082   YYZZ    -285.1899
      XZZZ    -310.3795   YZZZ     -74.2279   ZZZZ    -583.1023
 -----------------------------------------------------------------
Archival summary:
1\1\nid00551\SP\ProcedureUnspecified\BasisUnspecified\178\meili\SunSep2615:41:072021SunSep2615:41:072021\0\\#,ProcedureUnspecified,BasisUnspecified,\\0,1\C\O,1,1.36849\H,2,0.959426,1,111.776\C,1,1.38829,2,119.095,3,-4.93821,0\H,4,1.08016,1,120.519,2,0.0632467,0\C,4,1.38964,1,119.562,2,-179.209,0\H,6,1.08171,4,118.982,1,178.508,0\C,1,1.39958,2,120.684,3,175.565,0\H,8,1.07984,1,119.715,2,-1.17711,0\C,6,1.40201,4,121.483,1,-0.573442,0\C,10,1.39362,6,118.672,4,-0.21548,0\H,11,1.07129,10,119.085,6,-176.101,0\C,10,1.51061,6,120.463,4,-179.39,0\H,13,1.08915,10,108.081,6,-29.9549,0\H,13,1.08927,10,109.681,6,-145.719,0\H,13,1.1,10,114.068,6,90.7297,0\\\@

 Total job time:  44233.45s(wall), 87801.08s(cpu) 
 Sun Sep 26 15:41:09 2021

        *************************************************************
        *                                                           *
        *  Thank you very much for using Q-Chem.  Have a nice day.  *
        *                                                           *
        *************************************************************


Done Job For Fragment 0
calling putenv with: QCSCRATCH=/global/cscratch1/sd/meili 
calling putenv with: QCLOCALSCR=/tmp 
calling putenv with: QCTHREADS=32 
Creating input file /tmp/qchem48039/Frg2.input
using default PutDataFrgm: nothing
calling putenv with: QCSCRATCH=/tmp/qchem48039/ 
calling putenv with: QCLOCALSCR=/tmp/qchem48039/ 
Spawning Job For Fragment 1
                  Welcome to Q-Chem
     A Quantum Leap Into The Future Of Chemistry


 Q-Chem 5.2, Q-Chem, Inc., Pleasanton, CA (2019)

 License issued to: National Energy Research Scientific Computing Center

 Yihan Shao,  Zhengting Gan,  E. Epifanovsky,  A. T. B. Gilbert,  M. Wormit,  
 J. Kussmann,  A. W. Lange,  A. Behn,  Jia Deng,  Xintian Feng,  D. Ghosh,  
 M. Goldey,  P. R. Horn,  L. D. Jacobson,  I. Kaliman,  T. Kus,  A. Landau,  
 Jie Liu,  E. I. Proynov,  R. M. Richard,  R. P. Steele,  E. J. Sundstrom,  
 H. L. Woodcock III,  P. M. Zimmerman,  D. Zuev,  B. Albrecht,  E. Alguire,  
 S. A. Baeppler,  D. Barton,  Z. Benda,  Y. A. Bernard,  E. J. Berquist,  
 K. B. Bravaya,  H. Burton,  D. Casanova,  Chun-Min Chang,  Yunqing Chen,  
 A. Chien,  K. D. Closser,  M. P. Coons,  S. Coriani,  S. Dasgupta,  
 A. L. Dempwolff,  M. Diedenhofen,  Hainam Do,  R. G. Edgar,  Po-Tung Fang,  
 S. Faraji,  S. Fatehi,  Qingguo Feng,  K. D. Fenk,  J. Fosso-Tande,  
 J. Gayvert,  Qinghui Ge,  A. Ghysels,  G. Gidofalvi,  J. Gomes,  
 J. Gonthier,  A. Gunina,  D. Hait,  M. W. D. Hanson-Heine,  
 P. H. P. Harbach,  A. W. Hauser,  M. F. Herbst,  J. E. Herr,  
 E. G. Hohenstein,  Z. C. Holden,  Kerwin Hui,  B. C. Huynh,  T.-C. Jagau,  
 Hyunjun Ji,  B. Kaduk,  K. Khistyaev,  Jaehoon Kim,  P. Klunzinger,  K. Koh,  
 D. Kosenkov,  L. Koulias,  T. Kowalczyk,  C. M. Krauter,  A. Kunitsa,  
 Ka Un Lao,  A. Laurent,  K. V. Lawler,  Joonho Lee,  D. Lefrancois,  
 S. Lehtola,  D. S. Levine,  Yi-Pei Li,  You-Sheng Lin,  Fenglai Liu,  
 E. Livshits,  A. Luenser,  P. Manohar,  E. Mansoor,  S. F. Manzer,  
 Shan-Ping Mao,  Yuezhi Mao,  N. Mardirossian,  A. V. Marenich,  
 T. Markovich,  L. A. Martinez-Martinez,  S. A. Maurer,  N. J. Mayhall,  
 S. C. McKenzie,  J.-M. Mewes,  P. Morgante,  A. F. Morrison,  
 J. W. Mullinax,  K. Nanda,  T. S. Nguyen-Beck,  R. Olivares-Amaya,  
 J. A. Parkhill,  Zheng Pei,  T. M. Perrine,  F. Plasser,  P. Pokhilko,  
 S. Prager,  A. Prociuk,  E. Ramos,  D. R. Rehn,  F. Rob,  M. Scheurer,  
 M. Schneider,  N. Sergueev,  S. M. Sharada,  S. Sharma,  D. W. Small,  
 T. Stauch,  T. Stein,  Yu-Chuan Su,  A. J. W. Thom,  A. Tkatchenko,  
 T. Tsuchimochi,  N. M. Tubman,  L. Vogt,  M. L. Vidal,  O. Vydrov,  
 M. A. Watson,  J. Wenzel,  M. de Wergifosse,  T. A. Wesolowski,  A. White,  
 J. Witte,  A. Yamada,  Jun Yang,  K. Yao,  S. Yeganeh,  S. R. Yost,  
 Zhi-Qiang You,  A. Zech,  Igor Ying Zhang,  Xing Zhang,  Yan Zhao,  
 Ying Zhu,  B. R. Brooks,  G. K. L. Chan,  C. J. Cramer,  M. S. Gordon,  
 W. J. Hehre,  A. Klamt,  M. W. Schmidt,  C. D. Sherrill,  D. G. Truhlar,  
 A. Aspuru-Guzik,  R. Baer,  A. T. Bell,  N. A. Besley,  Jeng-Da Chai,  
 A. E. DePrince, III,  R. A. DiStasio Jr.,  A. Dreuw,  B. D. Dunietz,  
 T. R. Furlani,  Chao-Ping Hsu,  Yousung Jung,  Jing Kong,  D. S. Lambrecht,  
 WanZhen Liang,  C. Ochsenfeld,  V. A. Rassolov,  L. V. Slipchenko,  
 J. E. Subotnik,  T. Van Voorhis,  J. M. Herbert,  A. I. Krylov,  
 P. M. W. Gill,  M. Head-Gordon

 Contributors to earlier versions of Q-Chem not listed above: 
 R. D. Adamson,  B. Austin,  J. Baker,  G. J. O. Beran,  K. Brandhorst,  
 S. T. Brown,  E. F. C. Byrd,  A. K. Chakraborty,  C.-L. Cheng,  
 Siu Hung Chien,  D. M. Chipman,  D. L. Crittenden,  H. Dachsel,  
 R. J. Doerksen,  A. D. Dutoi,  L. Fusti-Molnar,  W. A. Goddard III,  
 A. Golubeva-Zadorozhnaya,  S. R. Gwaltney,  G. Hawkins,  A. Heyden,  
 S. Hirata,  G. Kedziora,  F. J. Keil,  C. Kelley,  Jihan Kim,  R. A. King,  
 R. Z. Khaliullin,  P. P. Korambath,  W. Kurlancheek,  A. M. Lee,  M. S. Lee,  
 S. V. Levchenko,  Ching Yeh Lin,  D. Liotard,  R. C. Lochan,  I. Lotan,  
 P. E. Maslen,  N. Nair,  D. P. O'Neill,  D. Neuhauser,  E. Neuscamman,  
 C. M. Oana,  R. Olson,  B. Peters,  R. Peverati,  P. A. Pieniazek,  
 Y. M. Rhee,  J. Ritchie,  M. A. Rohrdanz,  E. Rosta,  N. J. Russ,  
 H. F. Schaefer III,  N. E. Schultz,  N. Shenvi,  A. C. Simmonett,  A. Sodt,  
 D. Stuck,  K. S. Thanthiriwatte,  V. Vanovschi,  Tao Wang,  A. Warshel,  
 C. F. Williams,  Q. Wu,  X. Xu,  W. Zhang

 Please cite Q-Chem as follows:
 Y. Shao et al., Mol. Phys. 113, 184-215 (2015)
 DOI: 10.1080/00268976.2014.952696

 Q-Chem 5.2.0 for Intel X86 EM64T Linux

 Parts of Q-Chem use Armadillo 8.300.2 (Tropical Shenanigans).
 http://arma.sourceforge.net/

 Q-Chem begins on Sun Sep 26 15:41:13 2021  

Host: cori01
0

     Scratch files written to /tmp/qchem48039//Frg2//
 May1019 |scratch|qcdevops|jenkins|workspace|build_RNUM -1
Processing $rem in /global/common/cori/software/qchem/5.2/config/preferences:
	 MEM_TOTAL  96000 
NAlpha2: 50
NElect   50
Mult     1
Symmetry turned off for PCM/SM12/SMD calculation

Checking the input file for inconsistencies... 	...done.

--------------------------------------------------------------
User input:
--------------------------------------------------------------
$molecule
0 1
 6	-3.8640153621	0.1290071783	-3.3057573577
 6	-1.5190153621	-0.8739928217	0.1692426423
 6	-1.1630153621	0.2160071783	-0.6327573577
 6	-2.6550153621	-1.6339928217	-0.1477573577
 6	-1.9410153621	0.5390071783	-1.7427573577
 6	-3.4280153621	-1.2989928217	-1.2587573577
 6	-3.0670153621	-0.2159928217	-2.0717573577
 1	-0.9220153621	-1.1319928217	1.0302426423
 1	-0.2850153621	0.8000071783	-0.3937573577
 1	-2.9320153621	-2.4749928217	0.4712426423
 1	-1.6550153621	1.3750071783	-2.3647573577
 1	-4.2990153621	-1.8909928217	-1.4987573577
 1	-4.3110153621	-0.7889928217	-3.6867573577
 1	-3.1800153621	0.4890071783	-4.0727573577
 1	-4.6538273621	0.8764951783	-3.1400473577
$end
$rem
EDA2		1
METHOD		WB97X-V
BASIS		DEF2-TZVPD
XC_GRID		000099000590
NL_GRID		1
UNRESTRICTED		FALSE
MAX_SCF_CYCLES		200
SYMMETRY		FALSE
SYM_IGNORE		TRUE
BASIS_LIN_DEP_THRESH		6
THRESH		14
SCF_CONVERGENCE		8
SCF_PRINT_FRGM		TRUE
SOLVENT_METHOD		PCM
!required keywords
JOBTYPE		SP
SYM_IGNORE		TRUE
SUBSYSTEM		TRUE
GEN_SCFMAN		TRUE
CHILD_INSTRUCTION		2
SYM_IGNORE		TRUE
SCFMI		0
RI_K 0		
PARI_K 0		
MIN_PARI_K 0		
IARI_K 0		
OCC_RI_K 0		
PURECART		1111
MEM_STATIC		2000
MEM_TOTAL		96000
GUI		0
CHILD_MP		1
CHILD_MP_ORDERS		232
FRZ_RELAX		0
FRZ_RELAX_METHOD		0
EDA_CLS_ELEC		1
EDA_CLS_DISP		0
FRZ_ORTHO_DECOMP		1
EDA2		FALSE
FRGM_METHOD		FALSE
CIS_N_ROOTS  0
LOCAL_CIS    0
CIS_RLX_DNS  1
$end
$pcm
THEORY                  CPCM
METHOD                  SWIG
SOLVER                  INVERSION
RADII                   UFF
HPOINTS                 302
HEAVYPOINTS             302
PRINTLEVEL              0
$end
$solvent
DIELECTRIC              78.390000 ! water
$end
--------------------------------------------------------------
 ----------------------------------------------------------------
             Standard Nuclear Orientation (Angstroms)
    I     Atom           X                Y                Z
 ----------------------------------------------------------------
    1      C      -3.8640153621     0.1290071783    -3.3057573577
    2      C      -1.5190153621    -0.8739928217     0.1692426423
    3      C      -1.1630153621     0.2160071783    -0.6327573577
    4      C      -2.6550153621    -1.6339928217    -0.1477573577
    5      C      -1.9410153621     0.5390071783    -1.7427573577
    6      C      -3.4280153621    -1.2989928217    -1.2587573577
    7      C      -3.0670153621    -0.2159928217    -2.0717573577
    8      H      -0.9220153621    -1.1319928217     1.0302426423
    9      H      -0.2850153621     0.8000071783    -0.3937573577
   10      H      -2.9320153621    -2.4749928217     0.4712426423
   11      H      -1.6550153621     1.3750071783    -2.3647573577
   12      H      -4.2990153621    -1.8909928217    -1.4987573577
   13      H      -4.3110153621    -0.7889928217    -3.6867573577
   14      H      -3.1800153621     0.4890071783    -4.0727573577
   15      H      -4.6538273621     0.8764951783    -3.1400473577
 ----------------------------------------------------------------
 Nuclear Repulsion Energy =         269.11477632 hartrees
 There are       25 alpha and       25 beta electrons
 Requested basis set is def2-TZVPD
 There are 131 shells and 331 basis functions

 Total QAlloc Memory Limit  96000 MB
 Mega-Array Size      1956 MB
 MEM_STATIC part      2000 MB
 Discretize the solute cavity surface with Lebedev spheres
	Using 302 Lebedev grid points for each H atom
	Using 302 Lebedev grid points for other atoms
	Atomic van der Waals radii will be scaled by 1.20
 Remove points where switching function is < 1.0e-08
 Keep 1795 surface tesserae and discard 2735 interior tesserae
 Molecular Surface Area = 178.826 Angst**2

                       Distance Matrix (Angstroms)
             C (  1)   C (  2)   C (  3)   C (  4)   C (  5)   C (  6)
   C (  2)  4.310529
   C (  3)  3.801039  1.399300
   C (  4)  3.813504  1.403063  2.425652
   C (  5)  2.511772  2.414622  1.393454  2.788503
   C (  6)  2.533671  2.421588  2.795948  1.394301  2.413228
   C (  7)  1.508970  2.802026  2.425399  2.425334  1.395042  1.401492
   H (  8)  5.389469  1.079025  2.154241  2.154757  3.394132  3.398153
   H (  9)  4.662534  2.154530  1.081231  3.406137  2.151803  3.877174
   H ( 10)  4.681364  2.156612  3.404359  1.080357  3.868859  2.149859
   H ( 11)  2.705121  3.390819  2.141301  3.869001  1.080544  3.393677
   H ( 12)  2.744972  3.397781  3.876068  2.143359  3.394790  1.080141
   H ( 13)  1.089814  4.761431  4.499649  3.997610  3.340602  2.633434
   H ( 14)  1.088919  4.755129  3.997051  4.493148  2.639417  3.343209
   H ( 15)  1.100001  4.882894  4.348392  4.387664  3.070125  3.126438
             C (  7)   H (  8)   H (  9)   H ( 10)   H ( 11)   H ( 12)
   H (  8)  3.881042
   H (  9)  3.404036  2.483177
   H ( 10)  3.404138  2.481175  4.298890
   H ( 11)  2.147295  4.283499  2.468272  4.949356
   H ( 12)  2.156798  4.286730  4.957288  2.467923  4.290390
   H ( 13)  2.117567  5.818338  5.438515  4.693954  3.672181  2.449876
   H ( 14)  2.124569  5.810922  4.691779  5.430906  2.455175  3.679951
   H ( 15)  2.202895  5.945735  5.160860  5.219054  3.137270  3.237084
             H ( 13)   H ( 14)
   H ( 14)  1.749697
   H ( 15)  1.786131  1.786678
 
 A cutoff of  1.0D-14 yielded   8359 shell pairs
 There are     54499 function pairs (     69451 Cartesian)
 Smallest overlap matrix eigenvalue = 5.92E-07
 Linear dependence detected in AO basis
 Tighter screening thresholds may be required for diffuse basis sets
 Use S2THRESH > 14 and THRESH = 14 in case of SCF convergence issues
 Number of orthogonalized atomic orbitals = 330
 Maximum deviation from orthogonality = 1.889E-10

 Scale SEOQF with 1.000000e-01/1.000000e-01/1.000000e-01

 Standard Electronic Orientation quadrupole field applied
 Nucleus-field energy     =    -0.0000000011 hartrees
 Guess from superposition of atomic densities
 Warning:  Energy on first SCF cycle will be non-variational
 SAD guess density has 49.913408 electrons

 -----------------------------------------------------------------------
  General SCF calculation program by
  Eric Jon Sundstrom, Paul Horn, Yuezhi Mao, Dmitri Zuev, Alec White,
  David Stuck, Shaama M.S., Shane Yost, Joonho Lee, David Small,
  Daniel Levine, Susi Lehtola, Hugh Burton, Evgeny Epifanovsky
 -----------------------------------------------------------------------
 Exchange:     0.1670 Hartree-Fock + 1.0000 wB97X-V + LR-HF
 Correlation:  1.0000 wB97X-V
 Using Euler-Maclaurin-Lebedev (99,590) quadrature formula
 Nonlocal Correlation:  VV10 with C = 0.0100 and b = 6.00 and scale = 1.00000
 Grid used for NLC:  SG-1 standard quadrature
Energy prior to optimization (guess energy) = -271.521022259074
Begin Timing: Total SCF Calculation
begin iterations for algorithm: DIIS         
the SCF tolerance is set to 1.00e-08
    1    -271.5210222591      1.94e-03     00000 
    2    -271.5596706931      1.23e-03     00000 
    3    -271.5808505661      1.38e-04     00000 
    4    -271.5812665118      4.85e-05     00000 
    5    -271.5813007989      1.72e-05     00000 
    6    -271.5813057813      4.58e-06     00000 
    7    -271.5813061682      2.00e-06     00000 
    8    -271.5813062383      3.24e-07     00000 
    9    -271.5813062413      6.54e-08     00000 
   10    -271.5813062414      3.48e-08     00000 
   11    -271.5813062414      6.34e-09     00000 Convergence criterion met
Timing for Total SCF: 1354.00s (wall), 2689.26s (cpu)

************** Final PCM Free Energy Summary **************
 G_electrostatic  =      -0.00253291 hartree =      -1.58942703 kcal/mol
 G_cavitation     =       0.00000000 hartree =       0.00000000 kcal/mol
 G_dispersion     =       0.00000000 hartree =       0.00000000 kcal/mol
 G_repulsion      =       0.00000000 hartree =       0.00000000 kcal/mol
 --------------------------------------------------
 Non-electrostatic Free Energy =       0.00000000 hartree =       0.00000000 kcal/mol
 Total                         =      -0.00253291 hartree =      -1.58942703 kcal/mol
 --------------------------------------------------
 SCF Energy (H0 + V/2)                       =    -271.58130624 
 Solute Internal Energy (H0)                 =    -271.57877333 
 Total Free Energy (H0 + V/2 + non-elec)     =    -271.58130624 hartree
                                             = -170419.84181305 kcal/mol
***********************************************************

E_pcm = -0.0025329132
Multipole orders to be included
        2
        3
computing dipole RHS
computing quadrupole RHS
total number of RHS in solve_reponses: 8
RHS batch sizes
        8
Beginning Block Conjugate Gradient Iterations. Batch Number: 0
computing hessian-vector products by finite difference
              1      5.51e-01     00000 Conjugate Gradient Iteration
computing hessian-vector products by finite difference
              2      1.72e-01     00000 Conjugate Gradient Iteration
computing hessian-vector products by finite difference
              3      3.89e-02     00000 Conjugate Gradient Iteration
computing hessian-vector products by finite difference
              4      9.81e-03     00000 Conjugate Gradient Iteration
computing hessian-vector products by finite difference
              5      2.03e-03     00000 Conjugate Gradient Iteration
computing hessian-vector products by finite difference
              6      6.13e-04     00000 Conjugate Gradient Iteration
computing hessian-vector products by finite difference
              7      1.65e-04     00000 Conjugate Gradient Iteration
computing hessian-vector products by finite difference
              8      2.52e-05     00000 Conjugate Gradient Iteration
computing hessian-vector products by finite difference
              9      3.27e-06     00000 Conjugate Gradient Iteration
computing hessian-vector products by finite difference
             10      4.95e-07     00000 Conjugate Gradient Iteration
computing hessian-vector products by finite difference
             11      8.76e-08     00000 Conjugate Gradient Iteration
computing hessian-vector products by finite difference
             12      1.76e-08     00000 Conjugate Gradient Iteration
computing hessian-vector products by finite difference
             13      2.36e-09     00000 CG Converged
batch 0 complete
Done Calculating Responses
TESTING ORTHOGONALIZATION OF MULTIPOLE BASIS
Multipole virts passed orthogonality test
Virts Per Order
           75
          125
 
 --------------------------------------------------------------
 
                    Orbital Energies (a.u.)
 --------------------------------------------------------------
 
 Alpha MOs
 -- Occupied --
-10.2837 -10.2754 -10.2750 -10.2729 -10.2718 -10.2703 -10.2628  -0.9953
 -0.9057  -0.8793  -0.8130  -0.7300  -0.7065  -0.6295  -0.5729  -0.5688
 -0.5362  -0.5313  -0.5132  -0.4876  -0.4725  -0.4420  -0.4418  -0.3497
 -0.3373
 -- Virtual --
  0.0626   0.0634   0.0656   0.0790   0.0845   0.1043   0.1103   0.1136
  0.1353   0.1525   0.1659   0.1664   0.1875   0.1896   0.1945   0.2005
  0.2213   0.2226   0.2333   0.2377   0.2504   0.2581   0.2603   0.2699
  0.2792   0.2803   0.2825   0.2923   0.2926   0.3004   0.3035   0.3090
  0.3187   0.3239   0.3316   0.3332   0.3488   0.3526   0.3642   0.3732
  0.3778   0.3801   0.3828   0.3880   0.3889   0.4002   0.4031   0.4076
  0.4097   0.4280   0.4285   0.4348   0.4404   0.4458   0.4503   0.4503
  0.4599   0.4663   0.4715   0.4808   0.4934   0.4936   0.5105   0.5146
  0.5172   0.5240   0.5307   0.5388   0.5419   0.5465   0.5486   0.5644
  0.5845   0.5872   0.5944   0.5986   0.6016   0.6213   0.6386   0.6421
  0.6564   0.6730   0.6810   0.6841   0.6864   0.6923   0.7187   0.7239
  0.7289   0.7327   0.7435   0.7588   0.7630   0.7636   0.7786   0.7867
  0.7883   0.7915   0.7943   0.8037   0.8073   0.8219   0.8260   0.8311
  0.8328   0.8356   0.8385   0.8512   0.8567   0.8750   0.8842   0.8939
  0.9058   0.9084   0.9332   0.9416   0.9510   1.0098   1.0173   1.0360
  1.0421   1.0575   1.0710   1.0790   1.0887   1.0950   1.1000   1.1368
  1.1614   1.1784   1.2453   1.2706   1.2936   1.3198   1.3452   1.3488
  1.3742   1.4316   1.4464   1.4563   1.4634   1.4798   1.5193   1.5307
  1.5961   1.5999   1.6148   1.6212   1.6647   1.6754   1.7325   1.7758
  1.7889   1.7964   1.8001   1.8089   1.8289   1.8674   1.8840   1.9117
  1.9163   1.9225   1.9495   1.9557   1.9791   1.9922   2.0128   2.0212
  2.0287   2.0458   2.0652   2.0924   2.1124   2.1222   2.1682   2.1742
  2.1922   2.2287   2.2365   2.2686   2.2882   2.3083   2.3937   2.3963
  2.3983   2.4020   2.4798   2.5021   2.5313   2.5484   2.5629   2.6101
  2.6112   2.6171   2.6709   2.6743   2.6894   2.7011   2.7499   2.7653
  2.7762   2.8034   2.8189   2.8418   2.8539   2.8968   2.9025   2.9123
  2.9339   2.9366   2.9505   2.9699   2.9840   3.0172   3.0187   3.0465
  3.0597   3.0850   3.0937   3.1184   3.1792   3.1938   3.2012   3.2193
  3.2273   3.2338   3.2870   3.3023   3.3238   3.3538   3.3608   3.3758
  3.4003   3.4394   3.4460   3.4492   3.4601   3.4713   3.4885   3.4921
  3.5034   3.5225   3.5339   3.5412   3.5543   3.5600   3.5866   3.6010
  3.6103   3.6281   3.6416   3.6821   3.6946   3.7443   3.7774   3.8087
  3.8278   3.8793   3.9083   3.9403   3.9458   3.9934   4.0255   4.0465
  4.1099   4.1950   4.2605   4.2678   4.2849   4.3094   4.3121   4.3263
  4.3395   4.3623   4.3763   4.3852   4.4187   4.4312   4.4668   4.5185
  4.5877   4.6231   4.7351   4.7495   4.8219   4.8784   4.9005   4.9415
  5.0112   5.0425   5.1573   5.2557   5.3489   5.3611   5.4886   5.5222
  5.6613   5.8410  22.5798  22.6595  22.8667  22.8836  22.9961  23.0472
 23.3938
 --------------------------------------------------------------
 
          Ground-State Mulliken Net Atomic Charges

     Atom                 Charge (a.u.)
  ----------------------------------------
      1 C                    -1.032862
      2 C                    -0.477153
      3 C                    -0.506784
      4 C                    -0.493297
      5 C                    -0.349180
      6 C                    -0.387944
      7 C                     0.874654
      8 H                     0.335081
      9 H                     0.313280
     10 H                     0.314361
     11 H                     0.327203
     12 H                     0.324185
     13 H                     0.272994
     14 H                     0.270256
     15 H                     0.215206
  ----------------------------------------
  Sum of atomic charges =     0.000000

 -----------------------------------------------------------------
                    Cartesian Multipole Moments
 -----------------------------------------------------------------
    Charge (ESU x 10^10)
                 0.0000
    Dipole Moment (Debye)
         X      -0.2326      Y       0.0941      Z      -0.4159
       Tot       0.4857
    Quadrupole Moments (Debye-Ang)
        XX     -39.5605     XY       2.5990     YY     -41.2577
        XZ       4.0117     YZ      -2.7915     ZZ     -39.6254
    Octopole Moments (Debye-Ang^2)
       XXX     308.0486    XXY       6.2347    XYY     101.4701
       YYY      53.4325    XXZ      38.6929    XYZ       2.0522
       YYZ      58.3647    XZZ      96.9150    YZZ      22.1222
       ZZZ     162.0012
    Hexadecapole Moments (Debye-Ang^3)
      XXXX   -1903.6451   XXXY    -116.3299   XXYY    -344.4046
      XYYY    -149.1265   YYYY    -283.8164   XXXZ    -468.1891
      XXYZ       6.0981   XYYZ    -181.1292   YYYZ      -9.5585
      XXZZ    -437.1840   XYZZ     -57.3097   YYZZ    -193.4349
      XZZZ    -515.5251   YZZZ     -11.5965   ZZZZ    -875.2482
 -----------------------------------------------------------------
Archival summary:
1\1\nid00551\SP\ProcedureUnspecified\BasisUnspecified\78\meili\MonSep2700:02:012021MonSep2700:02:012021\0\\#,ProcedureUnspecified,BasisUnspecified,\\0,1\C\C,1,1.39504\H,2,1.08054,1,119.775\C,2,1.39345,1,120.868,3,-178.874,0\H,4,1.08123,2,120.282,1,179.214,0\C,4,1.3993,2,119.675,1,-0.440623,0\H,6,1.07902,4,120.187,2,179.948,0\C,1,1.40149,2,119.295,3,179.934,0\H,8,1.08014,1,120.155,2,179.803,0\C,8,1.3943,1,120.337,2,-1.23864,0\H,10,1.08036,8,120.095,1,-179.458,0\C,1,1.50897,2,119.699,3,0.921154,0\H,12,1.08892,1,108.653,2,34.5002,0\H,12,1.08981,1,108.056,2,150.084,0\H,12,1.1,1,114.293,2,-88.0037,0\\\@

 Total job time:  30051.07s(wall), 59580.35s(cpu) 
 Mon Sep 27 00:02:04 2021

        *************************************************************
        *                                                           *
        *  Thank you very much for using Q-Chem.  Have a nice day.  *
        *                                                           *
        *************************************************************


Done Job For Fragment 1
calling putenv with: QCSCRATCH=/global/cscratch1/sd/meili 
calling putenv with: QCLOCALSCR=/tmp 
calling putenv with: QCTHREADS=32 
Doing General SCFMI
 Exchange:     0.1670 Hartree-Fock + 1.0000 wB97X-V + LR-HF
 Correlation:  1.0000 wB97X-V
 Using Euler-Maclaurin-Lebedev (99,590) quadrature formula
 Nonlocal Correlation:  VV10 with C = 0.0100 and b = 6.00 and scale = 1.00000
 Grid used for NLC:  SG-1 standard quadrature
performing fock build before subrot guess so that all methods have access
Printing subrot_rss_gen Method Specification:
Occupied Subspace Method is 0
Virtual Subspace Method is 0
Energy of the unrelaxed supersystem initial determinant -618.392527039079
performing fock build before subrot guess so that all methods have access
Printing subrot_rss_gen Method Specification:
Occupied Subspace Method is 0
Virtual Subspace Method is 0
Energy of the unrelaxed supersystem initial determinant w/ solvent -618.400525592688
write pseudocanon occs and virts to disk
write pseudocanon orbital energies to disk
Tolerance of ortho_decomp_scf: 1.00e-06
GDM subspace size: 20
Beginning the Orthogonal Decomposition of the Initial Supersystem Wavefunction
    1    -618.3744912619      1.66e-02     ortho_decomp Preconditoned Steepest Descent
    2    -618.3758711179      4.05e-04     ortho_decomp BFGS Step
    3    -618.3758753336      3.21e-05     ortho_decomp BFGS Step
    4    -618.3758753433      1.40e-06     ortho_decomp BFGS Step
    5    -618.3758753433      5.22e-08     ortho_decomp 00000 Convergence criterion met
 Hartree-Fock
 Hartree-Fock
 Hartree-Fock
Doing General SCFMI
 Exchange:     0.1670 Hartree-Fock + 1.0000 wB97X-V + LR-HF
 Correlation:  1.0000 wB97X-V
 Using Euler-Maclaurin-Lebedev (99,590) quadrature formula
 Nonlocal Correlation:  VV10 with C = 0.0100 and b = 6.00 and scale = 1.00000
 Grid used for NLC:  SG-1 standard quadrature
performing fock build at end of subrot_r(subrot) constructor so that all methods have access
<S^2> of initial wavefunction before polarization iterations 0.0000000000
Beginning iterations for the determination of the polarized wavefunction
Energy prior to optimization (guess energy) = -618.400525592688
Begin Timing: Total SCF Calculation
begin iterations for algorithm: DIIS         
the SCF tolerance is set to 1.00e-08
    1    -618.4005255927      4.20e-05     00000 
    2    -618.4007389049      1.90e-05     00000 
    3    -618.4007626496      1.09e-05     00000 
    4    -618.4007723839      2.92e-06     00000 
    5    -618.4007733304      1.47e-06     00000 
    6    -618.4007735625      6.70e-07     00000 
    7    -618.4007736009      2.86e-07     00000 
    8    -618.4007736061      1.50e-07     00000 
    9    -618.4007736073      6.45e-08     00000 
   10    -618.4007736075      3.31e-08     00000 
   11    -618.4007736076      1.32e-08     00000 
   12    -618.4007736076      5.32e-09     00000 Convergence criterion met
write pseudocanon occs and virts to disk
write pseudocanon orbital energies to disk
Timing for Total SCF: 11851.00s (wall), 23607.37s (cpu)
<S^2> of polarized wavefunction after polarization iterations 0.0000000000
relaxing scfmi constraint to allow all rotations in the entire AO span
Doing General SCFMI
 Exchange:     0.1670 Hartree-Fock + 1.0000 wB97X-V + LR-HF
 Correlation:  1.0000 wB97X-V
 Using Euler-Maclaurin-Lebedev (99,590) quadrature formula
 Nonlocal Correlation:  VV10 with C = 0.0100 and b = 6.00 and scale = 1.00000
 Grid used for NLC:  SG-1 standard quadrature
performing fock build at end of subrot_r(subrot) constructor so that all methods have access
<S^2> of polarized wavefunction before ct-allowed iterations 0.0000000000
Beginning iterations for the determination of the CT-Allowed wavefunction
Energy prior to optimization (guess energy) = -618.400773607578
Begin Timing: Total SCF Calculation
begin iterations for algorithm: DIIS         
the SCF tolerance is set to 1.00e-08
    1    -618.4007736076      5.83e-05     00000 
    2    -618.4015662661      5.78e-06     00000 
    3    -618.4015896486      1.02e-06     00000 
    4    -618.4015904700      4.73e-07     00000 
    5    -618.4015905327      1.23e-07     00000 
    6    -618.4015905393      4.61e-08     00000 
    7    -618.4015905400      1.07e-08     00000 
    8    -618.4015905400      4.74e-09     00000 Convergence criterion met
write pseudocanon occs and virts to disk
write pseudocanon orbital energies to disk
Timing for Total SCF: 7197.00s (wall), 14332.58s (cpu)
<S^2> of ct_allowed wavefunction after ct-allowed iterations 0.0000000000

================================
        Results of EDA2         
================================
Basic EDA Quantities
--------------------
Fragment Energies (Ha):
1 -346.8159463503
2 -271.5813062414
--------------------
  E_prp (kJ/mol) = 0.0000
  E_sol (kJ/mol) = 0.5220
  E_frz (kJ/mol) = -9.1154
  E_pol (kJ/mol) = -0.6512
  E_vct (kJ/mol) = -2.1449
  E_int (kJ/mol) = -11.3894
--------------------


Initial Wavefunction Decomposition
--------------------
  --------------------
  Orthogonal Fragment Subspace Decomposition:
  --------------------
     E_elec   (ELEC)   (kJ/mol) = -17.6526
     E_pauli  (PAULI)  (kJ/mol) = 26.3566
     E_disp   (DISP)   (kJ/mol) = -17.8194
     --------------------
     Terms summing to E_pauli:
     --------------------
        E_kep_pauli       (kJ/mol) = 34.6042
        E_disp_free_pauli (kJ/mol) = -8.2475
  --------------------
  Classical Frozen Decomposition:
  --------------------
     E_cls_elec  (CLS ELEC)  (kJ/mol) = -6.4182
     E_cls_pauli (CLS PAULI) (kJ/mol) = -2.6972
    [E_mod_pauli (MOD PAULI) (kJ/mol) = 15.1222 (CLS PAULI - DISP from orthogonal decomposition) ]
  --------------------
--------------------

Simplified EDA Summary (kJ/mol)
--------------------
 PREPARATION     0.0000
 SOLVATION       0.5220
 FROZEN          8.7040      (does not include dispersion)
[PAULI           26.3566]     (if this is negligible, then frozen describes electrostatics)
 DISPERSION      -17.8194
 POLARIZATION    -0.6512
 CHARGE TRANSFER -2.1449
 TOTAL           -11.3894     (PRP + SOL + FRZ + DISP + POL + CT)
--------------------
 
 --------------------------------------------------------------
 
                    Orbital Energies (a.u.)
 --------------------------------------------------------------
 
 Alpha MOs
 -- Occupied --
-19.2454 -10.3383 -10.2826 -10.2785 -10.2771 -10.2762 -10.2762 -10.2740
-10.2732 -10.2726 -10.2706 -10.2704 -10.2689 -10.2624 -10.2623  -1.1950
 -0.9956  -0.9936  -0.9044  -0.9025  -0.8847  -0.8778  -0.8121  -0.8115
 -0.7495  -0.7284  -0.7161  -0.7051  -0.6679  -0.6283  -0.6040  -0.5821
 -0.5717  -0.5676  -0.5522  -0.5432  -0.5357  -0.5351  -0.5293  -0.5217
 -0.5123  -0.5110  -0.4868  -0.4773  -0.4712  -0.4574  -0.4448  -0.4427
 -0.4401  -0.4385  -0.3538  -0.3479  -0.3360  -0.3146
 -- Virtual --
  0.0536   0.0547   0.0623   0.0628   0.0644   0.0687   0.0756   0.0789
  0.0872   0.0943   0.0954   0.1012   0.1099   0.1128   0.1191   0.1287
  0.1301   0.1414   0.1429   0.1489   0.1502   0.1580   0.1611   0.1701
  0.1745   0.1756   0.1841   0.1905   0.1947   0.1966   0.2009   0.2131
  0.2164   0.2189   0.2217   0.2266   0.2312   0.2389   0.2410   0.2442
  0.2489   0.2505   0.2547   0.2592   0.2617   0.2651   0.2717   0.2737
  0.2774   0.2796   0.2829   0.2863   0.2892   0.2913   0.2940   0.2978
  0.3000   0.3022   0.3083   0.3116   0.3142   0.3165   0.3199   0.3227
  0.3279   0.3321   0.3355   0.3378   0.3398   0.3448   0.3474   0.3508
  0.3543   0.3567   0.3582   0.3639   0.3662   0.3693   0.3730   0.3746
  0.3773   0.3793   0.3818   0.3822   0.3869   0.3916   0.3957   0.3989
  0.4005   0.4032   0.4054   0.4116   0.4174   0.4211   0.4220   0.4268
  0.4276   0.4324   0.4350   0.4359   0.4391   0.4443   0.4490   0.4535
  0.4553   0.4575   0.4619   0.4624   0.4652   0.4692   0.4714   0.4730
  0.4796   0.4801   0.4841   0.4895   0.4946   0.4960   0.4996   0.5032
  0.5042   0.5073   0.5113   0.5126   0.5163   0.5226   0.5279   0.5308
  0.5355   0.5369   0.5407   0.5435   0.5536   0.5551   0.5582   0.5629
  0.5664   0.5712   0.5758   0.5792   0.5817   0.5847   0.5879   0.5894
  0.5919   0.6007   0.6103   0.6130   0.6163   0.6227   0.6273   0.6313
  0.6367   0.6448   0.6465   0.6513   0.6582   0.6608   0.6635   0.6674
  0.6745   0.6770   0.6809   0.6830   0.6853   0.6900   0.6933   0.6977
  0.7022   0.7106   0.7153   0.7189   0.7263   0.7284   0.7327   0.7377
  0.7402   0.7433   0.7452   0.7502   0.7527   0.7603   0.7631   0.7663
  0.7698   0.7746   0.7783   0.7804   0.7831   0.7852   0.7877   0.7913
  0.7958   0.7975   0.8020   0.8061   0.8114   0.8142   0.8157   0.8166
  0.8214   0.8263   0.8296   0.8346   0.8392   0.8408   0.8422   0.8496
  0.8514   0.8591   0.8604   0.8608   0.8655   0.8707   0.8759   0.8766
  0.8804   0.8841   0.8903   0.8943   0.9033   0.9073   0.9112   0.9167
  0.9227   0.9250   0.9344   0.9366   0.9483   0.9536   0.9616   0.9710
  0.9771   0.9803   0.9821   0.9935   1.0015   1.0081   1.0199   1.0285
  1.0347   1.0351   1.0415   1.0460   1.0540   1.0610   1.0679   1.0693
  1.0771   1.0835   1.0907   1.0967   1.1053   1.1111   1.1147   1.1220
  1.1279   1.1441   1.1497   1.1643   1.1680   1.1801   1.1847   1.1953
  1.1998   1.2095   1.2163   1.2285   1.2347   1.2488   1.2845   1.2919
  1.3068   1.3176   1.3364   1.3433   1.3523   1.3624   1.3647   1.3694
  1.3772   1.3873   1.3902   1.4214   1.4259   1.4426   1.4485   1.4547
  1.4689   1.4743   1.4836   1.4878   1.4993   1.5054   1.5122   1.5240
  1.5376   1.5585   1.5606   1.5680   1.5712   1.6058   1.6154   1.6260
  1.6352   1.6466   1.6540   1.6597   1.6769   1.6912   1.6966   1.7099
  1.7162   1.7377   1.7551   1.7889   1.8030   1.8048   1.8071   1.8183
  1.8259   1.8377   1.8454   1.8521   1.8649   1.8733   1.8965   1.9071
  1.9186   1.9228   1.9334   1.9381   1.9442   1.9531   1.9618   1.9659
  1.9693   1.9812   1.9874   1.9957   2.0028   2.0168   2.0255   2.0282
  2.0416   2.0506   2.0554   2.0581   2.0676   2.0752   2.0881   2.0963
  2.0986   2.1060   2.1159   2.1261   2.1363   2.1528   2.1630   2.1732
  2.1759   2.1850   2.2026   2.2117   2.2198   2.2335   2.2394   2.2510
  2.2535   2.2545   2.2776   2.2798   2.2947   2.2998   2.3027   2.3306
  2.3345   2.3442   2.3623   2.3746   2.3828   2.4054   2.4120   2.4223
  2.4299   2.4415   2.4474   2.4616   2.4736   2.5064   2.5202   2.5211
  2.5322   2.5457   2.5659   2.5794   2.5903   2.6021   2.6053   2.6137
  2.6219   2.6264   2.6354   2.6391   2.6653   2.6819   2.6988   2.7026
  2.7101   2.7158   2.7227   2.7385   2.7490   2.7576   2.7639   2.7823
  2.7875   2.7911   2.7994   2.8111   2.8281   2.8391   2.8412   2.8574
  2.8667   2.8763   2.8823   2.9121   2.9226   2.9278   2.9312   2.9391
  2.9490   2.9529   2.9565   2.9700   2.9745   2.9773   2.9800   3.0006
  3.0042   3.0103   3.0193   3.0321   3.0439   3.0453   3.0503   3.0616
  3.0815   3.0834   3.0938   3.0984   3.1114   3.1152   3.1353   3.1366
  3.1428   3.1653   3.1890   3.2021   3.2057   3.2159   3.2217   3.2236
  3.2423   3.2453   3.2604   3.2678   3.2780   3.2857   3.2981   3.3067
  3.3121   3.3285   3.3359   3.3463   3.3611   3.3679   3.3808   3.3869
  3.3938   3.4032   3.4180   3.4266   3.4341   3.4496   3.4551   3.4573
  3.4741   3.4779   3.4792   3.4830   3.4914   3.4951   3.5002   3.5113
  3.5139   3.5225   3.5249   3.5335   3.5384   3.5446   3.5520   3.5557
  3.5584   3.5641   3.5700   3.5796   3.5855   3.5908   3.5972   3.6066
  3.6119   3.6215   3.6255   3.6278   3.6320   3.6529   3.6606   3.6689
  3.6718   3.6809   3.6927   3.7010   3.7027   3.7145   3.7318   3.7510
  3.7752   3.8006   3.8124   3.8220   3.8320   3.8367   3.8479   3.8883
  3.8970   3.9261   3.9405   3.9556   3.9606   3.9691   3.9929   4.0097
  4.0118   4.0431   4.0446   4.0731   4.0886   4.1326   4.1469   4.1695
  4.2356   4.2610   4.2792   4.2830   4.2880   4.2994   4.3035   4.3101
  4.3186   4.3211   4.3288   4.3376   4.3429   4.3508   4.3605   4.3682
  4.3720   4.3749   4.3954   4.4019   4.4086   4.4310   4.4477   4.4517
  4.4650   4.4886   4.4969   4.5416   4.5449   4.6062   4.6149   4.6283
  4.6323   4.7238   4.7441   4.7494   4.7625   4.7903   4.8160   4.8268
  4.8772   4.8874   4.9260   4.9379   4.9742   5.0312   5.0486   5.0566
  5.0798   5.1022   5.1250   5.1712   5.1822   5.2766   5.3064   5.3184
  5.3689   5.3720   5.4009   5.4438   5.4990   5.5299   5.5381   5.6142
  5.6441   5.6908   5.7082   5.7625   5.8307   5.9420   6.2083   6.4695
  6.5947   6.6580   6.8793   7.0211   7.3072   7.4594  22.6580  22.6751
 22.6851  22.7959  22.9098  22.9338  22.9726  23.0150  23.0240  23.0572
 23.0791  23.1954  23.4167  23.4942  44.4499
 --------------------------------------------------------------
 
          Ground-State Mulliken Net Atomic Charges

     Atom                 Charge (a.u.)
  ----------------------------------------
      1 C                    -1.257317
      2 C                    -0.407410
      3 C                     0.892718
      4 C                    -0.699351
      5 C                    -0.598355
      6 C                     0.743893
      7 C                    -0.441495
      8 O                    -0.499112
      9 H                     0.305363
     10 H                     0.305007
     11 H                     0.283847
     12 H                     0.271368
     13 H                     0.302495
     14 H                     0.277897
     15 H                     0.303806
     16 H                     0.250385
     17 C                    -1.065552
     18 C                    -0.229615
     19 C                    -0.017946
     20 C                    -0.685335
     21 C                    -0.695843
     22 C                    -0.379395
     23 C                     0.565565
     24 H                     0.431537
     25 H                     0.233013
     26 H                     0.335697
     27 H                     0.342473
     28 H                     0.354833
     29 H                     0.279783
     30 H                     0.277817
     31 H                     0.219227
  ----------------------------------------
  Sum of atomic charges =     0.000000

 -----------------------------------------------------------------
                    Cartesian Multipole Moments
 -----------------------------------------------------------------
    Charge (ESU x 10^10)
                 0.0000
    Dipole Moment (Debye)
         X       1.0751      Y      -0.4195      Z      -1.6517
       Tot       2.0150
    Quadrupole Moments (Debye-Ang)
        XX     -83.6094     XY       5.4338     YY     -85.3192
        XZ      -2.1535     YZ      -8.2870     ZZ     -88.0937
    Octopole Moments (Debye-Ang^2)
       XXX      11.1014    XXY      10.8915    XYY      21.8516
       YYY      25.6650    XXZ     -34.2360    XYZ      -9.0721
       YYZ      -7.9427    XZZ     -15.0541    YZZ       0.2447
       ZZZ       5.4150
    Hexadecapole Moments (Debye-Ang^3)
      XXXX   -3381.8123   XXXY    -134.7915   XXYY    -664.7031
      XYYY    -155.1070   YYYY   -1208.6036   XXXZ    -821.6759
      XXYZ     -39.1693   XYYZ    -302.8855   YYYZ    -128.9922
      XXZZ    -818.3329   XYZZ    -107.4437   YYZZ    -478.8646
      XZZZ    -827.9288   YZZZ     -85.4370   ZZZZ   -1460.5433
 -----------------------------------------------------------------
Archival summary:
1\1\nid00551\SP\ProcedureUnspecified\BasisUnspecified\11416\meili\MonSep2709:56:072021MonSep2709:56:072021\0\\#,ProcedureUnspecified,BasisUnspecified,\\0,1\C\O,1,1.36849\H,2,0.959426,1,111.776\C,1,1.38829,2,119.095,3,-4.93821,0\H,4,1.08016,1,120.519,2,0.0632467,0\C,4,1.38964,1,119.562,2,-179.209,0\H,6,1.08171,4,118.982,1,178.508,0\C,1,1.39958,2,120.684,3,175.565,0\H,8,1.07984,1,119.715,2,-1.17711,0\C,6,1.40201,4,121.483,1,-0.573442,0\C,10,1.39362,6,118.672,4,-0.21548,0\H,11,1.07129,10,119.085,6,-176.101,0\C,10,1.51061,6,120.463,4,-179.39,0\H,13,1.08915,10,108.081,6,-29.9549,0\H,13,1.08927,10,109.681,6,-145.719,0\H,13,1.1,10,114.068,6,90.7297,0\H,12,2.67301,11,81.6257,10,-84.0167,0\C,17,1.07902,12,159.986,11,-15.5871,0\C,18,1.3993,17,120.187,12,-1.90036,0\H,19,1.08123,18,120.042,17,0.291968,0\C,19,1.39345,18,119.675,17,179.948,0\H,21,1.08054,19,119.347,18,-179.319,0\C,21,1.39504,19,120.868,18,-0.440623,0\C,23,1.40149,21,119.295,19,1.06038,0\H,24,1.08014,23,120.155,21,179.803,0\C,24,1.3943,23,120.337,21,-1.23864,0\H,26,1.08036,24,120.095,23,-179.458,0\C,23,1.50897,21,119.699,19,-177.953,0\H,28,1.08892,23,108.653,21,34.5002,0\H,28,1.08981,23,108.056,21,150.084,0\H,28,1.1,23,114.293,21,-88.0037,0\\\@

 Total job time:  110283.20s(wall), 71736.04s(cpu) 
 Mon Sep 27 09:56:09 2021

        *************************************************************
        *                                                           *
        *  Thank you very much for using Q-Chem.  Have a nice day.  *
        *                                                           *
        *************************************************************


