
Running Job 1 of 1 SSI-037ASN-067GLU-1_SMD_TZVPD.in
qchem SSI-037ASN-067GLU-1_SMD_TZVPD.in_7832.0 /tmp/qchem7832/ 0
/global/common/cori/software/qchem/5.2/exe/qcprog.exe_s SSI-037ASN-067GLU-1_SMD_TZVPD.in_7832.0 /tmp/qchem7832/
                  Welcome to Q-Chem
     A Quantum Leap Into The Future Of Chemistry


 Q-Chem 5.2, Q-Chem, Inc., Pleasanton, CA (2019)

 License issued to: National Energy Research Scientific Computing Center

 Yihan Shao,  Zhengting Gan,  E. Epifanovsky,  A. T. B. Gilbert,  M. Wormit,  
 J. Kussmann,  A. W. Lange,  A. Behn,  Jia Deng,  Xintian Feng,  D. Ghosh,  
 M. Goldey,  P. R. Horn,  L. D. Jacobson,  I. Kaliman,  T. Kus,  A. Landau,  
 Jie Liu,  E. I. Proynov,  R. M. Richard,  R. P. Steele,  E. J. Sundstrom,  
 H. L. Woodcock III,  P. M. Zimmerman,  D. Zuev,  B. Albrecht,  E. Alguire,  
 S. A. Baeppler,  D. Barton,  Z. Benda,  Y. A. Bernard,  E. J. Berquist,  
 K. B. Bravaya,  H. Burton,  D. Casanova,  Chun-Min Chang,  Yunqing Chen,  
 A. Chien,  K. D. Closser,  M. P. Coons,  S. Coriani,  S. Dasgupta,  
 A. L. Dempwolff,  M. Diedenhofen,  Hainam Do,  R. G. Edgar,  Po-Tung Fang,  
 S. Faraji,  S. Fatehi,  Qingguo Feng,  K. D. Fenk,  J. Fosso-Tande,  
 J. Gayvert,  Qinghui Ge,  A. Ghysels,  G. Gidofalvi,  J. Gomes,  
 J. Gonthier,  A. Gunina,  D. Hait,  M. W. D. Hanson-Heine,  
 P. H. P. Harbach,  A. W. Hauser,  M. F. Herbst,  J. E. Herr,  
 E. G. Hohenstein,  Z. C. Holden,  Kerwin Hui,  B. C. Huynh,  T.-C. Jagau,  
 Hyunjun Ji,  B. Kaduk,  K. Khistyaev,  Jaehoon Kim,  P. Klunzinger,  K. Koh,  
 D. Kosenkov,  L. Koulias,  T. Kowalczyk,  C. M. Krauter,  A. Kunitsa,  
 Ka Un Lao,  A. Laurent,  K. V. Lawler,  Joonho Lee,  D. Lefrancois,  
 S. Lehtola,  D. S. Levine,  Yi-Pei Li,  You-Sheng Lin,  Fenglai Liu,  
 E. Livshits,  A. Luenser,  P. Manohar,  E. Mansoor,  S. F. Manzer,  
 Shan-Ping Mao,  Yuezhi Mao,  N. Mardirossian,  A. V. Marenich,  
 T. Markovich,  L. A. Martinez-Martinez,  S. A. Maurer,  N. J. Mayhall,  
 S. C. McKenzie,  J.-M. Mewes,  P. Morgante,  A. F. Morrison,  
 J. W. Mullinax,  K. Nanda,  T. S. Nguyen-Beck,  R. Olivares-Amaya,  
 J. A. Parkhill,  Zheng Pei,  T. M. Perrine,  F. Plasser,  P. Pokhilko,  
 S. Prager,  A. Prociuk,  E. Ramos,  D. R. Rehn,  F. Rob,  M. Scheurer,  
 M. Schneider,  N. Sergueev,  S. M. Sharada,  S. Sharma,  D. W. Small,  
 T. Stauch,  T. Stein,  Yu-Chuan Su,  A. J. W. Thom,  A. Tkatchenko,  
 T. Tsuchimochi,  N. M. Tubman,  L. Vogt,  M. L. Vidal,  O. Vydrov,  
 M. A. Watson,  J. Wenzel,  M. de Wergifosse,  T. A. Wesolowski,  A. White,  
 J. Witte,  A. Yamada,  Jun Yang,  K. Yao,  S. Yeganeh,  S. R. Yost,  
 Zhi-Qiang You,  A. Zech,  Igor Ying Zhang,  Xing Zhang,  Yan Zhao,  
 Ying Zhu,  B. R. Brooks,  G. K. L. Chan,  C. J. Cramer,  M. S. Gordon,  
 W. J. Hehre,  A. Klamt,  M. W. Schmidt,  C. D. Sherrill,  D. G. Truhlar,  
 A. Aspuru-Guzik,  R. Baer,  A. T. Bell,  N. A. Besley,  Jeng-Da Chai,  
 A. E. DePrince, III,  R. A. DiStasio Jr.,  A. Dreuw,  B. D. Dunietz,  
 T. R. Furlani,  Chao-Ping Hsu,  Yousung Jung,  Jing Kong,  D. S. Lambrecht,  
 WanZhen Liang,  C. Ochsenfeld,  V. A. Rassolov,  L. V. Slipchenko,  
 J. E. Subotnik,  T. Van Voorhis,  J. M. Herbert,  A. I. Krylov,  
 P. M. W. Gill,  M. Head-Gordon

 Contributors to earlier versions of Q-Chem not listed above: 
 R. D. Adamson,  B. Austin,  J. Baker,  G. J. O. Beran,  K. Brandhorst,  
 S. T. Brown,  E. F. C. Byrd,  A. K. Chakraborty,  C.-L. Cheng,  
 Siu Hung Chien,  D. M. Chipman,  D. L. Crittenden,  H. Dachsel,  
 R. J. Doerksen,  A. D. Dutoi,  L. Fusti-Molnar,  W. A. Goddard III,  
 A. Golubeva-Zadorozhnaya,  S. R. Gwaltney,  G. Hawkins,  A. Heyden,  
 S. Hirata,  G. Kedziora,  F. J. Keil,  C. Kelley,  Jihan Kim,  R. A. King,  
 R. Z. Khaliullin,  P. P. Korambath,  W. Kurlancheek,  A. M. Lee,  M. S. Lee,  
 S. V. Levchenko,  Ching Yeh Lin,  D. Liotard,  R. C. Lochan,  I. Lotan,  
 P. E. Maslen,  N. Nair,  D. P. O'Neill,  D. Neuhauser,  E. Neuscamman,  
 C. M. Oana,  R. Olson,  B. Peters,  R. Peverati,  P. A. Pieniazek,  
 Y. M. Rhee,  J. Ritchie,  M. A. Rohrdanz,  E. Rosta,  N. J. Russ,  
 H. F. Schaefer III,  N. E. Schultz,  N. Shenvi,  A. C. Simmonett,  A. Sodt,  
 D. Stuck,  K. S. Thanthiriwatte,  V. Vanovschi,  Tao Wang,  A. Warshel,  
 C. F. Williams,  Q. Wu,  X. Xu,  W. Zhang

 Please cite Q-Chem as follows:
 Y. Shao et al., Mol. Phys. 113, 184-215 (2015)
 DOI: 10.1080/00268976.2014.952696

 Q-Chem 5.2.0 for Intel X86 EM64T Linux

 Parts of Q-Chem use Armadillo 8.300.2 (Tropical Shenanigans).
 http://arma.sourceforge.net/

 Q-Chem begins on Sun Sep 26 05:53:12 2021  

Host: cori01
0

     Scratch files written to /tmp/qchem7832//
 May1019 |scratch|qcdevops|jenkins|workspace|build_RNUM -1
Processing $rem in /global/common/cori/software/qchem/5.2/config/preferences:
	 MEM_TOTAL  96000 
NAlpha2: 64
NElect   64
Mult     1
Symmetry turned off for PCM/SM12/SMD calculation

 Q-Chem warning in module libgen/rem_setup.C, line 2803:

 Neither GIA nor STOLL is specified by user. Use STOLL as the default


Checking the input file for inconsistencies... 	...done.

--------------------------------------------------------------
User input:
--------------------------------------------------------------
$comment
SSI-037ASN-067GLU-1.pdb
$end

$molecule
-1 1
--
0 1
C    1.451543587070    1.516861201005    0.817532502796
C    0.278543587070    1.253861201005    1.712532502796
O   -0.760456412930    1.883861201005    1.565532502796
N    0.416543587070    0.299861201005    2.640532502796
H    1.471543587070    0.761861201005    0.034532502796
H    2.368543587070    1.405861201005    1.396532502796
H   -0.366456412930    0.095861201005    3.240532502796
H    1.271543587070   -0.231138798995    2.701532502796
H    1.443633587070    2.521081201005    0.368652502796
--
-1 1
C   -1.080456412930   -2.281138798995   -2.377467497204
C   -0.302456412930   -1.161138798995   -1.670467497204
O   -0.591456412930   -0.933138798995   -0.474467497204
O    0.584543587070   -0.510138798995   -2.273467497204
H   -2.141456412930   -2.125138798995   -2.181467497204
H   -0.812456412930   -3.245138798995   -1.939467497204
H   -0.977536412930   -2.345913798995   -3.470727497204
$end

$rem
JOBTYPE			EDA
EDA2			1
method			wB97X-V
BASIS			def2-TZVPD
XC_GRID			000099000590
NL_GRID			1
UNRESTRICTED		FALSE
MAX_SCF_CYCLES		200
SYMMETRY		FALSE
SYM_IGNORE		TRUE
MEM_STATIC		2000
BASIS_LIN_DEP_THRESH 	6
THRESH 			14
SCF_CONVERGENCE 	8
SCF_PRINT_FRGM 		TRUE
SOLVENT_METHOD          SMD
$end

$SMX
SOLVENT			WATER
$END
--------------------------------------------------------------
 ----------------------------------------------------------------
             Standard Nuclear Orientation (Angstroms)
    I     Atom           X                Y                Z
 ----------------------------------------------------------------
    1      C       1.4515435871     1.5168612010     0.8175325028
    2      C       0.2785435871     1.2538612010     1.7125325028
    3      O      -0.7604564129     1.8838612010     1.5655325028
    4      N       0.4165435871     0.2998612010     2.6405325028
    5      H       1.4715435871     0.7618612010     0.0345325028
    6      H       2.3685435871     1.4058612010     1.3965325028
    7      H      -0.3664564129     0.0958612010     3.2405325028
    8      H       1.2715435871    -0.2311387990     2.7015325028
    9      H       1.4436335871     2.5210812010     0.3686525028
   10      C      -1.0804564129    -2.2811387990    -2.3774674972
   11      C      -0.3024564129    -1.1611387990    -1.6704674972
   12      O      -0.5914564129    -0.9331387990    -0.4744674972
   13      O       0.5845435871    -0.5101387990    -2.2734674972
   14      H      -2.1414564129    -2.1251387990    -2.1814674972
   15      H      -0.8124564129    -3.2451387990    -1.9394674972
   16      H      -0.9775364129    -2.3459137990    -3.4707274972
 ----------------------------------------------------------------
 Nuclear Repulsion Energy =         354.25355487 hartrees
 There are       32 alpha and       32 beta electrons
 Requested basis set is def2-TZVPD
 There are 147 shells and 377 basis functions

 Total QAlloc Memory Limit  96000 MB
 Mega-Array Size      1956 MB
 MEM_STATIC part      2000 MB
 
 Citation of the SMD model:
 Marenich, A.V.; Cramer, C.J.; Truhlar, D.G.
 J. Phys. Chem. B 2009, 113, 6378-6396.
 iSolventCode=           1
 Solvent: water                                                           
 
 vradii
            1           2           3           4           5           6
    1   1.8500000   1.8500000   1.5200000   1.8900000   1.2000000   1.2000000
            7           8           9          10          11          12
    1   1.2000000   1.2000000   1.2000000   1.8500000   1.8500000   1.5200000
           13          14          15          16
    1   1.5200000   1.2000000   1.2000000   1.2000000
 Changing PCM_VDW_RADII to SMD_RADIUS
 Discretize the solute cavity surface with Lebedev spheres
	Using 110 Lebedev grid points for each H atom
	Using 194 Lebedev grid points for other atoms
	Atomic van der Waals radii will be scaled by 1.20
 Remove points where switching function is < 1.0e-08
 Keep 1387 surface tesserae and discard 1045 interior tesserae
 Molecular Surface Area = 168.023 Angst**2
 A cutoff of  1.0D-14 yielded   9744 shell pairs
 There are     64690 function pairs (     81876 Cartesian)
 Smallest overlap matrix eigenvalue = 6.58E-06

 Scale SEOQF with 1.000000e-01/1.000000e-01/1.000000e-01

 Standard Electronic Orientation quadrupole field applied
 Nucleus-field energy     =    -0.0000000130 hartrees

 -----------------------------------------------------------------------
  General SCF calculation program by
  Eric Jon Sundstrom, Paul Horn, Yuezhi Mao, Dmitri Zuev, Alec White,
  David Stuck, Shaama M.S., Shane Yost, Joonho Lee, David Small,
  Daniel Levine, Susi Lehtola, Hugh Burton, Evgeny Epifanovsky
 -----------------------------------------------------------------------
================================================================
                 ALMO-EDA with the EDA2 driver                  
================================================================
 The second-generation ALMO-EDA (for DFT):                      
 P. R. Horn, Y. Mao and M. Head-Gordon, PCCP, 18, 23067 (2016)  
 Decomposition of the frozen energy:                            
 P. R. Horn, Y. Mao and M. Head-Gordon, JCP, 144, 114107 (2016) 
 FERF model for polarization:                                   
 P. R. Horn and M. Head-Gordon, JCP, 143, 114111 (2015)         
Using eda2 option set 1
Option set summary: Frozen orbital wavefunction, initial wavefunction decomposition, and nDQ polarization.
--------------------------------
Printing EDA Options
--------------------------------
eda_child_super_basis      0
fragmo_guess_mode          0
child_mp                   1
child_mp_orders            232
cls_elec                   1
cls_disp                   0
scfmi_mode                 1
scfmi_occs                 0
scfmi_virts                0
frz_relax                  0
frz_relax_method           0
dc_pen_start               0
dc_pen_conv                0
dc_pen_increment           0
dc_pen_steps               0
dc_pen_thresh_factor       0
dc_pen_pre_newton_thresh   0
frz_ortho_decomp           1
frz_ortho_decomp_conv      6
frgm_method                2
scfmi_freeze_ss            0
separate_rehyb             0
plot_diff_den              0
eda_nocv                   0
eda_vct_relax              1
disp_free_x                0
disp_free_c                0
eda_bsse                   0
eda_pct_a                  0
eda_covp                   0
--------------------------------
Attempting to make child job directory: /tmp/qchem7832//Frg1/
Attempting to make child job directory: /tmp/qchem7832//Frg2/
Creating input file /tmp/qchem7832/Frg1.input
using default PutDataFrgm: nothing
calling putenv with: QCSCRATCH=/tmp/qchem7832/ 
calling putenv with: QCLOCALSCR=/tmp/qchem7832/ 
Spawning Job For Fragment 0
                  Welcome to Q-Chem
     A Quantum Leap Into The Future Of Chemistry


 Q-Chem 5.2, Q-Chem, Inc., Pleasanton, CA (2019)

 License issued to: National Energy Research Scientific Computing Center

 Yihan Shao,  Zhengting Gan,  E. Epifanovsky,  A. T. B. Gilbert,  M. Wormit,  
 J. Kussmann,  A. W. Lange,  A. Behn,  Jia Deng,  Xintian Feng,  D. Ghosh,  
 M. Goldey,  P. R. Horn,  L. D. Jacobson,  I. Kaliman,  T. Kus,  A. Landau,  
 Jie Liu,  E. I. Proynov,  R. M. Richard,  R. P. Steele,  E. J. Sundstrom,  
 H. L. Woodcock III,  P. M. Zimmerman,  D. Zuev,  B. Albrecht,  E. Alguire,  
 S. A. Baeppler,  D. Barton,  Z. Benda,  Y. A. Bernard,  E. J. Berquist,  
 K. B. Bravaya,  H. Burton,  D. Casanova,  Chun-Min Chang,  Yunqing Chen,  
 A. Chien,  K. D. Closser,  M. P. Coons,  S. Coriani,  S. Dasgupta,  
 A. L. Dempwolff,  M. Diedenhofen,  Hainam Do,  R. G. Edgar,  Po-Tung Fang,  
 S. Faraji,  S. Fatehi,  Qingguo Feng,  K. D. Fenk,  J. Fosso-Tande,  
 J. Gayvert,  Qinghui Ge,  A. Ghysels,  G. Gidofalvi,  J. Gomes,  
 J. Gonthier,  A. Gunina,  D. Hait,  M. W. D. Hanson-Heine,  
 P. H. P. Harbach,  A. W. Hauser,  M. F. Herbst,  J. E. Herr,  
 E. G. Hohenstein,  Z. C. Holden,  Kerwin Hui,  B. C. Huynh,  T.-C. Jagau,  
 Hyunjun Ji,  B. Kaduk,  K. Khistyaev,  Jaehoon Kim,  P. Klunzinger,  K. Koh,  
 D. Kosenkov,  L. Koulias,  T. Kowalczyk,  C. M. Krauter,  A. Kunitsa,  
 Ka Un Lao,  A. Laurent,  K. V. Lawler,  Joonho Lee,  D. Lefrancois,  
 S. Lehtola,  D. S. Levine,  Yi-Pei Li,  You-Sheng Lin,  Fenglai Liu,  
 E. Livshits,  A. Luenser,  P. Manohar,  E. Mansoor,  S. F. Manzer,  
 Shan-Ping Mao,  Yuezhi Mao,  N. Mardirossian,  A. V. Marenich,  
 T. Markovich,  L. A. Martinez-Martinez,  S. A. Maurer,  N. J. Mayhall,  
 S. C. McKenzie,  J.-M. Mewes,  P. Morgante,  A. F. Morrison,  
 J. W. Mullinax,  K. Nanda,  T. S. Nguyen-Beck,  R. Olivares-Amaya,  
 J. A. Parkhill,  Zheng Pei,  T. M. Perrine,  F. Plasser,  P. Pokhilko,  
 S. Prager,  A. Prociuk,  E. Ramos,  D. R. Rehn,  F. Rob,  M. Scheurer,  
 M. Schneider,  N. Sergueev,  S. M. Sharada,  S. Sharma,  D. W. Small,  
 T. Stauch,  T. Stein,  Yu-Chuan Su,  A. J. W. Thom,  A. Tkatchenko,  
 T. Tsuchimochi,  N. M. Tubman,  L. Vogt,  M. L. Vidal,  O. Vydrov,  
 M. A. Watson,  J. Wenzel,  M. de Wergifosse,  T. A. Wesolowski,  A. White,  
 J. Witte,  A. Yamada,  Jun Yang,  K. Yao,  S. Yeganeh,  S. R. Yost,  
 Zhi-Qiang You,  A. Zech,  Igor Ying Zhang,  Xing Zhang,  Yan Zhao,  
 Ying Zhu,  B. R. Brooks,  G. K. L. Chan,  C. J. Cramer,  M. S. Gordon,  
 W. J. Hehre,  A. Klamt,  M. W. Schmidt,  C. D. Sherrill,  D. G. Truhlar,  
 A. Aspuru-Guzik,  R. Baer,  A. T. Bell,  N. A. Besley,  Jeng-Da Chai,  
 A. E. DePrince, III,  R. A. DiStasio Jr.,  A. Dreuw,  B. D. Dunietz,  
 T. R. Furlani,  Chao-Ping Hsu,  Yousung Jung,  Jing Kong,  D. S. Lambrecht,  
 WanZhen Liang,  C. Ochsenfeld,  V. A. Rassolov,  L. V. Slipchenko,  
 J. E. Subotnik,  T. Van Voorhis,  J. M. Herbert,  A. I. Krylov,  
 P. M. W. Gill,  M. Head-Gordon

 Contributors to earlier versions of Q-Chem not listed above: 
 R. D. Adamson,  B. Austin,  J. Baker,  G. J. O. Beran,  K. Brandhorst,  
 S. T. Brown,  E. F. C. Byrd,  A. K. Chakraborty,  C.-L. Cheng,  
 Siu Hung Chien,  D. M. Chipman,  D. L. Crittenden,  H. Dachsel,  
 R. J. Doerksen,  A. D. Dutoi,  L. Fusti-Molnar,  W. A. Goddard III,  
 A. Golubeva-Zadorozhnaya,  S. R. Gwaltney,  G. Hawkins,  A. Heyden,  
 S. Hirata,  G. Kedziora,  F. J. Keil,  C. Kelley,  Jihan Kim,  R. A. King,  
 R. Z. Khaliullin,  P. P. Korambath,  W. Kurlancheek,  A. M. Lee,  M. S. Lee,  
 S. V. Levchenko,  Ching Yeh Lin,  D. Liotard,  R. C. Lochan,  I. Lotan,  
 P. E. Maslen,  N. Nair,  D. P. O'Neill,  D. Neuhauser,  E. Neuscamman,  
 C. M. Oana,  R. Olson,  B. Peters,  R. Peverati,  P. A. Pieniazek,  
 Y. M. Rhee,  J. Ritchie,  M. A. Rohrdanz,  E. Rosta,  N. J. Russ,  
 H. F. Schaefer III,  N. E. Schultz,  N. Shenvi,  A. C. Simmonett,  A. Sodt,  
 D. Stuck,  K. S. Thanthiriwatte,  V. Vanovschi,  Tao Wang,  A. Warshel,  
 C. F. Williams,  Q. Wu,  X. Xu,  W. Zhang

 Please cite Q-Chem as follows:
 Y. Shao et al., Mol. Phys. 113, 184-215 (2015)
 DOI: 10.1080/00268976.2014.952696

 Q-Chem 5.2.0 for Intel X86 EM64T Linux

 Parts of Q-Chem use Armadillo 8.300.2 (Tropical Shenanigans).
 http://arma.sourceforge.net/

 Q-Chem begins on Sun Sep 26 05:53:16 2021  

Host: cori01
0

     Scratch files written to /tmp/qchem7832//Frg1//
 May1019 |scratch|qcdevops|jenkins|workspace|build_RNUM -1
Processing $rem in /global/common/cori/software/qchem/5.2/config/preferences:
	 MEM_TOTAL  96000 
NAlpha2: 32
NElect   32
Mult     1
Symmetry turned off for PCM/SM12/SMD calculation

Checking the input file for inconsistencies... 	...done.

--------------------------------------------------------------
User input:
--------------------------------------------------------------
$molecule
0 1
 6	1.4515435871	1.5168612010	0.8175325028
 6	0.2785435871	1.2538612010	1.7125325028
 8	-0.7604564129	1.8838612010	1.5655325028
 7	0.4165435871	0.2998612010	2.6405325028
 1	1.4715435871	0.7618612010	0.0345325028
 1	2.3685435871	1.4058612010	1.3965325028
 1	-0.3664564129	0.0958612010	3.2405325028
 1	1.2715435871	-0.2311387990	2.7015325028
 1	1.4436335871	2.5210812010	0.3686525028
$end
$rem
EDA2		1
METHOD		WB97X-V
BASIS		DEF2-TZVPD
XC_GRID		000099000590
NL_GRID		1
UNRESTRICTED		FALSE
MAX_SCF_CYCLES		200
SYMMETRY		FALSE
SYM_IGNORE		TRUE
BASIS_LIN_DEP_THRESH		6
THRESH		14
SCF_CONVERGENCE		8
SCF_PRINT_FRGM		TRUE
SOLVENT_METHOD		SMD
!required keywords
JOBTYPE		SP
SYM_IGNORE		TRUE
SUBSYSTEM		TRUE
GEN_SCFMAN		TRUE
CHILD_INSTRUCTION		2
SYM_IGNORE		TRUE
SCFMI		0
RI_K 0		
PARI_K 0		
MIN_PARI_K 0		
IARI_K 0		
OCC_RI_K 0		
PURECART		1111
MEM_STATIC		2000
MEM_TOTAL		96000
GUI		0
CHILD_MP		1
CHILD_MP_ORDERS		232
FRZ_RELAX		0
FRZ_RELAX_METHOD		0
EDA_CLS_ELEC		1
EDA_CLS_DISP		0
FRZ_ORTHO_DECOMP		1
EDA2		FALSE
FRGM_METHOD		FALSE
CIS_N_ROOTS  0
LOCAL_CIS    0
CIS_RLX_DNS  1
$end
$smx
SOLVENT			WATER
$end
--------------------------------------------------------------
 ----------------------------------------------------------------
             Standard Nuclear Orientation (Angstroms)
    I     Atom           X                Y                Z
 ----------------------------------------------------------------
    1      C       1.4515435871     1.5168612010     0.8175325028
    2      C       0.2785435871     1.2538612010     1.7125325028
    3      O      -0.7604564129     1.8838612010     1.5655325028
    4      N       0.4165435871     0.2998612010     2.6405325028
    5      H       1.4715435871     0.7618612010     0.0345325028
    6      H       2.3685435871     1.4058612010     1.3965325028
    7      H      -0.3664564129     0.0958612010     3.2405325028
    8      H       1.2715435871    -0.2311387990     2.7015325028
    9      H       1.4436335871     2.5210812010     0.3686525028
 ----------------------------------------------------------------
 Nuclear Repulsion Energy =         122.49413064 hartrees
 There are       16 alpha and       16 beta electrons
 Requested basis set is def2-TZVPD
 There are 78 shells and 196 basis functions

 Total QAlloc Memory Limit  96000 MB
 Mega-Array Size      1956 MB
 MEM_STATIC part      2000 MB
 
 Citation of the SMD model:
 Marenich, A.V.; Cramer, C.J.; Truhlar, D.G.
 J. Phys. Chem. B 2009, 113, 6378-6396.
 iSolventCode=           1
 Solvent: water                                                           
 
 vradii
            1           2           3           4           5           6
    1   1.8500000   1.8500000   1.5200000   1.8900000   1.2000000   1.2000000
            7           8           9
    1   1.2000000   1.2000000   1.2000000
 Changing PCM_VDW_RADII to SMD_RADIUS
 Discretize the solute cavity surface with Lebedev spheres
	Using 110 Lebedev grid points for each H atom
	Using 194 Lebedev grid points for other atoms
	Atomic van der Waals radii will be scaled by 1.20
 Remove points where switching function is < 1.0e-08
 Keep 734 surface tesserae and discard 592 interior tesserae
 Molecular Surface Area = 90.024 Angst**2

                       Distance Matrix (Angstroms)
             C (  1)   C (  2)   O (  3)   N (  4)   H (  5)   H (  6)
   C (  2)  1.498707
   O (  3)  2.363713  1.223940
   N (  4)  2.423973  1.338037  2.247223
   H (  5)  1.087894  2.116837  2.929961  2.849159
   H (  6)  1.090161  2.119212  3.169809  2.565361  1.753394
   H (  7)  3.345937  2.022813  2.481492  1.007326  3.755028  3.549178
   H (  8)  2.576307  2.041910  3.145273  1.008319  2.852882  2.363515
   H (  9)  1.100006  2.183871  2.587776  3.339187  1.790885  1.776432
             H (  7)   H (  8)
   H (  8)  1.755134
   H (  9)  4.172027  3.612016
 
 A cutoff of  1.0D-14 yielded   3054 shell pairs
 There are     19544 function pairs (     24702 Cartesian)
 Smallest overlap matrix eigenvalue = 1.05E-05

 Scale SEOQF with 1.000000e-01/1.000000e-01/1.000000e-01

 Standard Electronic Orientation quadrupole field applied
 Nucleus-field energy     =    -0.0000000063 hartrees
 Guess from superposition of atomic densities
 Warning:  Energy on first SCF cycle will be non-variational
 SAD guess density has 31.604610 electrons

 -----------------------------------------------------------------------
  General SCF calculation program by
  Eric Jon Sundstrom, Paul Horn, Yuezhi Mao, Dmitri Zuev, Alec White,
  David Stuck, Shaama M.S., Shane Yost, Joonho Lee, David Small,
  Daniel Levine, Susi Lehtola, Hugh Burton, Evgeny Epifanovsky
 -----------------------------------------------------------------------
 Exchange:     0.1670 Hartree-Fock + 1.0000 wB97X-V + LR-HF
 Correlation:  1.0000 wB97X-V
 Using Euler-Maclaurin-Lebedev (99,590) quadrature formula
 Nonlocal Correlation:  VV10 with C = 0.0100 and b = 6.00 and scale = 1.00000
 Grid used for NLC:  SG-1 standard quadrature
Energy prior to optimization (guess energy) = -208.704702673926
Begin Timing: Total SCF Calculation
begin iterations for algorithm: DIIS         
the SCF tolerance is set to 1.00e-08
    1    -208.7047026739      1.26e-02     00000 
    2    -208.3454119835      1.53e-02     00000 
    3    -209.2371756415      2.32e-03     00000 
    4    -209.2551059373      7.65e-04     00000 
    5    -209.2581268693      1.98e-04     00000 
    6    -209.2583935299      6.72e-05     00000 
    7    -209.2584340016      2.02e-05     00000 
    8    -209.2584390058      5.83e-06     00000 
    9    -209.2584397445      1.98e-06     00000 
   10    -209.2584397941      3.50e-07     00000 
   11    -209.2584397954      1.45e-07     00000 
   12    -209.2584397955      1.94e-08     00000 
   13    -209.2584397955      4.63e-09     00000 Convergence criterion met
Timing for Total SCF: 370.00s (wall), 731.62s (cpu)
(3)  G-ENP(liq) elect-nuc-pol free energy of system     -209.258439796 a.u.
(4)  G-CDS(liq) cavity-dispersion-solvent structure 
     free energy                                                3.4950 kcal/mol
(6)  G-S(liq) free energy of system                     -209.252870115 a.u.
E_pcm = -0.0293102445
E_cds = 0.0055696803
Multipole orders to be included
        2
        3
computing dipole RHS
computing quadrupole RHS
total number of RHS in solve_reponses: 8
RHS batch sizes
        8
Beginning Block Conjugate Gradient Iterations. Batch Number: 0
computing hessian-vector products by finite difference
              1      6.06e-01     00000 Conjugate Gradient Iteration
computing hessian-vector products by finite difference
              2      1.92e-01     00000 Conjugate Gradient Iteration
computing hessian-vector products by finite difference
              3      4.78e-02     00000 Conjugate Gradient Iteration
computing hessian-vector products by finite difference
              4      1.20e-02     00000 Conjugate Gradient Iteration
computing hessian-vector products by finite difference
              5      1.75e-03     00000 Conjugate Gradient Iteration
computing hessian-vector products by finite difference
              6      3.69e-04     00000 Conjugate Gradient Iteration
computing hessian-vector products by finite difference
              7      5.25e-05     00000 Conjugate Gradient Iteration
computing hessian-vector products by finite difference
              8      5.76e-06     00000 Conjugate Gradient Iteration
computing hessian-vector products by finite difference
              9      8.02e-07     00000 Conjugate Gradient Iteration
computing hessian-vector products by finite difference
             10      9.07e-08     00000 Conjugate Gradient Iteration
computing hessian-vector products by finite difference
             11      1.02e-08     00000 Conjugate Gradient Iteration
computing hessian-vector products by finite difference
             12      2.05e-09     00000 CG Converged
batch 0 complete
Done Calculating Responses
TESTING ORTHOGONALIZATION OF MULTIPOLE BASIS
Multipole virts passed orthogonality test
Virts Per Order
        48
        80
 
 --------------------------------------------------------------
 
                    Orbital Energies (a.u.)
 --------------------------------------------------------------
 
 Alpha MOs
 -- Occupied --
-19.1839 -14.4256 -10.3775 -10.2607  -1.1784  -1.0394  -0.8654  -0.7054
 -0.6506  -0.5931  -0.5661  -0.5228  -0.4991  -0.4761  -0.3835  -0.3748
 -- Virtual --
  0.0642   0.0961   0.0963   0.1031   0.1297   0.1340   0.1418   0.1480
  0.1750   0.1906   0.2015   0.2178   0.2313   0.2456   0.2489   0.2618
  0.2642   0.2807   0.3037   0.3134   0.3372   0.3393   0.3485   0.3504
  0.3613   0.3696   0.3765   0.3826   0.3961   0.4072   0.4164   0.4238
  0.4344   0.4544   0.4589   0.4831   0.4847   0.4907   0.4923   0.5057
  0.5260   0.5339   0.5369   0.5769   0.5871   0.5969   0.6248   0.6370
  0.6463   0.6569   0.6717   0.6983   0.7039   0.7183   0.7274   0.7719
  0.7770   0.7877   0.8012   0.8117   0.8229   0.8453   0.8491   0.8715
  0.9236   0.9477   0.9820   0.9955   1.0008   1.0436   1.0592   1.0978
  1.1057   1.1858   1.2287   1.2558   1.2870   1.3226   1.3414   1.3881
  1.4814   1.4892   1.5076   1.6203   1.6763   1.7413   1.7424   1.8152
  1.8478   1.8722   1.8990   1.9296   1.9329   1.9512   1.9971   2.0292
  2.0584   2.0889   2.1542   2.1844   2.2206   2.2645   2.3061   2.3532
  2.3818   2.4114   2.4448   2.4810   2.5533   2.5752   2.6104   2.6414
  2.6898   2.7277   2.7533   2.8309   2.8358   2.9020   2.9715   2.9925
  3.0441   3.1032   3.1514   3.1783   3.2033   3.2416   3.2710   3.2763
  3.3214   3.3329   3.3523   3.4065   3.4478   3.5426   3.5447   3.5765
  3.6364   3.6506   3.6953   3.7811   3.8791   3.9496   4.0246   4.0712
  4.0978   4.2069   4.3063   4.4162   4.5342   4.6017   4.6242   4.6640
  4.7783   4.8833   4.8969   4.9349   5.1439   5.1729   5.2547   5.3527
  5.3837   5.3894   5.4227   5.4828   5.5279   5.7738   5.9137   6.1568
  6.2636   6.5302   6.6343   6.7398   6.8279   6.9719   7.2249   7.3165
 22.6134  23.5704  32.4134  44.3140
 --------------------------------------------------------------
 
          Ground-State Mulliken Net Atomic Charges

     Atom                 Charge (a.u.)
  ----------------------------------------
      1 C                    -0.654625
      2 C                     0.450904
      3 O                    -0.681462
      4 N                    -0.311451
      5 H                     0.220232
      6 H                     0.242079
      7 H                     0.251899
      8 H                     0.236354
      9 H                     0.246070
  ----------------------------------------
  Sum of atomic charges =     0.000000

 -----------------------------------------------------------------
                    Cartesian Multipole Moments
 -----------------------------------------------------------------
    Charge (ESU x 10^10)
                -0.0000
    Dipole Moment (Debye)
         X       4.3855      Y      -3.6607      Z       1.4250
       Tot       5.8876
    Quadrupole Moments (Debye-Ang)
        XX     -23.1670     XY       6.0994     YY     -32.2517
        XZ       6.1447     YZ      -7.1454     ZZ     -16.7344
    Octopole Moments (Debye-Ang^2)
       XXX     -23.5438    XXY     -33.4006    XYY       2.7597
       YYY    -106.3397    XXZ     -36.4214    XYZ       7.2006
       YYZ     -54.2226    XZZ      -2.0471    YZZ     -45.2871
       ZZZ     -91.7279
    Hexadecapole Moments (Debye-Ang^3)
      XXXX    -159.5724   XXXY     -24.8250   XXYY     -84.4102
      XYYY      -4.1229   YYYY    -343.7324   XXXZ     -14.8585
      XXYZ     -48.5104   XYYZ       6.6030   YYYZ    -152.1617
      XXZZ    -100.1921   XYZZ      -2.9609   YYZZ    -160.9159
      XZZZ     -26.2593   YZZZ    -158.3028   ZZZZ    -408.0842
 -----------------------------------------------------------------
Archival summary:
1\1\nid00524\SP\ProcedureUnspecified\BasisUnspecified\1125\meili\SunSep2607:38:122021SunSep2607:38:122021\0\\#,ProcedureUnspecified,BasisUnspecified,\\0,1\C\O,1,1.22394\N,1,1.33804,2,122.537\H,3,1.00733,1,118.511,2,-0.0954556,0\H,3,1.00832,1,120.324,2,176.847,0\C,1,1.49871,2,120.156,3,178.726,0\H,6,1.08789,1,108.809,2,-98.7434,0\H,6,1.09016,1,108.864,2,144.707,0\H,6,1.10001,1,113.47,2,23.9035,0\\\@

 Total job time:  6296.21s(wall), 12359.98s(cpu) 
 Sun Sep 26 07:38:12 2021

        *************************************************************
        *                                                           *
        *  Thank you very much for using Q-Chem.  Have a nice day.  *
        *                                                           *
        *************************************************************


Done Job For Fragment 0
calling putenv with: QCSCRATCH=/global/cscratch1/sd/meili 
calling putenv with: QCLOCALSCR=/tmp 
calling putenv with: QCTHREADS=32 
Creating input file /tmp/qchem7832/Frg2.input
using default PutDataFrgm: nothing
calling putenv with: QCSCRATCH=/tmp/qchem7832/ 
calling putenv with: QCLOCALSCR=/tmp/qchem7832/ 
Spawning Job For Fragment 1
                  Welcome to Q-Chem
     A Quantum Leap Into The Future Of Chemistry


 Q-Chem 5.2, Q-Chem, Inc., Pleasanton, CA (2019)

 License issued to: National Energy Research Scientific Computing Center

 Yihan Shao,  Zhengting Gan,  E. Epifanovsky,  A. T. B. Gilbert,  M. Wormit,  
 J. Kussmann,  A. W. Lange,  A. Behn,  Jia Deng,  Xintian Feng,  D. Ghosh,  
 M. Goldey,  P. R. Horn,  L. D. Jacobson,  I. Kaliman,  T. Kus,  A. Landau,  
 Jie Liu,  E. I. Proynov,  R. M. Richard,  R. P. Steele,  E. J. Sundstrom,  
 H. L. Woodcock III,  P. M. Zimmerman,  D. Zuev,  B. Albrecht,  E. Alguire,  
 S. A. Baeppler,  D. Barton,  Z. Benda,  Y. A. Bernard,  E. J. Berquist,  
 K. B. Bravaya,  H. Burton,  D. Casanova,  Chun-Min Chang,  Yunqing Chen,  
 A. Chien,  K. D. Closser,  M. P. Coons,  S. Coriani,  S. Dasgupta,  
 A. L. Dempwolff,  M. Diedenhofen,  Hainam Do,  R. G. Edgar,  Po-Tung Fang,  
 S. Faraji,  S. Fatehi,  Qingguo Feng,  K. D. Fenk,  J. Fosso-Tande,  
 J. Gayvert,  Qinghui Ge,  A. Ghysels,  G. Gidofalvi,  J. Gomes,  
 J. Gonthier,  A. Gunina,  D. Hait,  M. W. D. Hanson-Heine,  
 P. H. P. Harbach,  A. W. Hauser,  M. F. Herbst,  J. E. Herr,  
 E. G. Hohenstein,  Z. C. Holden,  Kerwin Hui,  B. C. Huynh,  T.-C. Jagau,  
 Hyunjun Ji,  B. Kaduk,  K. Khistyaev,  Jaehoon Kim,  P. Klunzinger,  K. Koh,  
 D. Kosenkov,  L. Koulias,  T. Kowalczyk,  C. M. Krauter,  A. Kunitsa,  
 Ka Un Lao,  A. Laurent,  K. V. Lawler,  Joonho Lee,  D. Lefrancois,  
 S. Lehtola,  D. S. Levine,  Yi-Pei Li,  You-Sheng Lin,  Fenglai Liu,  
 E. Livshits,  A. Luenser,  P. Manohar,  E. Mansoor,  S. F. Manzer,  
 Shan-Ping Mao,  Yuezhi Mao,  N. Mardirossian,  A. V. Marenich,  
 T. Markovich,  L. A. Martinez-Martinez,  S. A. Maurer,  N. J. Mayhall,  
 S. C. McKenzie,  J.-M. Mewes,  P. Morgante,  A. F. Morrison,  
 J. W. Mullinax,  K. Nanda,  T. S. Nguyen-Beck,  R. Olivares-Amaya,  
 J. A. Parkhill,  Zheng Pei,  T. M. Perrine,  F. Plasser,  P. Pokhilko,  
 S. Prager,  A. Prociuk,  E. Ramos,  D. R. Rehn,  F. Rob,  M. Scheurer,  
 M. Schneider,  N. Sergueev,  S. M. Sharada,  S. Sharma,  D. W. Small,  
 T. Stauch,  T. Stein,  Yu-Chuan Su,  A. J. W. Thom,  A. Tkatchenko,  
 T. Tsuchimochi,  N. M. Tubman,  L. Vogt,  M. L. Vidal,  O. Vydrov,  
 M. A. Watson,  J. Wenzel,  M. de Wergifosse,  T. A. Wesolowski,  A. White,  
 J. Witte,  A. Yamada,  Jun Yang,  K. Yao,  S. Yeganeh,  S. R. Yost,  
 Zhi-Qiang You,  A. Zech,  Igor Ying Zhang,  Xing Zhang,  Yan Zhao,  
 Ying Zhu,  B. R. Brooks,  G. K. L. Chan,  C. J. Cramer,  M. S. Gordon,  
 W. J. Hehre,  A. Klamt,  M. W. Schmidt,  C. D. Sherrill,  D. G. Truhlar,  
 A. Aspuru-Guzik,  R. Baer,  A. T. Bell,  N. A. Besley,  Jeng-Da Chai,  
 A. E. DePrince, III,  R. A. DiStasio Jr.,  A. Dreuw,  B. D. Dunietz,  
 T. R. Furlani,  Chao-Ping Hsu,  Yousung Jung,  Jing Kong,  D. S. Lambrecht,  
 WanZhen Liang,  C. Ochsenfeld,  V. A. Rassolov,  L. V. Slipchenko,  
 J. E. Subotnik,  T. Van Voorhis,  J. M. Herbert,  A. I. Krylov,  
 P. M. W. Gill,  M. Head-Gordon

 Contributors to earlier versions of Q-Chem not listed above: 
 R. D. Adamson,  B. Austin,  J. Baker,  G. J. O. Beran,  K. Brandhorst,  
 S. T. Brown,  E. F. C. Byrd,  A. K. Chakraborty,  C.-L. Cheng,  
 Siu Hung Chien,  D. M. Chipman,  D. L. Crittenden,  H. Dachsel,  
 R. J. Doerksen,  A. D. Dutoi,  L. Fusti-Molnar,  W. A. Goddard III,  
 A. Golubeva-Zadorozhnaya,  S. R. Gwaltney,  G. Hawkins,  A. Heyden,  
 S. Hirata,  G. Kedziora,  F. J. Keil,  C. Kelley,  Jihan Kim,  R. A. King,  
 R. Z. Khaliullin,  P. P. Korambath,  W. Kurlancheek,  A. M. Lee,  M. S. Lee,  
 S. V. Levchenko,  Ching Yeh Lin,  D. Liotard,  R. C. Lochan,  I. Lotan,  
 P. E. Maslen,  N. Nair,  D. P. O'Neill,  D. Neuhauser,  E. Neuscamman,  
 C. M. Oana,  R. Olson,  B. Peters,  R. Peverati,  P. A. Pieniazek,  
 Y. M. Rhee,  J. Ritchie,  M. A. Rohrdanz,  E. Rosta,  N. J. Russ,  
 H. F. Schaefer III,  N. E. Schultz,  N. Shenvi,  A. C. Simmonett,  A. Sodt,  
 D. Stuck,  K. S. Thanthiriwatte,  V. Vanovschi,  Tao Wang,  A. Warshel,  
 C. F. Williams,  Q. Wu,  X. Xu,  W. Zhang

 Please cite Q-Chem as follows:
 Y. Shao et al., Mol. Phys. 113, 184-215 (2015)
 DOI: 10.1080/00268976.2014.952696

 Q-Chem 5.2.0 for Intel X86 EM64T Linux

 Parts of Q-Chem use Armadillo 8.300.2 (Tropical Shenanigans).
 http://arma.sourceforge.net/

 Q-Chem begins on Sun Sep 26 07:38:13 2021  

Host: cori01
0

     Scratch files written to /tmp/qchem7832//Frg2//
 May1019 |scratch|qcdevops|jenkins|workspace|build_RNUM -1
Processing $rem in /global/common/cori/software/qchem/5.2/config/preferences:
	 MEM_TOTAL  96000 
NAlpha2: 32
NElect   32
Mult     1
Symmetry turned off for PCM/SM12/SMD calculation

Checking the input file for inconsistencies... 	...done.

--------------------------------------------------------------
User input:
--------------------------------------------------------------
$molecule
-1 1
 6	-1.0804564129	-2.2811387990	-2.3774674972
 6	-0.3024564129	-1.1611387990	-1.6704674972
 8	-0.5914564129	-0.9331387990	-0.4744674972
 8	0.5845435871	-0.5101387990	-2.2734674972
 1	-2.1414564129	-2.1251387990	-2.1814674972
 1	-0.8124564129	-3.2451387990	-1.9394674972
 1	-0.9775364129	-2.3459137990	-3.4707274972
$end
$rem
EDA2		1
METHOD		WB97X-V
BASIS		DEF2-TZVPD
XC_GRID		000099000590
NL_GRID		1
UNRESTRICTED		FALSE
MAX_SCF_CYCLES		200
SYMMETRY		FALSE
SYM_IGNORE		TRUE
BASIS_LIN_DEP_THRESH		6
THRESH		14
SCF_CONVERGENCE		8
SCF_PRINT_FRGM		TRUE
SOLVENT_METHOD		SMD
!required keywords
JOBTYPE		SP
SYM_IGNORE		TRUE
SUBSYSTEM		TRUE
GEN_SCFMAN		TRUE
CHILD_INSTRUCTION		2
SYM_IGNORE		TRUE
SCFMI		0
RI_K 0		
PARI_K 0		
MIN_PARI_K 0		
IARI_K 0		
OCC_RI_K 0		
PURECART		1111
MEM_STATIC		2000
MEM_TOTAL		96000
GUI		0
CHILD_MP		1
CHILD_MP_ORDERS		232
FRZ_RELAX		0
FRZ_RELAX_METHOD		0
EDA_CLS_ELEC		1
EDA_CLS_DISP		0
FRZ_ORTHO_DECOMP		1
EDA2		FALSE
FRGM_METHOD		FALSE
CIS_N_ROOTS  0
LOCAL_CIS    0
CIS_RLX_DNS  1
$end
$smx
SOLVENT			WATER
$end
--------------------------------------------------------------
 ----------------------------------------------------------------
             Standard Nuclear Orientation (Angstroms)
    I     Atom           X                Y                Z
 ----------------------------------------------------------------
    1      C      -1.0804564129    -2.2811387990    -2.3774674972
    2      C      -0.3024564129    -1.1611387990    -1.6704674972
    3      O      -0.5914564129    -0.9331387990    -0.4744674972
    4      O       0.5845435871    -0.5101387990    -2.2734674972
    5      H      -2.1414564129    -2.1251387990    -2.1814674972
    6      H      -0.8124564129    -3.2451387990    -1.9394674972
    7      H      -0.9775364129    -2.3459137990    -3.4707274972
 ----------------------------------------------------------------
 Nuclear Repulsion Energy =         112.19242383 hartrees
 There are       16 alpha and       16 beta electrons
 Requested basis set is def2-TZVPD
 There are 69 shells and 181 basis functions

 Total QAlloc Memory Limit  96000 MB
 Mega-Array Size      1956 MB
 MEM_STATIC part      2000 MB
 
 Citation of the SMD model:
 Marenich, A.V.; Cramer, C.J.; Truhlar, D.G.
 J. Phys. Chem. B 2009, 113, 6378-6396.
 iSolventCode=           1
 Solvent: water                                                           
 
 vradii
            1           2           3           4           5           6
    1   1.8500000   1.8500000   1.5200000   1.5200000   1.2000000   1.2000000
            7
    1   1.2000000
 Changing PCM_VDW_RADII to SMD_RADIUS
 Discretize the solute cavity surface with Lebedev spheres
	Using 110 Lebedev grid points for each H atom
	Using 194 Lebedev grid points for other atoms
	Atomic van der Waals radii will be scaled by 1.20
 Remove points where switching function is < 1.0e-08
 Keep 653 surface tesserae and discard 453 interior tesserae
 Molecular Surface Area = 80.167 Angst**2

                       Distance Matrix (Angstroms)
             C (  1)   C (  2)   O (  3)   O (  4)   H (  5)   H (  6)
   C (  2)  1.536077
   O (  3)  2.382779  1.251368
   O (  4)  2.432999  1.254663  2.190504
   H (  5)  1.090171  2.138303  2.595614  3.169821
   H (  6)  1.092229  2.162294  2.745981  3.089238  1.754766
   H (  7)  1.100003  2.258398  3.335051  2.691393  1.750898  1.783428

 
 A cutoff of  1.0D-14 yielded   2390 shell pairs
 There are     16694 function pairs (     21490 Cartesian)
 Smallest overlap matrix eigenvalue = 1.75E-05

 Scale SEOQF with 1.000000e-01/1.000000e-01/1.000000e-01

 Standard Electronic Orientation quadrupole field applied
 Nucleus-field energy     =    -0.0000000066 hartrees
 Guess from superposition of atomic densities
 Warning:  Energy on first SCF cycle will be non-variational
 SAD guess density has 30.625312 electrons

 -----------------------------------------------------------------------
  General SCF calculation program by
  Eric Jon Sundstrom, Paul Horn, Yuezhi Mao, Dmitri Zuev, Alec White,
  David Stuck, Shaama M.S., Shane Yost, Joonho Lee, David Small,
  Daniel Levine, Susi Lehtola, Hugh Burton, Evgeny Epifanovsky
 -----------------------------------------------------------------------
 Exchange:     0.1670 Hartree-Fock + 1.0000 wB97X-V + LR-HF
 Correlation:  1.0000 wB97X-V
 Using Euler-Maclaurin-Lebedev (99,590) quadrature formula
 Nonlocal Correlation:  VV10 with C = 0.0100 and b = 6.00 and scale = 1.00000
 Grid used for NLC:  SG-1 standard quadrature
Energy prior to optimization (guess energy) = -227.758129332886
Begin Timing: Total SCF Calculation
begin iterations for algorithm: DIIS         
the SCF tolerance is set to 1.00e-08
    1    -227.7581293329      1.66e-02     00000 
    2    -225.6136217412      2.50e-02     00000 
    3    -228.6052537047      4.08e-03     00000 
    4    -228.6579920389      1.43e-03     00000 
    5    -228.6641960075      3.50e-04     00000 
    6    -228.6645297023      2.32e-04     00000 
    7    -228.6646780498      4.81e-05     00000 
    8    -228.6646878079      1.38e-05     00000 
    9    -228.6646890099      4.11e-06     00000 
   10    -228.6646891345      1.17e-06     00000 
   11    -228.6646891466      2.37e-07     00000 
   12    -228.6646891470      5.29e-08     00000 
   13    -228.6646891470      1.39e-08     00000 
   14    -228.6646891470      3.58e-09     00000 Convergence criterion met
Timing for Total SCF: 293.00s (wall), 575.99s (cpu)
(3)  G-ENP(liq) elect-nuc-pol free energy of system     -228.664689147 a.u.
(4)  G-CDS(liq) cavity-dispersion-solvent structure 
     free energy                                                3.9051 kcal/mol
(6)  G-S(liq) free energy of system                     -228.658465980 a.u.
E_pcm = -0.1315589435
E_cds = 0.0062231670
Multipole orders to be included
        2
        3
computing dipole RHS
computing quadrupole RHS
total number of RHS in solve_reponses: 8
RHS batch sizes
        8
Beginning Block Conjugate Gradient Iterations. Batch Number: 0
computing hessian-vector products by finite difference
              1      7.08e-01     00000 Conjugate Gradient Iteration
computing hessian-vector products by finite difference
              2      2.24e-01     00000 Conjugate Gradient Iteration
computing hessian-vector products by finite difference
              3      6.09e-02     00000 Conjugate Gradient Iteration
computing hessian-vector products by finite difference
              4      1.60e-02     00000 Conjugate Gradient Iteration
computing hessian-vector products by finite difference
              5      2.38e-03     00000 Conjugate Gradient Iteration
computing hessian-vector products by finite difference
              6      6.20e-04     00000 Conjugate Gradient Iteration
computing hessian-vector products by finite difference
              7      8.98e-05     00000 Conjugate Gradient Iteration
computing hessian-vector products by finite difference
              8      1.11e-05     00000 Conjugate Gradient Iteration
computing hessian-vector products by finite difference
              9      1.66e-06     00000 Conjugate Gradient Iteration
computing hessian-vector products by finite difference
             10      1.62e-07     00000 Conjugate Gradient Iteration
computing hessian-vector products by finite difference
             11      2.05e-08     00000 Conjugate Gradient Iteration
computing hessian-vector products by finite difference
             12      3.77e-09     00000 CG Converged
batch 0 complete
Done Calculating Responses
TESTING ORTHOGONALIZATION OF MULTIPOLE BASIS
Multipole virts passed orthogonality test
Virts Per Order
        48
        80
 
 --------------------------------------------------------------
 
                    Orbital Energies (a.u.)
 --------------------------------------------------------------
 
 Alpha MOs
 -- Occupied --
-19.1543 -19.1527 -10.3571 -10.2489  -1.1655  -1.0641  -0.8389  -0.6197
 -0.5483  -0.5460  -0.5391  -0.4800  -0.4634  -0.3653  -0.3598  -0.3445
 -- Virtual --
  0.0670   0.0997   0.1003   0.1075   0.1350   0.1439   0.1455   0.1500
  0.1562   0.1903   0.2028   0.2262   0.2337   0.2371   0.2603   0.2629
  0.2970   0.3143   0.3329   0.3456   0.3515   0.3623   0.3688   0.3827
  0.3858   0.3957   0.4166   0.4227   0.4277   0.4548   0.4672   0.4728
  0.4807   0.4883   0.5039   0.5123   0.5463   0.5596   0.5815   0.6020
  0.6148   0.6222   0.6248   0.6451   0.6544   0.6661   0.6789   0.6942
  0.7033   0.7255   0.7675   0.7876   0.8078   0.8110   0.8330   0.8400
  0.8646   0.9576   0.9675   0.9808   0.9908   1.0313   1.0393   1.1010
  1.1404   1.1825   1.2414   1.2629   1.2728   1.3000   1.3279   1.3445
  1.4364   1.5348   1.5880   1.7421   1.8019   1.8385   1.8605   1.8972
  1.8998   1.9363   1.9464   1.9569   2.0168   2.0798   2.1116   2.1535
  2.1923   2.2042   2.2953   2.3064   2.3919   2.4146   2.4556   2.4842
  2.5521   2.5856   2.6152   2.6754   2.7437   2.8113   2.8483   2.9187
  2.9468   2.9790   3.0089   3.1531   3.1888   3.2269   3.2611   3.2886
  3.3290   3.3372   3.3574   3.3962   3.4029   3.5155   3.5402   3.5532
  3.5824   3.6369   3.6750   3.7165   3.7423   3.8400   3.9311   4.0084
  4.0625   4.1780   4.3497   4.5428   4.5898   4.6381   4.7764   4.7919
  4.9671   5.2970   5.3214   5.3322   5.3387   5.4573   5.6719   5.7459
  5.7846   5.9943   6.1924   6.3091   6.3194   6.5762   6.5949   6.6944
  6.7088   6.7239   6.9078   6.9476   7.0032   7.2148   7.3014   7.3543
  7.3778  22.5784  23.6855  44.1884  44.3112
 --------------------------------------------------------------
 
          Ground-State Mulliken Net Atomic Charges

     Atom                 Charge (a.u.)
  ----------------------------------------
      1 C                    -0.606685
      2 C                     0.509803
      3 O                    -0.771963
      4 O                    -0.770384
      5 H                     0.202047
      6 H                     0.201961
      7 H                     0.235221
  ----------------------------------------
  Sum of atomic charges =    -1.000000

 -----------------------------------------------------------------
                    Cartesian Multipole Moments
 -----------------------------------------------------------------
    Charge (ESU x 10^10)
                -4.8032
    Dipole Moment (Debye)
         X      -1.2027      Y       1.7351      Z       5.5235
       Tot       5.9132
    Quadrupole Moments (Debye-Ang)
        XX     -27.8374     XY       0.2451     YY     -24.6814
        XZ       6.8779     YZ       0.5009     ZZ     -38.4059
    Octopole Moments (Debye-Ang^2)
       XXX      28.4912    XXY      34.1359    XYY       9.8148
       YYY      92.4293    XXZ      46.5832    XYZ      -5.1296
       YYZ      38.8402    XZZ      -7.2835    YZZ      32.4361
       ZZZ     166.1747
    Hexadecapole Moments (Debye-Ang^3)
      XXXX    -119.8779   XXXY     -69.1297   XXYY     -83.5835
      XYYY     -70.3766   YYYY    -346.8161   XXXZ     -42.2971
      XXYZ     -62.8573   XYYZ     -10.4711   YYYZ    -174.6724
      XXZZ    -124.6694   XYZZ      -9.6048   YYZZ    -149.9943
      XZZZ      -6.2499   YZZZ    -188.4551   ZZZZ    -673.8565
 -----------------------------------------------------------------
Archival summary:
1\1\nid00524\SP\ProcedureUnspecified\BasisUnspecified\223(1-,1)\meili\SunSep2608:59:102021SunSep2608:59:102021\0\\#,ProcedureUnspecified,BasisUnspecified,\\-1,1\C\O,1,1.25137\O,1,1.25466,2,121.876\C,1,1.53608,2,117.115,3,179.866,0\H,4,1.09017,1,107.809,2,48.4514,0\H,4,1.09223,1,109.553,2,-67.6956,0\H,4,1.1,1,116.936,2,167.855,0\\\@

 Total job time:  4857.61s(wall), 9535.20s(cpu) 
 Sun Sep 26 08:59:10 2021

        *************************************************************
        *                                                           *
        *  Thank you very much for using Q-Chem.  Have a nice day.  *
        *                                                           *
        *************************************************************


Done Job For Fragment 1
calling putenv with: QCSCRATCH=/global/cscratch1/sd/meili 
calling putenv with: QCLOCALSCR=/tmp 
calling putenv with: QCTHREADS=32 
Doing General SCFMI
 Exchange:     0.1670 Hartree-Fock + 1.0000 wB97X-V + LR-HF
 Correlation:  1.0000 wB97X-V
 Using Euler-Maclaurin-Lebedev (99,590) quadrature formula
 Nonlocal Correlation:  VV10 with C = 0.0100 and b = 6.00 and scale = 1.00000
 Grid used for NLC:  SG-1 standard quadrature
performing fock build before subrot guess so that all methods have access
Printing subrot_rss_gen Method Specification:
Occupied Subspace Method is 0
Virtual Subspace Method is 0
Energy of the unrelaxed supersystem initial determinant -437.766338580769
performing fock build before subrot guess so that all methods have access
Printing subrot_rss_gen Method Specification:
Occupied Subspace Method is 0
Virtual Subspace Method is 0
Energy of the unrelaxed supersystem initial determinant w/ solvent -437.923424339170
write pseudocanon occs and virts to disk
write pseudocanon orbital energies to disk
Tolerance of ortho_decomp_scf: 1.00e-06
GDM subspace size: 20
Beginning the Orthogonal Decomposition of the Initial Supersystem Wavefunction
    1    -437.7389082978      4.82e-02     ortho_decomp Preconditoned Steepest Descent
    2    -437.7434970531      1.69e-03     ortho_decomp BFGS Step
    3    -437.7435204528      9.91e-05     ortho_decomp BFGS Step
    4    -437.7435204722      4.11e-06     ortho_decomp BFGS Step
    5    -437.7435204723      1.65e-07     ortho_decomp 00000 Convergence criterion met
 Hartree-Fock
 Hartree-Fock
 Hartree-Fock
Doing General SCFMI
 Exchange:     0.1670 Hartree-Fock + 1.0000 wB97X-V + LR-HF
 Correlation:  1.0000 wB97X-V
 Using Euler-Maclaurin-Lebedev (99,590) quadrature formula
 Nonlocal Correlation:  VV10 with C = 0.0100 and b = 6.00 and scale = 1.00000
 Grid used for NLC:  SG-1 standard quadrature
performing fock build at end of subrot_r(subrot) constructor so that all methods have access
<S^2> of initial wavefunction before polarization iterations 0.0000000000
Beginning iterations for the determination of the polarized wavefunction
Energy prior to optimization (guess energy) = -437.923424339170
Begin Timing: Total SCF Calculation
begin iterations for algorithm: DIIS         
the SCF tolerance is set to 1.00e-08
    1    -437.9234243392      6.64e-05     00000 
    2    -437.9235311918      5.07e-05     00000 
    3    -437.9235651882      1.43e-05     00000 
    4    -437.9235693590      5.99e-06     00000 
    5    -437.9235701038      2.11e-06     00000 
    6    -437.9235702201      1.18e-06     00000 
    7    -437.9235702541      2.95e-07     00000 
    8    -437.9235702577      8.44e-08     00000 
    9    -437.9235702581      3.82e-08     00000 
   10    -437.9235702581      1.50e-08     00000 
   11    -437.9235702581      6.50e-09     00000 Convergence criterion met
write pseudocanon occs and virts to disk
write pseudocanon orbital energies to disk
Timing for Total SCF: 1586.00s (wall), 3152.86s (cpu)
<S^2> of polarized wavefunction after polarization iterations 0.0000000000
relaxing scfmi constraint to allow all rotations in the entire AO span
Doing General SCFMI
 Exchange:     0.1670 Hartree-Fock + 1.0000 wB97X-V + LR-HF
 Correlation:  1.0000 wB97X-V
 Using Euler-Maclaurin-Lebedev (99,590) quadrature formula
 Nonlocal Correlation:  VV10 with C = 0.0100 and b = 6.00 and scale = 1.00000
 Grid used for NLC:  SG-1 standard quadrature
performing fock build at end of subrot_r(subrot) constructor so that all methods have access
<S^2> of polarized wavefunction before ct-allowed iterations 0.0000000000
Beginning iterations for the determination of the CT-Allowed wavefunction
Energy prior to optimization (guess energy) = -437.923570258102
Begin Timing: Total SCF Calculation
begin iterations for algorithm: DIIS         
the SCF tolerance is set to 1.00e-08
    1    -437.9235702581      9.79e-05     00000 
    2    -437.9243371998      1.18e-05     00000 
    3    -437.9243657803      3.02e-06     00000 
    4    -437.9243668380      2.63e-06     00000 
    5    -437.9243672101      3.36e-07     00000 
    6    -437.9243672283      1.89e-07     00000 
    7    -437.9243672316      6.47e-08     00000 
    8    -437.9243672319      2.57e-08     00000 
    9    -437.9243672319      5.48e-09     00000 Convergence criterion met
write pseudocanon occs and virts to disk
write pseudocanon orbital energies to disk
Timing for Total SCF: 1291.00s (wall), 2564.09s (cpu)
<S^2> of ct_allowed wavefunction after ct-allowed iterations 0.0000000000

================================
        Results of EDA2         
================================
Basic EDA Quantities
--------------------
Fragment Energies (Ha):
1 -209.2528701152
2 -228.6584659800
--------------------
  E_prp (kJ/mol) = -0.0000
  E_sol (kJ/mol) = 7.0195
  E_frz (kJ/mol) = -10.7091
  E_pol (kJ/mol) = -0.3831
  E_vct (kJ/mol) = -2.0925
  E_int (kJ/mol) = -6.1651
--------------------


Initial Wavefunction Decomposition
--------------------
  --------------------
  Orthogonal Fragment Subspace Decomposition:
  --------------------
     E_elec   (ELEC)   (kJ/mol) = -35.5533
     E_pauli  (PAULI)  (kJ/mol) = 38.3963
     E_disp   (DISP)   (kJ/mol) = -13.5521
     --------------------
     Terms summing to E_pauli:
     --------------------
        E_kep_pauli       (kJ/mol) = 49.2006
        E_disp_free_pauli (kJ/mol) = -10.8042
  --------------------
  Classical Frozen Decomposition:
  --------------------
     E_cls_elec  (CLS ELEC)  (kJ/mol) = -14.6491
     E_cls_pauli (CLS PAULI) (kJ/mol) = 3.9400
    [E_mod_pauli (MOD PAULI) (kJ/mol) = 17.4921 (CLS PAULI - DISP from orthogonal decomposition) ]
  --------------------
--------------------

Simplified EDA Summary (kJ/mol)
--------------------
 PREPARATION     -0.0000
 SOLVATION       7.0195
 FROZEN          2.8430      (does not include dispersion)
[PAULI           38.3963]     (if this is negligible, then frozen describes electrostatics)
 DISPERSION      -13.5521
 POLARIZATION    -0.3831
 CHARGE TRANSFER -2.0925
 TOTAL           -6.1651     (PRP + SOL + FRZ + DISP + POL + CT)
--------------------
 
 --------------------------------------------------------------
 
                    Orbital Energies (a.u.)
 --------------------------------------------------------------
 
 Alpha MOs
 -- Occupied --
-19.1813 -19.1542 -19.1518 -14.4229 -10.3746 -10.3569 -10.2561 -10.2487
 -1.1757  -1.1652  -1.0637  -1.0367  -0.8619  -0.8387  -0.7027  -0.6481
 -0.6204  -0.5903  -0.5641  -0.5481  -0.5459  -0.5379  -0.5199  -0.4960
 -0.4801  -0.4725  -0.4631  -0.3818  -0.3723  -0.3642  -0.3574  -0.3441
 -- Virtual --
  0.0621   0.0791   0.0910   0.0942   0.1011   0.1169   0.1172   0.1244
  0.1274   0.1381   0.1414   0.1504   0.1546   0.1621   0.1634   0.1749
  0.1821   0.1977   0.2083   0.2142   0.2168   0.2272   0.2301   0.2409
  0.2429   0.2528   0.2627   0.2701   0.2801   0.2817   0.2892   0.3003
  0.3145   0.3156   0.3250   0.3323   0.3363   0.3401   0.3445   0.3491
  0.3517   0.3598   0.3624   0.3651   0.3668   0.3758   0.3783   0.3819
  0.3860   0.3951   0.3987   0.4104   0.4131   0.4192   0.4298   0.4403
  0.4442   0.4456   0.4549   0.4593   0.4650   0.4719   0.4831   0.4833
  0.4907   0.4983   0.4988   0.5027   0.5105   0.5164   0.5215   0.5248
  0.5292   0.5381   0.5517   0.5528   0.5748   0.5808   0.5881   0.5950
  0.6021   0.6142   0.6177   0.6247   0.6342   0.6406   0.6536   0.6589
  0.6621   0.6686   0.6871   0.6878   0.6992   0.7066   0.7109   0.7226
  0.7283   0.7356   0.7454   0.7614   0.7715   0.7739   0.7879   0.8011
  0.8072   0.8135   0.8232   0.8253   0.8347   0.8395   0.8535   0.8556
  0.8636   0.8654   0.8811   0.8839   0.9030   0.9284   0.9439   0.9541
  0.9675   0.9809   0.9914   1.0004   1.0054   1.0206   1.0323   1.0445
  1.0518   1.0587   1.0786   1.0962   1.1146   1.1294   1.1369   1.1670
  1.1906   1.2063   1.2299   1.2482   1.2602   1.2857   1.3014   1.3210
  1.3304   1.3426   1.3467   1.3800   1.3841   1.3889   1.4241   1.4390
  1.4673   1.5005   1.5089   1.5371   1.5837   1.6659   1.6892   1.6995
  1.7452   1.7583   1.8259   1.8491   1.8697   1.8745   1.8801   1.9048
  1.9191   1.9275   1.9455   1.9480   1.9594   1.9638   1.9781   1.9841
  2.0040   2.0132   2.0431   2.0692   2.0784   2.0878   2.1173   2.1290
  2.1392   2.1906   2.1978   2.2065   2.2259   2.2443   2.2650   2.2956
  2.3085   2.3217   2.3592   2.3836   2.4051   2.4220   2.4518   2.4601
  2.4768   2.4978   2.5180   2.5534   2.5606   2.5913   2.6197   2.6350
  2.6418   2.6644   2.6966   2.7087   2.7285   2.7493   2.7954   2.8065
  2.8425   2.8584   2.8623   2.8841   2.9215   2.9455   2.9755   2.9925
  3.0010   3.0338   3.0387   3.1087   3.1252   3.1658   3.1776   3.2071
  3.2204   3.2476   3.2565   3.2706   3.2873   3.2950   3.3105   3.3277
  3.3458   3.3522   3.3626   3.3738   3.3799   3.4077   3.4184   3.4288
  3.4418   3.4814   3.5300   3.5488   3.5749   3.5782   3.5915   3.6263
  3.6426   3.6548   3.6739   3.6809   3.7030   3.7294   3.7433   3.7601
  3.7932   3.8661   3.8994   3.9457   3.9696   4.0242   4.0695   4.0753
  4.0927   4.1213   4.1923   4.2199   4.3181   4.3731   4.4298   4.5493
  4.5507   4.6064   4.6309   4.6385   4.6492   4.6720   4.7908   4.8174
  4.8520   4.8945   4.9131   4.9589   4.9992   5.1642   5.1858   5.2657
  5.3016   5.3353   5.3382   5.3548   5.3630   5.3942   5.3989   5.4304
  5.4607   5.4998   5.5462   5.6815   5.7506   5.7814   5.7916   5.9210
  6.0169   6.1662   6.2098   6.2764   6.3193   6.3565   6.5382   6.6047
  6.6280   6.6550   6.7221   6.7301   6.7555   6.7908   6.8397   6.9478
  6.9607   6.9938   7.0072   7.2311   7.2355   7.3184   7.3274   7.4013
  7.4323  22.5973  22.6475  23.5951  23.7176  32.4692  44.2398  44.3431
 44.4012
 --------------------------------------------------------------
 
          Ground-State Mulliken Net Atomic Charges

     Atom                 Charge (a.u.)
  ----------------------------------------
      1 C                    -0.628583
      2 C                     0.562922
      3 O                    -0.709152
      4 N                    -0.338739
      5 H                     0.133758
      6 H                     0.253560
      7 H                     0.254146
      8 H                     0.246089
      9 H                     0.239284
     10 C                    -0.781764
     11 C                     0.588128
     12 O                    -0.739481
     13 O                    -0.764645
     14 H                     0.222529
     15 H                     0.213184
     16 H                     0.248764
  ----------------------------------------
  Sum of atomic charges =    -1.000000

 -----------------------------------------------------------------
                    Cartesian Multipole Moments
 -----------------------------------------------------------------
    Charge (ESU x 10^10)
                -4.8032
    Dipole Moment (Debye)
         X       3.1623      Y      -1.9762      Z       6.8713
       Tot       7.8180
    Quadrupole Moments (Debye-Ang)
        XX     -51.1908     XY       6.2088     YY     -57.2555
        XZ      12.9056     YZ      -6.8527     ZZ     -55.4715
    Octopole Moments (Debye-Ang^2)
       XXX       4.6570    XXY       0.4419    XYY      12.3877
       YYY     -14.3956    XXZ       9.8711    XYZ       1.9476
       YYZ     -15.6571    XZZ      -9.4924    YZZ     -13.0986
       ZZZ      73.6729
    Hexadecapole Moments (Debye-Ang^3)
      XXXX    -280.7229   XXXY     -94.6940   XXYY    -168.9155
      XYYY     -75.2853   YYYY    -693.3357   XXXZ     -57.8103
      XXYZ    -111.9767   XYYZ      -4.2431   YYYZ    -328.1790
      XXZZ    -225.6833   XYZZ     -12.9473   YYZZ    -312.1630
      XZZZ     -33.2390   YZZZ    -348.2903   ZZZZ   -1086.0018
 -----------------------------------------------------------------
Archival summary:
1\1\nid00524\SP\ProcedureUnspecified\BasisUnspecified\3148(1-,1)\meili\SunSep2610:25:412021SunSep2610:25:412021\0\\#,ProcedureUnspecified,BasisUnspecified,\\-1,1\O\C,1,1.25137\O,2,1.25466,1,121.876\C,2,1.53608,1,117.115,3,179.866,0\H,4,1.09017,2,107.809,1,48.4514,0\H,4,1.09223,2,109.553,1,-67.6956,0\H,4,1.1,2,116.936,1,167.855,0\H,1,2.7181,2,96.737,3,-9.36787,0\C,8,1.08789,1,123.615,2,155.681,0\H,9,1.09016,8,107.226,1,129.921,0\H,9,1.10001,8,109.877,1,-112.46,0\C,9,1.49871,8,108.809,1,12.3274,0\O,12,1.22394,9,120.156,8,-98.7434,0\N,12,1.33804,9,117.295,8,80.0477,0\H,14,1.00733,12,118.511,9,-178.856,0\H,14,1.00832,12,120.324,9,-1.91295,0\\\@

 Total job time:  16349.75s(wall), 10329.65s(cpu) 
 Sun Sep 26 10:25:42 2021

        *************************************************************
        *                                                           *
        *  Thank you very much for using Q-Chem.  Have a nice day.  *
        *                                                           *
        *************************************************************


