
Running Job 1 of 1 SSI-027ARG-094ASP-1_SMD_TZVPD.in
qchem SSI-027ARG-094ASP-1_SMD_TZVPD.in_64846.0 /tmp/qchem64846/ 0
/global/common/cori/software/qchem/5.2/exe/qcprog.exe_s SSI-027ARG-094ASP-1_SMD_TZVPD.in_64846.0 /tmp/qchem64846/
                  Welcome to Q-Chem
     A Quantum Leap Into The Future Of Chemistry


 Q-Chem 5.2, Q-Chem, Inc., Pleasanton, CA (2019)

 License issued to: National Energy Research Scientific Computing Center

 Yihan Shao,  Zhengting Gan,  E. Epifanovsky,  A. T. B. Gilbert,  M. Wormit,  
 J. Kussmann,  A. W. Lange,  A. Behn,  Jia Deng,  Xintian Feng,  D. Ghosh,  
 M. Goldey,  P. R. Horn,  L. D. Jacobson,  I. Kaliman,  T. Kus,  A. Landau,  
 Jie Liu,  E. I. Proynov,  R. M. Richard,  R. P. Steele,  E. J. Sundstrom,  
 H. L. Woodcock III,  P. M. Zimmerman,  D. Zuev,  B. Albrecht,  E. Alguire,  
 S. A. Baeppler,  D. Barton,  Z. Benda,  Y. A. Bernard,  E. J. Berquist,  
 K. B. Bravaya,  H. Burton,  D. Casanova,  Chun-Min Chang,  Yunqing Chen,  
 A. Chien,  K. D. Closser,  M. P. Coons,  S. Coriani,  S. Dasgupta,  
 A. L. Dempwolff,  M. Diedenhofen,  Hainam Do,  R. G. Edgar,  Po-Tung Fang,  
 S. Faraji,  S. Fatehi,  Qingguo Feng,  K. D. Fenk,  J. Fosso-Tande,  
 J. Gayvert,  Qinghui Ge,  A. Ghysels,  G. Gidofalvi,  J. Gomes,  
 J. Gonthier,  A. Gunina,  D. Hait,  M. W. D. Hanson-Heine,  
 P. H. P. Harbach,  A. W. Hauser,  M. F. Herbst,  J. E. Herr,  
 E. G. Hohenstein,  Z. C. Holden,  Kerwin Hui,  B. C. Huynh,  T.-C. Jagau,  
 Hyunjun Ji,  B. Kaduk,  K. Khistyaev,  Jaehoon Kim,  P. Klunzinger,  K. Koh,  
 D. Kosenkov,  L. Koulias,  T. Kowalczyk,  C. M. Krauter,  A. Kunitsa,  
 Ka Un Lao,  A. Laurent,  K. V. Lawler,  Joonho Lee,  D. Lefrancois,  
 S. Lehtola,  D. S. Levine,  Yi-Pei Li,  You-Sheng Lin,  Fenglai Liu,  
 E. Livshits,  A. Luenser,  P. Manohar,  E. Mansoor,  S. F. Manzer,  
 Shan-Ping Mao,  Yuezhi Mao,  N. Mardirossian,  A. V. Marenich,  
 T. Markovich,  L. A. Martinez-Martinez,  S. A. Maurer,  N. J. Mayhall,  
 S. C. McKenzie,  J.-M. Mewes,  P. Morgante,  A. F. Morrison,  
 J. W. Mullinax,  K. Nanda,  T. S. Nguyen-Beck,  R. Olivares-Amaya,  
 J. A. Parkhill,  Zheng Pei,  T. M. Perrine,  F. Plasser,  P. Pokhilko,  
 S. Prager,  A. Prociuk,  E. Ramos,  D. R. Rehn,  F. Rob,  M. Scheurer,  
 M. Schneider,  N. Sergueev,  S. M. Sharada,  S. Sharma,  D. W. Small,  
 T. Stauch,  T. Stein,  Yu-Chuan Su,  A. J. W. Thom,  A. Tkatchenko,  
 T. Tsuchimochi,  N. M. Tubman,  L. Vogt,  M. L. Vidal,  O. Vydrov,  
 M. A. Watson,  J. Wenzel,  M. de Wergifosse,  T. A. Wesolowski,  A. White,  
 J. Witte,  A. Yamada,  Jun Yang,  K. Yao,  S. Yeganeh,  S. R. Yost,  
 Zhi-Qiang You,  A. Zech,  Igor Ying Zhang,  Xing Zhang,  Yan Zhao,  
 Ying Zhu,  B. R. Brooks,  G. K. L. Chan,  C. J. Cramer,  M. S. Gordon,  
 W. J. Hehre,  A. Klamt,  M. W. Schmidt,  C. D. Sherrill,  D. G. Truhlar,  
 A. Aspuru-Guzik,  R. Baer,  A. T. Bell,  N. A. Besley,  Jeng-Da Chai,  
 A. E. DePrince, III,  R. A. DiStasio Jr.,  A. Dreuw,  B. D. Dunietz,  
 T. R. Furlani,  Chao-Ping Hsu,  Yousung Jung,  Jing Kong,  D. S. Lambrecht,  
 WanZhen Liang,  C. Ochsenfeld,  V. A. Rassolov,  L. V. Slipchenko,  
 J. E. Subotnik,  T. Van Voorhis,  J. M. Herbert,  A. I. Krylov,  
 P. M. W. Gill,  M. Head-Gordon

 Contributors to earlier versions of Q-Chem not listed above: 
 R. D. Adamson,  B. Austin,  J. Baker,  G. J. O. Beran,  K. Brandhorst,  
 S. T. Brown,  E. F. C. Byrd,  A. K. Chakraborty,  C.-L. Cheng,  
 Siu Hung Chien,  D. M. Chipman,  D. L. Crittenden,  H. Dachsel,  
 R. J. Doerksen,  A. D. Dutoi,  L. Fusti-Molnar,  W. A. Goddard III,  
 A. Golubeva-Zadorozhnaya,  S. R. Gwaltney,  G. Hawkins,  A. Heyden,  
 S. Hirata,  G. Kedziora,  F. J. Keil,  C. Kelley,  Jihan Kim,  R. A. King,  
 R. Z. Khaliullin,  P. P. Korambath,  W. Kurlancheek,  A. M. Lee,  M. S. Lee,  
 S. V. Levchenko,  Ching Yeh Lin,  D. Liotard,  R. C. Lochan,  I. Lotan,  
 P. E. Maslen,  N. Nair,  D. P. O'Neill,  D. Neuhauser,  E. Neuscamman,  
 C. M. Oana,  R. Olson,  B. Peters,  R. Peverati,  P. A. Pieniazek,  
 Y. M. Rhee,  J. Ritchie,  M. A. Rohrdanz,  E. Rosta,  N. J. Russ,  
 H. F. Schaefer III,  N. E. Schultz,  N. Shenvi,  A. C. Simmonett,  A. Sodt,  
 D. Stuck,  K. S. Thanthiriwatte,  V. Vanovschi,  Tao Wang,  A. Warshel,  
 C. F. Williams,  Q. Wu,  X. Xu,  W. Zhang

 Please cite Q-Chem as follows:
 Y. Shao et al., Mol. Phys. 113, 184-215 (2015)
 DOI: 10.1080/00268976.2014.952696

 Q-Chem 5.2.0 for Intel X86 EM64T Linux

 Parts of Q-Chem use Armadillo 8.300.2 (Tropical Shenanigans).
 http://arma.sourceforge.net/

 Q-Chem begins on Sun Sep 26 04:31:49 2021  

Host: cori01
0

     Scratch files written to /tmp/qchem64846//
 May1019 |scratch|qcdevops|jenkins|workspace|build_RNUM -1
Processing $rem in /global/common/cori/software/qchem/5.2/config/preferences:
	 MEM_TOTAL  96000 
NAlpha2: 72
NElect   72
Mult     1
Symmetry turned off for PCM/SM12/SMD calculation

 Q-Chem warning in module libgen/rem_setup.C, line 2803:

 Neither GIA nor STOLL is specified by user. Use STOLL as the default


Checking the input file for inconsistencies... 	...done.

--------------------------------------------------------------
User input:
--------------------------------------------------------------
$comment
SSI-027ARG-094ASP-1.pdb
$end

$molecule
0 1
--
1 1
C   -1.217240943440   -2.535928227464    3.338867062348
C   -0.716240943440   -1.003928227464    1.429867062348
N   -0.849240943440   -0.764928227464    0.150867062348
N   -1.295240943440   -2.082928227464    1.939867062348
N    0.007759056560   -0.183928227464    2.155867062348
H   -1.409240943440   -1.373928227464   -0.432132937652
H   -0.391240943440    0.048071772536   -0.280132937652
H   -1.779240943440   -2.678928227464    1.271867062348
H    0.116759056560   -0.335928227464    3.145867062348
H    0.437759056560    0.623071772536    1.725867062348
H   -0.300240943440   -2.183928227464    3.815867062348
H   -1.187240943440   -3.627928227464    3.353867062348
H   -2.088050943440   -2.199788227464    3.920842162348
--
-1 1
C    1.414759056560    2.960071772536   -2.636132937652
C    1.015759056560    1.567071772536   -2.231132937652
O    0.350759056560    1.422071772536   -1.179132937652
O    1.272759056560    0.607071772536   -2.992132937652
H    1.761759056560    2.979071772536   -3.669132937652
H    2.255759056560    3.248071772536   -2.003132937652
H    0.587059056560    3.667381772536   -2.479192937652
$end

$rem
JOBTYPE			EDA
EDA2			1
method			wB97X-V
BASIS			def2-TZVPD
XC_GRID			000099000590
NL_GRID			1
UNRESTRICTED		FALSE
MAX_SCF_CYCLES		200
SYMMETRY		FALSE
SYM_IGNORE		TRUE
MEM_STATIC		2000
BASIS_LIN_DEP_THRESH 	6
THRESH 			14
SCF_CONVERGENCE 	8
SCF_PRINT_FRGM 		TRUE
SOLVENT_METHOD          SMD
$end

$SMX
SOLVENT			WATER
$END
--------------------------------------------------------------
 ----------------------------------------------------------------
             Standard Nuclear Orientation (Angstroms)
    I     Atom           X                Y                Z
 ----------------------------------------------------------------
    1      C      -1.2172409434    -2.5359282275     3.3388670623
    2      C      -0.7162409434    -1.0039282275     1.4298670623
    3      N      -0.8492409434    -0.7649282275     0.1508670623
    4      N      -1.2952409434    -2.0829282275     1.9398670623
    5      N       0.0077590566    -0.1839282275     2.1558670623
    6      H      -1.4092409434    -1.3739282275    -0.4321329377
    7      H      -0.3912409434     0.0480717725    -0.2801329377
    8      H      -1.7792409434    -2.6789282275     1.2718670623
    9      H       0.1167590566    -0.3359282275     3.1458670623
   10      H       0.4377590566     0.6230717725     1.7258670623
   11      H      -0.3002409434    -2.1839282275     3.8158670623
   12      H      -1.1872409434    -3.6279282275     3.3538670623
   13      H      -2.0880509434    -2.1997882275     3.9208421623
   14      C       1.4147590566     2.9600717725    -2.6361329377
   15      C       1.0157590566     1.5670717725    -2.2311329377
   16      O       0.3507590566     1.4220717725    -1.1791329377
   17      O       1.2727590566     0.6070717725    -2.9921329377
   18      H       1.7617590566     2.9790717725    -3.6691329377
   19      H       2.2557590566     3.2480717725    -2.0031329377
   20      H       0.5870590566     3.6673817725    -2.4791929377
 ----------------------------------------------------------------
 Nuclear Repulsion Energy =         438.85490276 hartrees
 There are       36 alpha and       36 beta electrons
 Requested basis set is def2-TZVPD
 There are 174 shells and 438 basis functions

 Total QAlloc Memory Limit  96000 MB
 Mega-Array Size      1956 MB
 MEM_STATIC part      2000 MB
 
 Citation of the SMD model:
 Marenich, A.V.; Cramer, C.J.; Truhlar, D.G.
 J. Phys. Chem. B 2009, 113, 6378-6396.
 iSolventCode=           1
 Solvent: water                                                           
 
 vradii
            1           2           3           4           5           6
    1   1.8500000   1.8500000   1.8900000   1.8900000   1.8900000   1.2000000
            7           8           9          10          11          12
    1   1.2000000   1.2000000   1.2000000   1.2000000   1.2000000   1.2000000
           13          14          15          16          17          18
    1   1.2000000   1.8500000   1.8500000   1.5200000   1.5200000   1.2000000
           19          20
    1   1.2000000   1.2000000
 Changing PCM_VDW_RADII to SMD_RADIUS
 Discretize the solute cavity surface with Lebedev spheres
	Using 110 Lebedev grid points for each H atom
	Using 194 Lebedev grid points for other atoms
	Atomic van der Waals radii will be scaled by 1.20
 Remove points where switching function is < 1.0e-08
 Keep 1527 surface tesserae and discard 1429 interior tesserae
 Molecular Surface Area = 185.705 Angst**2
 A cutoff of  1.0D-14 yielded  12968 shell pairs
 There are     82198 function pairs (    102923 Cartesian)
 Smallest overlap matrix eigenvalue = 8.98E-06

 Scale SEOQF with 1.000000e-01/1.000000e-01/1.000000e-01

 Standard Electronic Orientation quadrupole field applied
 Nucleus-field energy     =    -0.0000000205 hartrees

 -----------------------------------------------------------------------
  General SCF calculation program by
  Eric Jon Sundstrom, Paul Horn, Yuezhi Mao, Dmitri Zuev, Alec White,
  David Stuck, Shaama M.S., Shane Yost, Joonho Lee, David Small,
  Daniel Levine, Susi Lehtola, Hugh Burton, Evgeny Epifanovsky
 -----------------------------------------------------------------------
================================================================
                 ALMO-EDA with the EDA2 driver                  
================================================================
 The second-generation ALMO-EDA (for DFT):                      
 P. R. Horn, Y. Mao and M. Head-Gordon, PCCP, 18, 23067 (2016)  
 Decomposition of the frozen energy:                            
 P. R. Horn, Y. Mao and M. Head-Gordon, JCP, 144, 114107 (2016) 
 FERF model for polarization:                                   
 P. R. Horn and M. Head-Gordon, JCP, 143, 114111 (2015)         
Using eda2 option set 1
Option set summary: Frozen orbital wavefunction, initial wavefunction decomposition, and nDQ polarization.
--------------------------------
Printing EDA Options
--------------------------------
eda_child_super_basis      0
fragmo_guess_mode          0
child_mp                   1
child_mp_orders            232
cls_elec                   1
cls_disp                   0
scfmi_mode                 1
scfmi_occs                 0
scfmi_virts                0
frz_relax                  0
frz_relax_method           0
dc_pen_start               0
dc_pen_conv                0
dc_pen_increment           0
dc_pen_steps               0
dc_pen_thresh_factor       0
dc_pen_pre_newton_thresh   0
frz_ortho_decomp           1
frz_ortho_decomp_conv      6
frgm_method                2
scfmi_freeze_ss            0
separate_rehyb             0
plot_diff_den              0
eda_nocv                   0
eda_vct_relax              1
disp_free_x                0
disp_free_c                0
eda_bsse                   0
eda_pct_a                  0
eda_covp                   0
--------------------------------
Attempting to make child job directory: /tmp/qchem64846//Frg1/
Attempting to make child job directory: /tmp/qchem64846//Frg2/
Creating input file /tmp/qchem64846/Frg1.input
using default PutDataFrgm: nothing
calling putenv with: QCSCRATCH=/tmp/qchem64846/ 
calling putenv with: QCLOCALSCR=/tmp/qchem64846/ 
Spawning Job For Fragment 0
                  Welcome to Q-Chem
     A Quantum Leap Into The Future Of Chemistry


 Q-Chem 5.2, Q-Chem, Inc., Pleasanton, CA (2019)

 License issued to: National Energy Research Scientific Computing Center

 Yihan Shao,  Zhengting Gan,  E. Epifanovsky,  A. T. B. Gilbert,  M. Wormit,  
 J. Kussmann,  A. W. Lange,  A. Behn,  Jia Deng,  Xintian Feng,  D. Ghosh,  
 M. Goldey,  P. R. Horn,  L. D. Jacobson,  I. Kaliman,  T. Kus,  A. Landau,  
 Jie Liu,  E. I. Proynov,  R. M. Richard,  R. P. Steele,  E. J. Sundstrom,  
 H. L. Woodcock III,  P. M. Zimmerman,  D. Zuev,  B. Albrecht,  E. Alguire,  
 S. A. Baeppler,  D. Barton,  Z. Benda,  Y. A. Bernard,  E. J. Berquist,  
 K. B. Bravaya,  H. Burton,  D. Casanova,  Chun-Min Chang,  Yunqing Chen,  
 A. Chien,  K. D. Closser,  M. P. Coons,  S. Coriani,  S. Dasgupta,  
 A. L. Dempwolff,  M. Diedenhofen,  Hainam Do,  R. G. Edgar,  Po-Tung Fang,  
 S. Faraji,  S. Fatehi,  Qingguo Feng,  K. D. Fenk,  J. Fosso-Tande,  
 J. Gayvert,  Qinghui Ge,  A. Ghysels,  G. Gidofalvi,  J. Gomes,  
 J. Gonthier,  A. Gunina,  D. Hait,  M. W. D. Hanson-Heine,  
 P. H. P. Harbach,  A. W. Hauser,  M. F. Herbst,  J. E. Herr,  
 E. G. Hohenstein,  Z. C. Holden,  Kerwin Hui,  B. C. Huynh,  T.-C. Jagau,  
 Hyunjun Ji,  B. Kaduk,  K. Khistyaev,  Jaehoon Kim,  P. Klunzinger,  K. Koh,  
 D. Kosenkov,  L. Koulias,  T. Kowalczyk,  C. M. Krauter,  A. Kunitsa,  
 Ka Un Lao,  A. Laurent,  K. V. Lawler,  Joonho Lee,  D. Lefrancois,  
 S. Lehtola,  D. S. Levine,  Yi-Pei Li,  You-Sheng Lin,  Fenglai Liu,  
 E. Livshits,  A. Luenser,  P. Manohar,  E. Mansoor,  S. F. Manzer,  
 Shan-Ping Mao,  Yuezhi Mao,  N. Mardirossian,  A. V. Marenich,  
 T. Markovich,  L. A. Martinez-Martinez,  S. A. Maurer,  N. J. Mayhall,  
 S. C. McKenzie,  J.-M. Mewes,  P. Morgante,  A. F. Morrison,  
 J. W. Mullinax,  K. Nanda,  T. S. Nguyen-Beck,  R. Olivares-Amaya,  
 J. A. Parkhill,  Zheng Pei,  T. M. Perrine,  F. Plasser,  P. Pokhilko,  
 S. Prager,  A. Prociuk,  E. Ramos,  D. R. Rehn,  F. Rob,  M. Scheurer,  
 M. Schneider,  N. Sergueev,  S. M. Sharada,  S. Sharma,  D. W. Small,  
 T. Stauch,  T. Stein,  Yu-Chuan Su,  A. J. W. Thom,  A. Tkatchenko,  
 T. Tsuchimochi,  N. M. Tubman,  L. Vogt,  M. L. Vidal,  O. Vydrov,  
 M. A. Watson,  J. Wenzel,  M. de Wergifosse,  T. A. Wesolowski,  A. White,  
 J. Witte,  A. Yamada,  Jun Yang,  K. Yao,  S. Yeganeh,  S. R. Yost,  
 Zhi-Qiang You,  A. Zech,  Igor Ying Zhang,  Xing Zhang,  Yan Zhao,  
 Ying Zhu,  B. R. Brooks,  G. K. L. Chan,  C. J. Cramer,  M. S. Gordon,  
 W. J. Hehre,  A. Klamt,  M. W. Schmidt,  C. D. Sherrill,  D. G. Truhlar,  
 A. Aspuru-Guzik,  R. Baer,  A. T. Bell,  N. A. Besley,  Jeng-Da Chai,  
 A. E. DePrince, III,  R. A. DiStasio Jr.,  A. Dreuw,  B. D. Dunietz,  
 T. R. Furlani,  Chao-Ping Hsu,  Yousung Jung,  Jing Kong,  D. S. Lambrecht,  
 WanZhen Liang,  C. Ochsenfeld,  V. A. Rassolov,  L. V. Slipchenko,  
 J. E. Subotnik,  T. Van Voorhis,  J. M. Herbert,  A. I. Krylov,  
 P. M. W. Gill,  M. Head-Gordon

 Contributors to earlier versions of Q-Chem not listed above: 
 R. D. Adamson,  B. Austin,  J. Baker,  G. J. O. Beran,  K. Brandhorst,  
 S. T. Brown,  E. F. C. Byrd,  A. K. Chakraborty,  C.-L. Cheng,  
 Siu Hung Chien,  D. M. Chipman,  D. L. Crittenden,  H. Dachsel,  
 R. J. Doerksen,  A. D. Dutoi,  L. Fusti-Molnar,  W. A. Goddard III,  
 A. Golubeva-Zadorozhnaya,  S. R. Gwaltney,  G. Hawkins,  A. Heyden,  
 S. Hirata,  G. Kedziora,  F. J. Keil,  C. Kelley,  Jihan Kim,  R. A. King,  
 R. Z. Khaliullin,  P. P. Korambath,  W. Kurlancheek,  A. M. Lee,  M. S. Lee,  
 S. V. Levchenko,  Ching Yeh Lin,  D. Liotard,  R. C. Lochan,  I. Lotan,  
 P. E. Maslen,  N. Nair,  D. P. O'Neill,  D. Neuhauser,  E. Neuscamman,  
 C. M. Oana,  R. Olson,  B. Peters,  R. Peverati,  P. A. Pieniazek,  
 Y. M. Rhee,  J. Ritchie,  M. A. Rohrdanz,  E. Rosta,  N. J. Russ,  
 H. F. Schaefer III,  N. E. Schultz,  N. Shenvi,  A. C. Simmonett,  A. Sodt,  
 D. Stuck,  K. S. Thanthiriwatte,  V. Vanovschi,  Tao Wang,  A. Warshel,  
 C. F. Williams,  Q. Wu,  X. Xu,  W. Zhang

 Please cite Q-Chem as follows:
 Y. Shao et al., Mol. Phys. 113, 184-215 (2015)
 DOI: 10.1080/00268976.2014.952696

 Q-Chem 5.2.0 for Intel X86 EM64T Linux

 Parts of Q-Chem use Armadillo 8.300.2 (Tropical Shenanigans).
 http://arma.sourceforge.net/

 Q-Chem begins on Sun Sep 26 04:31:53 2021  

Host: cori01
0

     Scratch files written to /tmp/qchem64846//Frg1//
 May1019 |scratch|qcdevops|jenkins|workspace|build_RNUM -1
Processing $rem in /global/common/cori/software/qchem/5.2/config/preferences:
	 MEM_TOTAL  96000 
NAlpha2: 40
NElect   40
Mult     1
Symmetry turned off for PCM/SM12/SMD calculation

Checking the input file for inconsistencies... 	...done.

--------------------------------------------------------------
User input:
--------------------------------------------------------------
$molecule
1 1
 6	-1.2172409434	-2.5359282275	3.3388670623
 6	-0.7162409434	-1.0039282275	1.4298670623
 7	-0.8492409434	-0.7649282275	0.1508670623
 7	-1.2952409434	-2.0829282275	1.9398670623
 7	0.0077590566	-0.1839282275	2.1558670623
 1	-1.4092409434	-1.3739282275	-0.4321329377
 1	-0.3912409434	0.0480717725	-0.2801329377
 1	-1.7792409434	-2.6789282275	1.2718670623
 1	0.1167590566	-0.3359282275	3.1458670623
 1	0.4377590566	0.6230717725	1.7258670623
 1	-0.3002409434	-2.1839282275	3.8158670623
 1	-1.1872409434	-3.6279282275	3.3538670623
 1	-2.0880509434	-2.1997882275	3.9208421623
$end
$rem
EDA2		1
METHOD		WB97X-V
BASIS		DEF2-TZVPD
XC_GRID		000099000590
NL_GRID		1
UNRESTRICTED		FALSE
MAX_SCF_CYCLES		200
SYMMETRY		FALSE
SYM_IGNORE		TRUE
BASIS_LIN_DEP_THRESH		6
THRESH		14
SCF_CONVERGENCE		8
SCF_PRINT_FRGM		TRUE
SOLVENT_METHOD		SMD
!required keywords
JOBTYPE		SP
SYM_IGNORE		TRUE
SUBSYSTEM		TRUE
GEN_SCFMAN		TRUE
CHILD_INSTRUCTION		2
SYM_IGNORE		TRUE
SCFMI		0
RI_K 0		
PARI_K 0		
MIN_PARI_K 0		
IARI_K 0		
OCC_RI_K 0		
PURECART		1111
MEM_STATIC		2000
MEM_TOTAL		96000
GUI		0
CHILD_MP		1
CHILD_MP_ORDERS		232
FRZ_RELAX		0
FRZ_RELAX_METHOD		0
EDA_CLS_ELEC		1
EDA_CLS_DISP		0
FRZ_ORTHO_DECOMP		1
EDA2		FALSE
FRGM_METHOD		FALSE
CIS_N_ROOTS  0
LOCAL_CIS    0
CIS_RLX_DNS  1
$end
$smx
SOLVENT			WATER
$end
--------------------------------------------------------------
 ----------------------------------------------------------------
             Standard Nuclear Orientation (Angstroms)
    I     Atom           X                Y                Z
 ----------------------------------------------------------------
    1      C      -1.2172409434    -2.5359282275     3.3388670623
    2      C      -0.7162409434    -1.0039282275     1.4298670623
    3      N      -0.8492409434    -0.7649282275     0.1508670623
    4      N      -1.2952409434    -2.0829282275     1.9398670623
    5      N       0.0077590566    -0.1839282275     2.1558670623
    6      H      -1.4092409434    -1.3739282275    -0.4321329377
    7      H      -0.3912409434     0.0480717725    -0.2801329377
    8      H      -1.7792409434    -2.6789282275     1.2718670623
    9      H       0.1167590566    -0.3359282275     3.1458670623
   10      H       0.4377590566     0.6230717725     1.7258670623
   11      H      -0.3002409434    -2.1839282275     3.8158670623
   12      H      -1.1872409434    -3.6279282275     3.3538670623
   13      H      -2.0880509434    -2.1997882275     3.9208421623
 ----------------------------------------------------------------
 Nuclear Repulsion Energy =         194.02603391 hartrees
 There are       20 alpha and       20 beta electrons
 Requested basis set is def2-TZVPD
 There are 105 shells and 257 basis functions

 Total QAlloc Memory Limit  96000 MB
 Mega-Array Size      1956 MB
 MEM_STATIC part      2000 MB
 
 Citation of the SMD model:
 Marenich, A.V.; Cramer, C.J.; Truhlar, D.G.
 J. Phys. Chem. B 2009, 113, 6378-6396.
 iSolventCode=           1
 Solvent: water                                                           
 
 vradii
            1           2           3           4           5           6
    1   1.8500000   1.8500000   1.8900000   1.8900000   1.8900000   1.2000000
            7           8           9          10          11          12
    1   1.2000000   1.2000000   1.2000000   1.2000000   1.2000000   1.2000000
           13
    1   1.2000000
 Changing PCM_VDW_RADII to SMD_RADIUS
 Discretize the solute cavity surface with Lebedev spheres
	Using 110 Lebedev grid points for each H atom
	Using 194 Lebedev grid points for other atoms
	Atomic van der Waals radii will be scaled by 1.20
 Remove points where switching function is < 1.0e-08
 Keep 913 surface tesserae and discard 937 interior tesserae
 Molecular Surface Area = 113.780 Angst**2

                       Distance Matrix (Angstroms)
             C (  1)   C (  2)   N (  3)   N (  4)   N (  5)   H (  6)
   C (  2)  2.498461
   N (  3)  3.665407  1.307919
   N (  4)  1.472581  1.326492  2.266398
   N (  5)  2.903794  1.312879  2.256554  2.313151
   H (  6)  3.950639  2.020939  1.012112  2.478318  3.181467
   H (  7)  4.522885  2.033821  1.027859  3.207301  2.479339  1.755424
   H (  8)  2.146807  1.990115  2.405190  1.017692  3.193720  2.177967
   H (  9)  2.580078  2.021081  3.176039  2.549547  1.007514  4.025941
   H ( 10)  3.914087  2.016547  2.462425  3.220485  1.010470  3.472230
   H ( 11)  1.091935  2.694151  3.968273  2.125936  2.617339  4.464469
   H ( 12)  1.092515  3.287703  4.309318  2.097161  3.837234  4.411757
   H ( 13)  1.099998  3.084947  4.219738  2.136929  3.401654  4.482323
             H (  7)   H (  8)   H (  9)   H ( 10)   H ( 11)   H ( 12)
   H (  8)  3.431002
   H (  9)  3.484680  3.549132
   H ( 10)  2.245418  4.003050  1.743308
   H ( 11)  4.665546  2.984024  2.009451  3.576590
   H ( 12)  5.229966  2.363427  3.546963  4.833426  1.756516
   H ( 13)  5.057690  2.709614  2.989272  4.377919  1.790959  1.781152

 
 A cutoff of  1.0D-14 yielded   5438 shell pairs
 There are     33156 function pairs (     41489 Cartesian)
 Smallest overlap matrix eigenvalue = 1.64E-05

 Scale SEOQF with 1.000000e-01/1.000000e-01/1.000000e-01

 Standard Electronic Orientation quadrupole field applied
 Nucleus-field energy     =    -0.0000000114 hartrees
 Guess from superposition of atomic densities
 Warning:  Energy on first SCF cycle will be non-variational
 SAD guess density has 40.388232 electrons

 -----------------------------------------------------------------------
  General SCF calculation program by
  Eric Jon Sundstrom, Paul Horn, Yuezhi Mao, Dmitri Zuev, Alec White,
  David Stuck, Shaama M.S., Shane Yost, Joonho Lee, David Small,
  Daniel Levine, Susi Lehtola, Hugh Burton, Evgeny Epifanovsky
 -----------------------------------------------------------------------
 Exchange:     0.1670 Hartree-Fock + 1.0000 wB97X-V + LR-HF
 Correlation:  1.0000 wB97X-V
 Using Euler-Maclaurin-Lebedev (99,590) quadrature formula
 Nonlocal Correlation:  VV10 with C = 0.0100 and b = 6.00 and scale = 1.00000
 Grid used for NLC:  SG-1 standard quadrature
Energy prior to optimization (guess energy) = -244.724040385314
Begin Timing: Total SCF Calculation
begin iterations for algorithm: DIIS         
the SCF tolerance is set to 1.00e-08
    1    -244.7240403853      7.92e-03     00000 
    2    -244.9638424946      6.22e-03     00000 
    3    -245.2040690379      3.22e-04     00000 
    4    -245.2049842924      1.70e-04     00000 
    5    -245.2052082593      4.74e-05     00000 
    6    -245.2052275662      1.88e-05     00000 
    7    -245.2052305792      3.29e-06     00000 
    8    -245.2052307809      9.15e-07     00000 
    9    -245.2052307944      4.02e-07     00000 
   10    -245.2052307972      8.91e-08     00000 
   11    -245.2052307975      2.51e-08     00000 
   12    -245.2052307975      1.26e-08     00000 
   13    -245.2052307975      2.50e-09     00000 Convergence criterion met
Timing for Total SCF: 728.00s (wall), 1446.91s (cpu)
(3)  G-ENP(liq) elect-nuc-pol free energy of system     -245.205230797 a.u.
(4)  G-CDS(liq) cavity-dispersion-solvent structure 
     free energy                                                2.8082 kcal/mol
(6)  G-S(liq) free energy of system                     -245.200755580 a.u.
E_pcm = -0.1086221713
E_cds = 0.0044752171
Multipole orders to be included
        2
        3
computing dipole RHS
computing quadrupole RHS
total number of RHS in solve_reponses: 8
RHS batch sizes
        8
Beginning Block Conjugate Gradient Iterations. Batch Number: 0
computing hessian-vector products by finite difference
              1      4.69e-01     00000 Conjugate Gradient Iteration
computing hessian-vector products by finite difference
              2      1.77e-01     00000 Conjugate Gradient Iteration
computing hessian-vector products by finite difference
              3      5.01e-02     00000 Conjugate Gradient Iteration
computing hessian-vector products by finite difference
              4      1.33e-02     00000 Conjugate Gradient Iteration
computing hessian-vector products by finite difference
              5      1.88e-03     00000 Conjugate Gradient Iteration
computing hessian-vector products by finite difference
              6      3.51e-04     00000 Conjugate Gradient Iteration
computing hessian-vector products by finite difference
              7      5.51e-05     00000 Conjugate Gradient Iteration
computing hessian-vector products by finite difference
              8      9.77e-06     00000 Conjugate Gradient Iteration
computing hessian-vector products by finite difference
              9      1.56e-06     00000 Conjugate Gradient Iteration
computing hessian-vector products by finite difference
             10      2.05e-07     00000 Conjugate Gradient Iteration
computing hessian-vector products by finite difference
             11      2.52e-08     00000 Conjugate Gradient Iteration
computing hessian-vector products by finite difference
             12      3.59e-09     00000 CG Converged
batch 0 complete
Done Calculating Responses
TESTING ORTHOGONALIZATION OF MULTIPOLE BASIS
Multipole virts passed orthogonality test
Virts Per Order
           60
          100
 
 --------------------------------------------------------------
 
                    Orbital Energies (a.u.)
 --------------------------------------------------------------
 
 Alpha MOs
 -- Occupied --
-14.4544 -14.4471 -14.4452 -10.4199 -10.3063  -1.1745  -1.0539  -1.0416
 -0.8517  -0.7651  -0.7215  -0.6855  -0.6158  -0.6085  -0.5949  -0.5682
 -0.5275  -0.5063  -0.3989  -0.3753
 -- Virtual --
  0.0587   0.0849   0.0986   0.1067   0.1233   0.1270   0.1379   0.1531
  0.1699   0.1766   0.1952   0.1976   0.2060   0.2127   0.2235   0.2394
  0.2418   0.2460   0.2476   0.2687   0.2817   0.2861   0.2963   0.3070
  0.3100   0.3196   0.3229   0.3248   0.3365   0.3475   0.3528   0.3617
  0.3699   0.3733   0.3796   0.3922   0.4093   0.4125   0.4159   0.4287
  0.4384   0.4463   0.4623   0.4667   0.4798   0.4818   0.4846   0.4997
  0.5025   0.5144   0.5163   0.5231   0.5307   0.5430   0.5503   0.5573
  0.5638   0.5713   0.5825   0.5912   0.6094   0.6198   0.6404   0.6461
  0.6643   0.6802   0.6872   0.7051   0.7241   0.7370   0.7432   0.7696
  0.8018   0.8049   0.8170   0.8239   0.8393   0.8519   0.8603   0.8693
  0.8814   0.8844   0.9016   0.9261   0.9378   0.9845   0.9914   0.9968
  1.0435   1.0665   1.0761   1.0954   1.1104   1.1209   1.1353   1.1468
  1.1481   1.1795   1.2146   1.2569   1.2778   1.3469   1.3618   1.4211
  1.4303   1.4505   1.4845   1.4930   1.5685   1.5718   1.6440   1.6776
  1.6844   1.7038   1.7546   1.7954   1.8342   1.8612   1.8796   1.8906
  1.9117   1.9298   1.9471   1.9502   2.0038   2.0099   2.0397   2.0656
  2.1041   2.1293   2.1925   2.2209   2.2249   2.2609   2.2679   2.2783
  2.3029   2.3523   2.3744   2.4073   2.4513   2.4785   2.5122   2.5220
  2.5644   2.5868   2.6106   2.6457   2.6600   2.6773   2.7111   2.7285
  2.7965   2.8078   2.8585   2.8698   2.8922   2.9210   2.9482   2.9608
  3.0431   3.1372   3.1425   3.1588   3.1841   3.2022   3.2323   3.2392
  3.2770   3.2883   3.2969   3.3421   3.3743   3.3922   3.4070   3.4399
  3.4635   3.4958   3.5382   3.5902   3.6003   3.6765   3.6991   3.7383
  3.8253   3.8984   3.9206   3.9856   4.0733   4.1510   4.2003   4.2270
  4.3037   4.3147   4.3286   4.3453   4.3957   4.4722   4.5763   4.6331
  4.6666   4.8346   4.8680   4.8750   4.9333   4.9923   5.0313   5.0531
  5.1136   5.1223   5.1349   5.1589   5.2082   5.2365   5.2917   5.3712
  5.3876   5.4336   5.4461   5.4609   5.5007   5.5049   5.5811   5.6489
  5.7065   5.7755   5.8197   5.9033   6.1502   6.1987   6.3860   6.5125
 22.6393  23.7007  32.3421  32.4573  32.8364
 --------------------------------------------------------------
 
          Ground-State Mulliken Net Atomic Charges

     Atom                 Charge (a.u.)
  ----------------------------------------
      1 C                    -0.784062
      2 C                     0.480698
      3 N                    -0.319778
      4 N                    -0.120747
      5 N                    -0.287666
      6 H                     0.242297
      7 H                     0.252378
      8 H                     0.284226
      9 H                     0.196320
     10 H                     0.243936
     11 H                     0.288943
     12 H                     0.276971
     13 H                     0.246484
  ----------------------------------------
  Sum of atomic charges =     1.000000

 -----------------------------------------------------------------
                    Cartesian Multipole Moments
 -----------------------------------------------------------------
    Charge (ESU x 10^10)
                 4.8032
    Dipole Moment (Debye)
         X      -3.3964      Y      -5.2442      Z       7.1040
       Tot       9.4607
    Quadrupole Moments (Debye-Ang)
        XX     -24.8580     XY      11.1287     YY     -13.8645
        XZ      -2.7147     YZ     -10.4847     ZZ      -5.4889
    Octopole Moments (Debye-Ang^2)
       XXX      65.6036    XXY      24.8302    XYY      -1.6863
       YYY      78.7495    XXZ     -50.7734    XYZ      15.2563
       YYZ     -24.9245    XZZ      12.9251    YZZ       4.4151
       ZZZ     -88.5682
    Hexadecapole Moments (Debye-Ang^3)
      XXXX    -191.9516   XXXY    -112.0963   XXYY     -79.0959
      XYYY     -63.3356   YYYY    -392.4796   XXXZ     134.5968
      XXYZ      75.3536   XYYZ       7.2974   YYYZ     191.2662
      XXZZ    -161.7106   XYZZ      -1.7702   YYZZ    -143.4034
      XZZZ     106.9096   YZZZ     160.0543   ZZZZ    -624.0564
 -----------------------------------------------------------------
Archival summary:
1\1\nid00561\SP\ProcedureUnspecified\BasisUnspecified\328(1+,1)\meili\SunSep2608:07:592021SunSep2608:07:592021\0\\#,ProcedureUnspecified,BasisUnspecified,\\1,1\C\N,1,1.30792\H,2,1.01211,1,120.637\H,2,1.02786,1,120.615,3,179.652,0\N,1,1.31288,2,118.862,3,-179.348,0\H,5,1.00751,1,120.584,2,179.123,0\H,5,1.01047,1,119.879,2,0.977095,0\N,1,1.32649,2,118.7,3,2.07251,0\H,8,1.01769,1,115.569,2,2.50849,0\C,8,1.47258,1,126.325,2,177.779,0\H,10,1.09193,8,111.12,1,-26.21,0\H,10,1.09251,8,108.782,1,-143.811,0\H,10,1.1,8,111.512,1,96.3707,0\\\@

 Total job time:  12967.77s(wall), 25701.30s(cpu) 
 Sun Sep 26 08:08:00 2021

        *************************************************************
        *                                                           *
        *  Thank you very much for using Q-Chem.  Have a nice day.  *
        *                                                           *
        *************************************************************


Done Job For Fragment 0
calling putenv with: QCSCRATCH=/global/cscratch1/sd/meili 
calling putenv with: QCLOCALSCR=/tmp 
calling putenv with: QCTHREADS=32 
Creating input file /tmp/qchem64846/Frg2.input
using default PutDataFrgm: nothing
calling putenv with: QCSCRATCH=/tmp/qchem64846/ 
calling putenv with: QCLOCALSCR=/tmp/qchem64846/ 
Spawning Job For Fragment 1
                  Welcome to Q-Chem
     A Quantum Leap Into The Future Of Chemistry


 Q-Chem 5.2, Q-Chem, Inc., Pleasanton, CA (2019)

 License issued to: National Energy Research Scientific Computing Center

 Yihan Shao,  Zhengting Gan,  E. Epifanovsky,  A. T. B. Gilbert,  M. Wormit,  
 J. Kussmann,  A. W. Lange,  A. Behn,  Jia Deng,  Xintian Feng,  D. Ghosh,  
 M. Goldey,  P. R. Horn,  L. D. Jacobson,  I. Kaliman,  T. Kus,  A. Landau,  
 Jie Liu,  E. I. Proynov,  R. M. Richard,  R. P. Steele,  E. J. Sundstrom,  
 H. L. Woodcock III,  P. M. Zimmerman,  D. Zuev,  B. Albrecht,  E. Alguire,  
 S. A. Baeppler,  D. Barton,  Z. Benda,  Y. A. Bernard,  E. J. Berquist,  
 K. B. Bravaya,  H. Burton,  D. Casanova,  Chun-Min Chang,  Yunqing Chen,  
 A. Chien,  K. D. Closser,  M. P. Coons,  S. Coriani,  S. Dasgupta,  
 A. L. Dempwolff,  M. Diedenhofen,  Hainam Do,  R. G. Edgar,  Po-Tung Fang,  
 S. Faraji,  S. Fatehi,  Qingguo Feng,  K. D. Fenk,  J. Fosso-Tande,  
 J. Gayvert,  Qinghui Ge,  A. Ghysels,  G. Gidofalvi,  J. Gomes,  
 J. Gonthier,  A. Gunina,  D. Hait,  M. W. D. Hanson-Heine,  
 P. H. P. Harbach,  A. W. Hauser,  M. F. Herbst,  J. E. Herr,  
 E. G. Hohenstein,  Z. C. Holden,  Kerwin Hui,  B. C. Huynh,  T.-C. Jagau,  
 Hyunjun Ji,  B. Kaduk,  K. Khistyaev,  Jaehoon Kim,  P. Klunzinger,  K. Koh,  
 D. Kosenkov,  L. Koulias,  T. Kowalczyk,  C. M. Krauter,  A. Kunitsa,  
 Ka Un Lao,  A. Laurent,  K. V. Lawler,  Joonho Lee,  D. Lefrancois,  
 S. Lehtola,  D. S. Levine,  Yi-Pei Li,  You-Sheng Lin,  Fenglai Liu,  
 E. Livshits,  A. Luenser,  P. Manohar,  E. Mansoor,  S. F. Manzer,  
 Shan-Ping Mao,  Yuezhi Mao,  N. Mardirossian,  A. V. Marenich,  
 T. Markovich,  L. A. Martinez-Martinez,  S. A. Maurer,  N. J. Mayhall,  
 S. C. McKenzie,  J.-M. Mewes,  P. Morgante,  A. F. Morrison,  
 J. W. Mullinax,  K. Nanda,  T. S. Nguyen-Beck,  R. Olivares-Amaya,  
 J. A. Parkhill,  Zheng Pei,  T. M. Perrine,  F. Plasser,  P. Pokhilko,  
 S. Prager,  A. Prociuk,  E. Ramos,  D. R. Rehn,  F. Rob,  M. Scheurer,  
 M. Schneider,  N. Sergueev,  S. M. Sharada,  S. Sharma,  D. W. Small,  
 T. Stauch,  T. Stein,  Yu-Chuan Su,  A. J. W. Thom,  A. Tkatchenko,  
 T. Tsuchimochi,  N. M. Tubman,  L. Vogt,  M. L. Vidal,  O. Vydrov,  
 M. A. Watson,  J. Wenzel,  M. de Wergifosse,  T. A. Wesolowski,  A. White,  
 J. Witte,  A. Yamada,  Jun Yang,  K. Yao,  S. Yeganeh,  S. R. Yost,  
 Zhi-Qiang You,  A. Zech,  Igor Ying Zhang,  Xing Zhang,  Yan Zhao,  
 Ying Zhu,  B. R. Brooks,  G. K. L. Chan,  C. J. Cramer,  M. S. Gordon,  
 W. J. Hehre,  A. Klamt,  M. W. Schmidt,  C. D. Sherrill,  D. G. Truhlar,  
 A. Aspuru-Guzik,  R. Baer,  A. T. Bell,  N. A. Besley,  Jeng-Da Chai,  
 A. E. DePrince, III,  R. A. DiStasio Jr.,  A. Dreuw,  B. D. Dunietz,  
 T. R. Furlani,  Chao-Ping Hsu,  Yousung Jung,  Jing Kong,  D. S. Lambrecht,  
 WanZhen Liang,  C. Ochsenfeld,  V. A. Rassolov,  L. V. Slipchenko,  
 J. E. Subotnik,  T. Van Voorhis,  J. M. Herbert,  A. I. Krylov,  
 P. M. W. Gill,  M. Head-Gordon

 Contributors to earlier versions of Q-Chem not listed above: 
 R. D. Adamson,  B. Austin,  J. Baker,  G. J. O. Beran,  K. Brandhorst,  
 S. T. Brown,  E. F. C. Byrd,  A. K. Chakraborty,  C.-L. Cheng,  
 Siu Hung Chien,  D. M. Chipman,  D. L. Crittenden,  H. Dachsel,  
 R. J. Doerksen,  A. D. Dutoi,  L. Fusti-Molnar,  W. A. Goddard III,  
 A. Golubeva-Zadorozhnaya,  S. R. Gwaltney,  G. Hawkins,  A. Heyden,  
 S. Hirata,  G. Kedziora,  F. J. Keil,  C. Kelley,  Jihan Kim,  R. A. King,  
 R. Z. Khaliullin,  P. P. Korambath,  W. Kurlancheek,  A. M. Lee,  M. S. Lee,  
 S. V. Levchenko,  Ching Yeh Lin,  D. Liotard,  R. C. Lochan,  I. Lotan,  
 P. E. Maslen,  N. Nair,  D. P. O'Neill,  D. Neuhauser,  E. Neuscamman,  
 C. M. Oana,  R. Olson,  B. Peters,  R. Peverati,  P. A. Pieniazek,  
 Y. M. Rhee,  J. Ritchie,  M. A. Rohrdanz,  E. Rosta,  N. J. Russ,  
 H. F. Schaefer III,  N. E. Schultz,  N. Shenvi,  A. C. Simmonett,  A. Sodt,  
 D. Stuck,  K. S. Thanthiriwatte,  V. Vanovschi,  Tao Wang,  A. Warshel,  
 C. F. Williams,  Q. Wu,  X. Xu,  W. Zhang

 Please cite Q-Chem as follows:
 Y. Shao et al., Mol. Phys. 113, 184-215 (2015)
 DOI: 10.1080/00268976.2014.952696

 Q-Chem 5.2.0 for Intel X86 EM64T Linux

 Parts of Q-Chem use Armadillo 8.300.2 (Tropical Shenanigans).
 http://arma.sourceforge.net/

 Q-Chem begins on Sun Sep 26 08:08:02 2021  

Host: cori01
0

     Scratch files written to /tmp/qchem64846//Frg2//
 May1019 |scratch|qcdevops|jenkins|workspace|build_RNUM -1
Processing $rem in /global/common/cori/software/qchem/5.2/config/preferences:
	 MEM_TOTAL  96000 
NAlpha2: 32
NElect   32
Mult     1
Symmetry turned off for PCM/SM12/SMD calculation

Checking the input file for inconsistencies... 	...done.

--------------------------------------------------------------
User input:
--------------------------------------------------------------
$molecule
-1 1
 6	1.4147590566	2.9600717725	-2.6361329377
 6	1.0157590566	1.5670717725	-2.2311329377
 8	0.3507590566	1.4220717725	-1.1791329377
 8	1.2727590566	0.6070717725	-2.9921329377
 1	1.7617590566	2.9790717725	-3.6691329377
 1	2.2557590566	3.2480717725	-2.0031329377
 1	0.5870590566	3.6673817725	-2.4791929377
$end
$rem
EDA2		1
METHOD		WB97X-V
BASIS		DEF2-TZVPD
XC_GRID		000099000590
NL_GRID		1
UNRESTRICTED		FALSE
MAX_SCF_CYCLES		200
SYMMETRY		FALSE
SYM_IGNORE		TRUE
BASIS_LIN_DEP_THRESH		6
THRESH		14
SCF_CONVERGENCE		8
SCF_PRINT_FRGM		TRUE
SOLVENT_METHOD		SMD
!required keywords
JOBTYPE		SP
SYM_IGNORE		TRUE
SUBSYSTEM		TRUE
GEN_SCFMAN		TRUE
CHILD_INSTRUCTION		2
SYM_IGNORE		TRUE
SCFMI		0
RI_K 0		
PARI_K 0		
MIN_PARI_K 0		
IARI_K 0		
OCC_RI_K 0		
PURECART		1111
MEM_STATIC		2000
MEM_TOTAL		96000
GUI		0
CHILD_MP		1
CHILD_MP_ORDERS		232
FRZ_RELAX		0
FRZ_RELAX_METHOD		0
EDA_CLS_ELEC		1
EDA_CLS_DISP		0
FRZ_ORTHO_DECOMP		1
EDA2		FALSE
FRGM_METHOD		FALSE
CIS_N_ROOTS  0
LOCAL_CIS    0
CIS_RLX_DNS  1
$end
$smx
SOLVENT			WATER
$end
--------------------------------------------------------------
 ----------------------------------------------------------------
             Standard Nuclear Orientation (Angstroms)
    I     Atom           X                Y                Z
 ----------------------------------------------------------------
    1      C       1.4147590566     2.9600717725    -2.6361329377
    2      C       1.0157590566     1.5670717725    -2.2311329377
    3      O       0.3507590566     1.4220717725    -1.1791329377
    4      O       1.2727590566     0.6070717725    -2.9921329377
    5      H       1.7617590566     2.9790717725    -3.6691329377
    6      H       2.2557590566     3.2480717725    -2.0031329377
    7      H       0.5870590566     3.6673817725    -2.4791929377
 ----------------------------------------------------------------
 Nuclear Repulsion Energy =         112.99926862 hartrees
 There are       16 alpha and       16 beta electrons
 Requested basis set is def2-TZVPD
 There are 69 shells and 181 basis functions

 Total QAlloc Memory Limit  96000 MB
 Mega-Array Size      1956 MB
 MEM_STATIC part      2000 MB
 
 Citation of the SMD model:
 Marenich, A.V.; Cramer, C.J.; Truhlar, D.G.
 J. Phys. Chem. B 2009, 113, 6378-6396.
 iSolventCode=           1
 Solvent: water                                                           
 
 vradii
            1           2           3           4           5           6
    1   1.8500000   1.8500000   1.5200000   1.5200000   1.2000000   1.2000000
            7
    1   1.2000000
 Changing PCM_VDW_RADII to SMD_RADIUS
 Discretize the solute cavity surface with Lebedev spheres
	Using 110 Lebedev grid points for each H atom
	Using 194 Lebedev grid points for other atoms
	Atomic van der Waals radii will be scaled by 1.20
 Remove points where switching function is < 1.0e-08
 Keep 647 surface tesserae and discard 459 interior tesserae
 Molecular Surface Area = 79.720 Angst**2

                       Distance Matrix (Angstroms)
             C (  1)   C (  2)   O (  3)   O (  4)   H (  5)   H (  6)
   C (  2)  1.504551
   O (  3)  2.370736  1.252978
   O (  4)  2.384011  1.251707  2.191182
   H (  5)  1.089889  2.148977  3.258108  2.514723
   H (  6)  1.091290  2.101272  2.764467  2.986518  1.758395
   H (  7)  1.100002  2.157920  2.605266  3.177859  1.808217  1.785221

 
 A cutoff of  1.0D-14 yielded   2391 shell pairs
 There are     16695 function pairs (     21491 Cartesian)
 Smallest overlap matrix eigenvalue = 1.54E-05

 Scale SEOQF with 1.000000e-01/1.000000e-01/1.000000e-01

 Standard Electronic Orientation quadrupole field applied
 Nucleus-field energy     =    -0.0000000091 hartrees
 Guess from superposition of atomic densities
 Warning:  Energy on first SCF cycle will be non-variational
 SAD guess density has 30.625312 electrons

 -----------------------------------------------------------------------
  General SCF calculation program by
  Eric Jon Sundstrom, Paul Horn, Yuezhi Mao, Dmitri Zuev, Alec White,
  David Stuck, Shaama M.S., Shane Yost, Joonho Lee, David Small,
  Daniel Levine, Susi Lehtola, Hugh Burton, Evgeny Epifanovsky
 -----------------------------------------------------------------------
 Exchange:     0.1670 Hartree-Fock + 1.0000 wB97X-V + LR-HF
 Correlation:  1.0000 wB97X-V
 Using Euler-Maclaurin-Lebedev (99,590) quadrature formula
 Nonlocal Correlation:  VV10 with C = 0.0100 and b = 6.00 and scale = 1.00000
 Grid used for NLC:  SG-1 standard quadrature
Energy prior to optimization (guess energy) = -227.756294371844
Begin Timing: Total SCF Calculation
begin iterations for algorithm: DIIS         
the SCF tolerance is set to 1.00e-08
    1    -227.7562943718      1.66e-02     00000 
    2    -225.5725996308      2.52e-02     00000 
    3    -228.6055411794      4.07e-03     00000 
    4    -228.6586546372      1.37e-03     00000 
    5    -228.6645590746      2.42e-04     00000 
    6    -228.6648076871      1.56e-04     00000 
    7    -228.6648700185      5.65e-05     00000 
    8    -228.6648811150      1.34e-05     00000 
    9    -228.6648822637      3.66e-06     00000 
   10    -228.6648823706      1.07e-06     00000 
   11    -228.6648823795      2.37e-07     00000 
   12    -228.6648823800      5.35e-08     00000 
   13    -228.6648823800      1.35e-08     00000 
   14    -228.6648823800      3.55e-09     00000 Convergence criterion met
Timing for Total SCF: 273.00s (wall), 533.82s (cpu)
(3)  G-ENP(liq) elect-nuc-pol free energy of system     -228.664882380 a.u.
(4)  G-CDS(liq) cavity-dispersion-solvent structure 
     free energy                                                3.8842 kcal/mol
(6)  G-S(liq) free energy of system                     -228.658692511 a.u.
E_pcm = -0.1318767980
E_cds = 0.0061898695
Multipole orders to be included
        2
        3
computing dipole RHS
computing quadrupole RHS
total number of RHS in solve_reponses: 8
RHS batch sizes
        8
Beginning Block Conjugate Gradient Iterations. Batch Number: 0
computing hessian-vector products by finite difference
              1      7.02e-01     00000 Conjugate Gradient Iteration
computing hessian-vector products by finite difference
              2      2.16e-01     00000 Conjugate Gradient Iteration
computing hessian-vector products by finite difference
              3      5.95e-02     00000 Conjugate Gradient Iteration
computing hessian-vector products by finite difference
              4      1.60e-02     00000 Conjugate Gradient Iteration
computing hessian-vector products by finite difference
              5      2.35e-03     00000 Conjugate Gradient Iteration
computing hessian-vector products by finite difference
              6      6.19e-04     00000 Conjugate Gradient Iteration
computing hessian-vector products by finite difference
              7      8.97e-05     00000 Conjugate Gradient Iteration
computing hessian-vector products by finite difference
              8      1.12e-05     00000 Conjugate Gradient Iteration
computing hessian-vector products by finite difference
              9      1.73e-06     00000 Conjugate Gradient Iteration
computing hessian-vector products by finite difference
             10      1.71e-07     00000 Conjugate Gradient Iteration
computing hessian-vector products by finite difference
             11      2.58e-08     00000 Conjugate Gradient Iteration
computing hessian-vector products by finite difference
             12      5.48e-09     00000 CG Converged
batch 0 complete
Done Calculating Responses
TESTING ORTHOGONALIZATION OF MULTIPOLE BASIS
Multipole virts passed orthogonality test
Virts Per Order
        48
        80
 
 --------------------------------------------------------------
 
                    Orbital Energies (a.u.)
 --------------------------------------------------------------
 
 Alpha MOs
 -- Occupied --
-19.1526 -19.1511 -10.3525 -10.2461  -1.1653  -1.0636  -0.8440  -0.6170
 -0.5490  -0.5459  -0.5432  -0.4831  -0.4614  -0.3645  -0.3588  -0.3431
 -- Virtual --
  0.0671   0.1000   0.1008   0.1070   0.1353   0.1454   0.1460   0.1495
  0.1554   0.1910   0.2039   0.2230   0.2355   0.2386   0.2590   0.2666
  0.3011   0.3154   0.3330   0.3470   0.3550   0.3617   0.3733   0.3819
  0.3851   0.4026   0.4166   0.4247   0.4318   0.4560   0.4669   0.4743
  0.4840   0.4885   0.5027   0.5117   0.5460   0.5609   0.5791   0.6002
  0.6153   0.6266   0.6330   0.6390   0.6585   0.6725   0.6838   0.6923
  0.7108   0.7220   0.7739   0.7944   0.8033   0.8094   0.8360   0.8500
  0.8596   0.9515   0.9749   0.9778   0.9912   1.0261   1.0453   1.0996
  1.1472   1.2107   1.2425   1.2655   1.2770   1.3014   1.3327   1.3406
  1.4342   1.5407   1.5838   1.7352   1.8049   1.8508   1.8582   1.8995
  1.9158   1.9409   1.9496   1.9583   2.0020   2.0964   2.1061   2.1686
  2.1923   2.2140   2.3099   2.3292   2.4052   2.4374   2.4570   2.4736
  2.5467   2.5680   2.6237   2.6424   2.7874   2.8058   2.8630   2.9093
  2.9309   2.9915   3.0432   3.1732   3.1900   3.2390   3.2611   3.2814
  3.3285   3.3441   3.3759   3.3959   3.4263   3.5245   3.5466   3.5731
  3.5945   3.6446   3.6775   3.7181   3.7560   3.8439   3.9661   4.0570
  4.0851   4.1913   4.3516   4.5372   4.6280   4.6639   4.7865   4.8195
  4.9764   5.2985   5.3237   5.3352   5.3408   5.4659   5.6791   5.7474
  5.7921   5.9981   6.2037   6.3182   6.3321   6.5821   6.5983   6.6931
  6.7116   6.7329   6.9261   6.9503   7.0129   7.2216   7.3112   7.3588
  7.3808  22.5960  23.7183  44.1962  44.3214
 --------------------------------------------------------------
 
          Ground-State Mulliken Net Atomic Charges

     Atom                 Charge (a.u.)
  ----------------------------------------
      1 C                    -0.573325
      2 C                     0.494628
      3 O                    -0.781309
      4 O                    -0.772177
      5 H                     0.214469
      6 H                     0.192336
      7 H                     0.225379
  ----------------------------------------
  Sum of atomic charges =    -1.000000

 -----------------------------------------------------------------
                    Cartesian Multipole Moments
 -----------------------------------------------------------------
    Charge (ESU x 10^10)
                -4.8032
    Dipole Moment (Debye)
         X      -3.1176      Y      -2.6815      Z       9.4204
       Tot      10.2788
    Quadrupole Moments (Debye-Ang)
        XX     -28.6011     XY       0.6406     YY     -26.1754
        XZ       9.8146     YZ       1.4493     ZZ     -51.0084
    Octopole Moments (Debye-Ang^2)
       XXX     -82.5207    XXY     -40.6462    XYY     -21.8689
       YYY    -127.4011    XXZ      70.8334    XYZ      -0.6156
       YYZ      50.9967    XZZ     -59.2090    YZZ     -45.2002
       ZZZ     253.8002
    Hexadecapole Moments (Debye-Ang^3)
      XXXX    -229.9296   XXXY    -138.9209   XXYY    -128.8649
      XYYY    -138.3859   YYYY    -602.4609   XXXZ     220.9657
      XXYZ      97.9043   XYYZ      57.3301   YYYZ     278.7067
      XXZZ    -233.8982   XYZZ     -51.8130   YYZZ    -229.9758
      XZZZ     309.9831   YZZZ     309.5144   ZZZZ   -1160.2786
 -----------------------------------------------------------------
Archival summary:
1\1\nid00561\SP\ProcedureUnspecified\BasisUnspecified\223(1-,1)\meili\SunSep2609:24:402021SunSep2609:24:402021\0\\#,ProcedureUnspecified,BasisUnspecified,\\-1,1\C\O,1,1.25171\O,1,1.25298,2,122.051\C,1,1.50455,2,119.471,3,-174.893,0\H,4,1.08989,1,110.837,2,9.18309,0\H,4,1.09129,1,107.012,2,-107.684,0\H,4,1.1,1,110.939,2,133.389,0\\\@

 Total job time:  4600.11s(wall), 8998.34s(cpu) 
 Sun Sep 26 09:24:42 2021

        *************************************************************
        *                                                           *
        *  Thank you very much for using Q-Chem.  Have a nice day.  *
        *                                                           *
        *************************************************************


Done Job For Fragment 1
calling putenv with: QCSCRATCH=/global/cscratch1/sd/meili 
calling putenv with: QCLOCALSCR=/tmp 
calling putenv with: QCTHREADS=32 
Doing General SCFMI
 Exchange:     0.1670 Hartree-Fock + 1.0000 wB97X-V + LR-HF
 Correlation:  1.0000 wB97X-V
 Using Euler-Maclaurin-Lebedev (99,590) quadrature formula
 Nonlocal Correlation:  VV10 with C = 0.0100 and b = 6.00 and scale = 1.00000
 Grid used for NLC:  SG-1 standard quadrature
performing fock build before subrot guess so that all methods have access
Printing subrot_rss_gen Method Specification:
Occupied Subspace Method is 0
Virtual Subspace Method is 0
Energy of the unrelaxed supersystem initial determinant -473.770268251055
performing fock build before subrot guess so that all methods have access
Printing subrot_rss_gen Method Specification:
Occupied Subspace Method is 0
Virtual Subspace Method is 0
Energy of the unrelaxed supersystem initial determinant w/ solvent -473.870306910940
write pseudocanon occs and virts to disk
write pseudocanon orbital energies to disk
Tolerance of ortho_decomp_scf: 1.00e-06
GDM subspace size: 20
Beginning the Orthogonal Decomposition of the Initial Supersystem Wavefunction
    1    -473.5710800495      8.75e-02     ortho_decomp Preconditoned Steepest Descent
    2    -473.5820158150      2.23e-03     ortho_decomp BFGS Step
    3    -473.5820573048      2.12e-04     ortho_decomp BFGS Step
    4    -473.5820574184      9.52e-06     ortho_decomp BFGS Step
    5    -473.5820574188      3.20e-07     ortho_decomp 00000 Convergence criterion met
 Hartree-Fock
 Hartree-Fock
 Hartree-Fock
Doing General SCFMI
 Exchange:     0.1670 Hartree-Fock + 1.0000 wB97X-V + LR-HF
 Correlation:  1.0000 wB97X-V
 Using Euler-Maclaurin-Lebedev (99,590) quadrature formula
 Nonlocal Correlation:  VV10 with C = 0.0100 and b = 6.00 and scale = 1.00000
 Grid used for NLC:  SG-1 standard quadrature
performing fock build at end of subrot_r(subrot) constructor so that all methods have access
<S^2> of initial wavefunction before polarization iterations 0.0000000000
Beginning iterations for the determination of the polarized wavefunction
Energy prior to optimization (guess energy) = -473.870306910940
Begin Timing: Total SCF Calculation
begin iterations for algorithm: DIIS         
the SCF tolerance is set to 1.00e-08
    1    -473.8703069109      1.85e-04     00000 
    2    -473.8720497807      8.02e-05     00000 
    3    -473.8722393595      5.47e-05     00000 
    4    -473.8723189771      1.64e-05     00000 
    5    -473.8723282550      7.11e-06     00000 
    6    -473.8723309529      2.95e-06     00000 
    7    -473.8723313813      1.18e-06     00000 
    8    -473.8723314486      3.58e-07     00000 
    9    -473.8723314537      1.65e-07     00000 
   10    -473.8723314544      3.77e-08     00000 
   11    -473.8723314545      1.83e-08     00000 
   12    -473.8723314545      7.13e-09     00000 Convergence criterion met
write pseudocanon occs and virts to disk
write pseudocanon orbital energies to disk
Timing for Total SCF: 2449.00s (wall), 4861.87s (cpu)
<S^2> of polarized wavefunction after polarization iterations 0.0000000000
relaxing scfmi constraint to allow all rotations in the entire AO span
Doing General SCFMI
 Exchange:     0.1670 Hartree-Fock + 1.0000 wB97X-V + LR-HF
 Correlation:  1.0000 wB97X-V
 Using Euler-Maclaurin-Lebedev (99,590) quadrature formula
 Nonlocal Correlation:  VV10 with C = 0.0100 and b = 6.00 and scale = 1.00000
 Grid used for NLC:  SG-1 standard quadrature
performing fock build at end of subrot_r(subrot) constructor so that all methods have access
<S^2> of polarized wavefunction before ct-allowed iterations 0.0000000000
Beginning iterations for the determination of the CT-Allowed wavefunction
Energy prior to optimization (guess energy) = -473.872331454468
Begin Timing: Total SCF Calculation
begin iterations for algorithm: DIIS         
the SCF tolerance is set to 1.00e-08
    1    -473.8723314545      2.16e-04     00000 
    2    -473.8776764443      3.62e-05     00000 
    3    -473.8779018590      1.88e-05     00000 
    4    -473.8779249851      7.99e-06     00000 
    5    -473.8779308144      2.02e-06     00000 
    6    -473.8779311811      6.65e-07     00000 
    7    -473.8779312450      2.78e-07     00000 
    8    -473.8779312537      5.85e-08     00000 
    9    -473.8779312545      2.80e-08     00000 
   10    -473.8779312547      9.39e-09     00000 Convergence criterion met
write pseudocanon occs and virts to disk
write pseudocanon orbital energies to disk
Timing for Total SCF: 2034.00s (wall), 4039.89s (cpu)
<S^2> of ct_allowed wavefunction after ct-allowed iterations 0.0000000000

================================
        Results of EDA2         
================================
Basic EDA Quantities
--------------------
Fragment Energies (Ha):
1 -245.2007555804
2 -228.6586925105
--------------------
  E_prp (kJ/mol) = 0.0000
  E_sol (kJ/mol) = 365.0055
  E_frz (kJ/mol) = -369.2916
  E_pol (kJ/mol) = -5.3155
  E_vct (kJ/mol) = -14.7024
  E_int (kJ/mol) = -24.3040
--------------------


Initial Wavefunction Decomposition
--------------------
  --------------------
  Orthogonal Fragment Subspace Decomposition:
  --------------------
     E_elec   (ELEC)   (kJ/mol) = -458.7447
     E_pauli  (PAULI)  (kJ/mol) = 103.2292
     E_disp   (DISP)   (kJ/mol) = -13.7761
     --------------------
     Terms summing to E_pauli:
     --------------------
        E_kep_pauli       (kJ/mol) = 124.8618
        E_disp_free_pauli (kJ/mol) = -21.6326
  --------------------
  Classical Frozen Decomposition:
  --------------------
     E_cls_elec  (CLS ELEC)  (kJ/mol) = -420.0317
     E_cls_pauli (CLS PAULI) (kJ/mol) = 50.7401
    [E_mod_pauli (MOD PAULI) (kJ/mol) = 64.5162 (CLS PAULI - DISP from orthogonal decomposition) ]
  --------------------
--------------------

Simplified EDA Summary (kJ/mol)
--------------------
 PREPARATION     0.0000
 SOLVATION       365.0055
 FROZEN          -355.5155      (does not include dispersion)
[PAULI           103.2292]     (if this is negligible, then frozen describes electrostatics)
 DISPERSION      -13.7761
 POLARIZATION    -5.3155
 CHARGE TRANSFER -14.7024
 TOTAL           -24.3040     (PRP + SOL + FRZ + DISP + POL + CT)
--------------------
 
 --------------------------------------------------------------
 
                    Orbital Energies (a.u.)
 --------------------------------------------------------------
 
 Alpha MOs
 -- Occupied --
-19.1596 -19.1571 -14.4492 -14.4423 -14.4270 -10.4121 -10.3588 -10.3038
-10.2488  -1.1725  -1.1669  -1.0709  -1.0485  -1.0320  -0.8489  -0.8458
 -0.7595  -0.7151  -0.6813  -0.6280  -0.6083  -0.5987  -0.5896  -0.5672
 -0.5532  -0.5508  -0.5407  -0.5234  -0.5038  -0.4860  -0.4654  -0.3918
 -0.3725  -0.3685  -0.3634  -0.3495
 -- Virtual --
  0.0571   0.0727   0.0907   0.0938   0.0954   0.1060   0.1168   0.1224
  0.1268   0.1348   0.1411   0.1442   0.1525   0.1541   0.1590   0.1705
  0.1776   0.1855   0.1947   0.2013   0.2063   0.2090   0.2219   0.2283
  0.2311   0.2343   0.2430   0.2461   0.2517   0.2563   0.2662   0.2686
  0.2772   0.2800   0.2852   0.2920   0.3040   0.3061   0.3146   0.3173
  0.3229   0.3266   0.3309   0.3372   0.3396   0.3463   0.3490   0.3529
  0.3617   0.3625   0.3669   0.3689   0.3773   0.3801   0.3832   0.3913
  0.3936   0.4036   0.4094   0.4132   0.4173   0.4238   0.4264   0.4298
  0.4365   0.4461   0.4503   0.4570   0.4652   0.4721   0.4753   0.4774
  0.4876   0.4884   0.4928   0.4965   0.4976   0.5056   0.5088   0.5122
  0.5189   0.5235   0.5285   0.5321   0.5399   0.5560   0.5593   0.5619
  0.5636   0.5773   0.5788   0.5819   0.5955   0.6012   0.6072   0.6114
  0.6129   0.6239   0.6380   0.6432   0.6491   0.6594   0.6649   0.6719
  0.6792   0.6842   0.6891   0.6941   0.6963   0.7135   0.7192   0.7345
  0.7382   0.7429   0.7536   0.7594   0.7608   0.7746   0.7820   0.7905
  0.7972   0.8100   0.8143   0.8194   0.8234   0.8324   0.8397   0.8465
  0.8513   0.8611   0.8662   0.8765   0.8852   0.8940   0.9056   0.9090
  0.9237   0.9279   0.9444   0.9688   0.9819   0.9901   0.9974   1.0079
  1.0271   1.0426   1.0472   1.0591   1.0710   1.0808   1.0934   1.1144
  1.1210   1.1355   1.1409   1.1492   1.1531   1.1686   1.1820   1.1884
  1.1970   1.2248   1.2361   1.2451   1.2621   1.2845   1.2929   1.2955
  1.3194   1.3391   1.3507   1.3644   1.3926   1.4032   1.4260   1.4482
  1.4591   1.4817   1.4837   1.5165   1.5280   1.5775   1.6102   1.6169
  1.6636   1.6685   1.7037   1.7218   1.7582   1.7601   1.8230   1.8321
  1.8532   1.8685   1.8737   1.8823   1.8918   1.8949   1.9178   1.9226
  1.9346   1.9450   1.9650   1.9687   1.9748   1.9798   2.0020   2.0046
  2.0235   2.0382   2.0482   2.0747   2.0956   2.1155   2.1277   2.1414
  2.1562   2.1825   2.2122   2.2251   2.2395   2.2412   2.2733   2.2888
  2.2935   2.3126   2.3375   2.3408   2.3715   2.3947   2.4095   2.4248
  2.4635   2.4650   2.4837   2.4980   2.5210   2.5328   2.5528   2.5726
  2.5754   2.5867   2.5921   2.6271   2.6384   2.6563   2.6664   2.6751
  2.6969   2.7162   2.7252   2.7646   2.8040   2.8118   2.8330   2.8431
  2.8684   2.8800   2.9024   2.9162   2.9398   2.9513   2.9609   2.9792
  2.9964   3.0228   3.0779   3.0859   3.1564   3.1681   3.1723   3.1943
  3.2162   3.2188   3.2318   3.2555   3.2571   3.2618   3.2845   3.3038
  3.3091   3.3130   3.3340   3.3444   3.3586   3.3721   3.3858   3.4020
  3.4071   3.4175   3.4302   3.4503   3.4726   3.4914   3.5035   3.5472
  3.5644   3.5868   3.6011   3.6151   3.6277   3.6459   3.6751   3.7017
  3.7124   3.7225   3.7253   3.7640   3.7750   3.8364   3.8705   3.9111
  3.9327   3.9821   4.0106   4.0754   4.0932   4.0955   4.1650   4.2007
  4.2361   4.2489   4.3253   4.3369   4.3434   4.3547   4.3685   4.4046
  4.4871   4.5429   4.5835   4.6433   4.6539   4.6693   4.6742   4.8274
  4.8507   4.8555   4.8913   4.9039   4.9694   5.0048   5.0335   5.0535
  5.0739   5.1280   5.1391   5.1697   5.1731   5.2182   5.2670   5.2950
  5.3158   5.3301   5.3356   5.3606   5.4014   5.4345   5.4522   5.4593
  5.4663   5.4992   5.5173   5.5191   5.6057   5.6721   5.6988   5.7260
  5.7474   5.7921   5.8146   5.8381   5.9404   6.0123   6.1726   6.2134
  6.2263   6.3277   6.3646   6.4151   6.5321   6.6102   6.6222   6.7120
  6.7316   6.7629   6.9593   6.9715   7.0165   7.2429   7.3246   7.3923
  7.4547  22.6064  22.6464  23.7287  23.7422  32.3952  32.5531  32.9095
 44.2602  44.3947
 --------------------------------------------------------------
 
          Ground-State Mulliken Net Atomic Charges

     Atom                 Charge (a.u.)
  ----------------------------------------
      1 C                    -0.796508
      2 C                     0.515587
      3 N                    -0.147337
      4 N                    -0.125407
      5 N                    -0.246470
      6 H                     0.228286
      7 H                     0.185487
      8 H                     0.287478
      9 H                     0.188509
     10 H                     0.203025
     11 H                     0.293494
     12 H                     0.281892
     13 H                     0.243687
     14 C                    -0.716712
     15 C                     0.543789
     16 O                    -0.847321
     17 O                    -0.776414
     18 H                     0.234062
     19 H                     0.210280
     20 H                     0.240594
  ----------------------------------------
  Sum of atomic charges =     0.000000

 -----------------------------------------------------------------
                    Cartesian Multipole Moments
 -----------------------------------------------------------------
    Charge (ESU x 10^10)
                 0.0000
    Dipole Moment (Debye)
         X      -6.1706      Y      -7.4063      Z      15.8778
       Tot      18.5751
    Quadrupole Moments (Debye-Ang)
        XX     -53.5391     XY      11.6380     YY     -40.0527
        XZ       6.9370     YZ      -9.1231     ZZ     -56.3335
    Octopole Moments (Debye-Ang^2)
       XXX     -15.4557    XXY     -14.5328    XYY     -21.9223
       YYY     -44.6906    XXZ      18.6119    XYZ      13.4241
       YYZ      23.2153    XZZ     -44.2200    YZZ     -37.7395
       ZZZ     158.7923
    Hexadecapole Moments (Debye-Ang^3)
      XXXX    -422.1058   XXXY    -251.1798   XXYY    -207.8310
      XYYY    -201.3652   YYYY    -992.7493   XXXZ     354.8010
      XXYZ     172.8921   XYYZ      64.1194   YYYZ     468.7031
      XXZZ    -394.7497   XYZZ     -53.3438   YYZZ    -373.1778
      XZZZ     414.9690   YZZZ     469.7487   ZZZZ   -1782.9623
 -----------------------------------------------------------------
Archival summary:
1\1\nid00561\SP\ProcedureUnspecified\BasisUnspecified\23411\meili\SunSep2611:33:582021SunSep2611:33:582021\0\\#,ProcedureUnspecified,BasisUnspecified,\\0,1\O\C,1,1.25298\O,2,1.25171,1,122.051\C,2,1.50455,1,118.288,3,174.951,0\H,4,1.08989,2,110.837,1,-165.902,0\H,4,1.09129,2,107.012,1,77.2312,0\H,4,1.1,2,110.939,1,-41.6959,0\H,1,1.80184,2,136.528,3,3.48037,0\N,8,1.02786,1,174.782,2,-47.0657,0\H,9,1.01211,8,118.747,1,-2.48949,0\C,9,1.30792,8,120.615,1,177.852,0\N,11,1.31288,9,118.862,8,0.304121,0\H,12,1.00751,11,120.584,9,179.123,0\H,12,1.01047,11,119.879,9,0.977095,0\N,11,1.32649,9,118.7,8,-178.275,0\H,15,1.01769,11,115.569,9,2.50849,0\C,15,1.47258,11,126.325,9,177.779,0\H,17,1.09193,15,111.12,11,-26.21,0\H,17,1.09251,15,108.782,11,-143.811,0\H,17,1.1,15,111.512,11,96.3707,0\\\@

 Total job time:  25331.15s(wall), 15426.51s(cpu) 
 Sun Sep 26 11:34:00 2021

        *************************************************************
        *                                                           *
        *  Thank you very much for using Q-Chem.  Have a nice day.  *
        *                                                           *
        *************************************************************


