
Running Job 1 of 1 SSI-084TYR-089ASP-1_SMD_TZVPD.in
qchem SSI-084TYR-089ASP-1_SMD_TZVPD.in_25114.0 /tmp/qchem25114/ 0
/global/common/cori/software/qchem/5.2/exe/qcprog.exe_s SSI-084TYR-089ASP-1_SMD_TZVPD.in_25114.0 /tmp/qchem25114/
                  Welcome to Q-Chem
     A Quantum Leap Into The Future Of Chemistry


 Q-Chem 5.2, Q-Chem, Inc., Pleasanton, CA (2019)

 License issued to: National Energy Research Scientific Computing Center

 Yihan Shao,  Zhengting Gan,  E. Epifanovsky,  A. T. B. Gilbert,  M. Wormit,  
 J. Kussmann,  A. W. Lange,  A. Behn,  Jia Deng,  Xintian Feng,  D. Ghosh,  
 M. Goldey,  P. R. Horn,  L. D. Jacobson,  I. Kaliman,  T. Kus,  A. Landau,  
 Jie Liu,  E. I. Proynov,  R. M. Richard,  R. P. Steele,  E. J. Sundstrom,  
 H. L. Woodcock III,  P. M. Zimmerman,  D. Zuev,  B. Albrecht,  E. Alguire,  
 S. A. Baeppler,  D. Barton,  Z. Benda,  Y. A. Bernard,  E. J. Berquist,  
 K. B. Bravaya,  H. Burton,  D. Casanova,  Chun-Min Chang,  Yunqing Chen,  
 A. Chien,  K. D. Closser,  M. P. Coons,  S. Coriani,  S. Dasgupta,  
 A. L. Dempwolff,  M. Diedenhofen,  Hainam Do,  R. G. Edgar,  Po-Tung Fang,  
 S. Faraji,  S. Fatehi,  Qingguo Feng,  K. D. Fenk,  J. Fosso-Tande,  
 J. Gayvert,  Qinghui Ge,  A. Ghysels,  G. Gidofalvi,  J. Gomes,  
 J. Gonthier,  A. Gunina,  D. Hait,  M. W. D. Hanson-Heine,  
 P. H. P. Harbach,  A. W. Hauser,  M. F. Herbst,  J. E. Herr,  
 E. G. Hohenstein,  Z. C. Holden,  Kerwin Hui,  B. C. Huynh,  T.-C. Jagau,  
 Hyunjun Ji,  B. Kaduk,  K. Khistyaev,  Jaehoon Kim,  P. Klunzinger,  K. Koh,  
 D. Kosenkov,  L. Koulias,  T. Kowalczyk,  C. M. Krauter,  A. Kunitsa,  
 Ka Un Lao,  A. Laurent,  K. V. Lawler,  Joonho Lee,  D. Lefrancois,  
 S. Lehtola,  D. S. Levine,  Yi-Pei Li,  You-Sheng Lin,  Fenglai Liu,  
 E. Livshits,  A. Luenser,  P. Manohar,  E. Mansoor,  S. F. Manzer,  
 Shan-Ping Mao,  Yuezhi Mao,  N. Mardirossian,  A. V. Marenich,  
 T. Markovich,  L. A. Martinez-Martinez,  S. A. Maurer,  N. J. Mayhall,  
 S. C. McKenzie,  J.-M. Mewes,  P. Morgante,  A. F. Morrison,  
 J. W. Mullinax,  K. Nanda,  T. S. Nguyen-Beck,  R. Olivares-Amaya,  
 J. A. Parkhill,  Zheng Pei,  T. M. Perrine,  F. Plasser,  P. Pokhilko,  
 S. Prager,  A. Prociuk,  E. Ramos,  D. R. Rehn,  F. Rob,  M. Scheurer,  
 M. Schneider,  N. Sergueev,  S. M. Sharada,  S. Sharma,  D. W. Small,  
 T. Stauch,  T. Stein,  Yu-Chuan Su,  A. J. W. Thom,  A. Tkatchenko,  
 T. Tsuchimochi,  N. M. Tubman,  L. Vogt,  M. L. Vidal,  O. Vydrov,  
 M. A. Watson,  J. Wenzel,  M. de Wergifosse,  T. A. Wesolowski,  A. White,  
 J. Witte,  A. Yamada,  Jun Yang,  K. Yao,  S. Yeganeh,  S. R. Yost,  
 Zhi-Qiang You,  A. Zech,  Igor Ying Zhang,  Xing Zhang,  Yan Zhao,  
 Ying Zhu,  B. R. Brooks,  G. K. L. Chan,  C. J. Cramer,  M. S. Gordon,  
 W. J. Hehre,  A. Klamt,  M. W. Schmidt,  C. D. Sherrill,  D. G. Truhlar,  
 A. Aspuru-Guzik,  R. Baer,  A. T. Bell,  N. A. Besley,  Jeng-Da Chai,  
 A. E. DePrince, III,  R. A. DiStasio Jr.,  A. Dreuw,  B. D. Dunietz,  
 T. R. Furlani,  Chao-Ping Hsu,  Yousung Jung,  Jing Kong,  D. S. Lambrecht,  
 WanZhen Liang,  C. Ochsenfeld,  V. A. Rassolov,  L. V. Slipchenko,  
 J. E. Subotnik,  T. Van Voorhis,  J. M. Herbert,  A. I. Krylov,  
 P. M. W. Gill,  M. Head-Gordon

 Contributors to earlier versions of Q-Chem not listed above: 
 R. D. Adamson,  B. Austin,  J. Baker,  G. J. O. Beran,  K. Brandhorst,  
 S. T. Brown,  E. F. C. Byrd,  A. K. Chakraborty,  C.-L. Cheng,  
 Siu Hung Chien,  D. M. Chipman,  D. L. Crittenden,  H. Dachsel,  
 R. J. Doerksen,  A. D. Dutoi,  L. Fusti-Molnar,  W. A. Goddard III,  
 A. Golubeva-Zadorozhnaya,  S. R. Gwaltney,  G. Hawkins,  A. Heyden,  
 S. Hirata,  G. Kedziora,  F. J. Keil,  C. Kelley,  Jihan Kim,  R. A. King,  
 R. Z. Khaliullin,  P. P. Korambath,  W. Kurlancheek,  A. M. Lee,  M. S. Lee,  
 S. V. Levchenko,  Ching Yeh Lin,  D. Liotard,  R. C. Lochan,  I. Lotan,  
 P. E. Maslen,  N. Nair,  D. P. O'Neill,  D. Neuhauser,  E. Neuscamman,  
 C. M. Oana,  R. Olson,  B. Peters,  R. Peverati,  P. A. Pieniazek,  
 Y. M. Rhee,  J. Ritchie,  M. A. Rohrdanz,  E. Rosta,  N. J. Russ,  
 H. F. Schaefer III,  N. E. Schultz,  N. Shenvi,  A. C. Simmonett,  A. Sodt,  
 D. Stuck,  K. S. Thanthiriwatte,  V. Vanovschi,  Tao Wang,  A. Warshel,  
 C. F. Williams,  Q. Wu,  X. Xu,  W. Zhang

 Please cite Q-Chem as follows:
 Y. Shao et al., Mol. Phys. 113, 184-215 (2015)
 DOI: 10.1080/00268976.2014.952696

 Q-Chem 5.2.0 for Intel X86 EM64T Linux

 Parts of Q-Chem use Armadillo 8.300.2 (Tropical Shenanigans).
 http://arma.sourceforge.net/

 Q-Chem begins on Sun Sep 26 12:04:30 2021  

Host: cori01
0

     Scratch files written to /tmp/qchem25114//
 May1019 |scratch|qcdevops|jenkins|workspace|build_RNUM -1
Processing $rem in /global/common/cori/software/qchem/5.2/config/preferences:
	 MEM_TOTAL  96000 
NAlpha2: 98
NElect   98
Mult     1
Symmetry turned off for PCM/SM12/SMD calculation

 Q-Chem warning in module libgen/rem_setup.C, line 2803:

 Neither GIA nor STOLL is specified by user. Use STOLL as the default


Checking the input file for inconsistencies... 	...done.

--------------------------------------------------------------
User input:
--------------------------------------------------------------
$comment
SSI-084TYR-089ASP-1.pdb
$end

$molecule
-1 1
--
0 1
C    0.896031151041   -4.197474002015   -0.877929438376
C    0.973031151041   -0.376474002015   -0.798929438376
C    2.074031151041   -0.147474002015   -0.018929438376
C    0.589031151041   -1.676474002015   -1.052929438376
C    1.321031151041   -2.758474002015   -0.550929438376
C    2.809031151041   -1.181474002015    0.482070561624
C    2.439031151041   -2.490474002015    0.223070561624
O    2.508031151041    1.102525997985    0.249070561624
H    0.435031151041    0.452525997985   -1.226929438376
H   -0.280968848959   -1.868474002015   -1.661929438376
H    3.687031151041   -0.986474002015    1.079070561624
H    3.287031151041    1.110525997985    0.809070561624
H    1.674031151041   -4.900474002015   -0.580929438376
H    0.771031151041   -4.256474002015   -1.957929438376
H    3.030031151041   -3.302474002015    0.609070561624
H   -0.055620848959   -4.460743002015   -0.393112438376
--
-1 1
C   -2.442968848959    1.167525997985   -0.079929438376
C   -3.085968848959    1.566525997985   -1.407929438376
C   -2.397968848959    2.303525997985    0.921070561624
O   -2.031968848959    2.071525997985    2.062070561624
O   -2.748968848959    3.433525997985    0.588070561624
H   -3.058968848959    0.380525997985    0.362070561624
H   -1.454968848959    0.738525997985   -0.220929438376
H   -3.950968848959    2.203525997985   -1.216929438376
H   -3.433418848959    0.665995997985   -1.935490438376
H   -2.372578848959    2.119435997985   -2.036705438376
$end

$rem
JOBTYPE			EDA
EDA2			1
method			wB97X-V
BASIS			def2-TZVPD
XC_GRID			000099000590
NL_GRID			1
UNRESTRICTED		FALSE
MAX_SCF_CYCLES		200
SYMMETRY		FALSE
SYM_IGNORE		TRUE
MEM_STATIC		2000
BASIS_LIN_DEP_THRESH 	6
THRESH 			14
SCF_CONVERGENCE 	8
SCF_PRINT_FRGM 		TRUE
SOLVENT_METHOD          SMD
$end

$SMX
SOLVENT			WATER
$END
--------------------------------------------------------------
 ----------------------------------------------------------------
             Standard Nuclear Orientation (Angstroms)
    I     Atom           X                Y                Z
 ----------------------------------------------------------------
    1      C       0.8960311510    -4.1974740020    -0.8779294384
    2      C       0.9730311510    -0.3764740020    -0.7989294384
    3      C       2.0740311510    -0.1474740020    -0.0189294384
    4      C       0.5890311510    -1.6764740020    -1.0529294384
    5      C       1.3210311510    -2.7584740020    -0.5509294384
    6      C       2.8090311510    -1.1814740020     0.4820705616
    7      C       2.4390311510    -2.4904740020     0.2230705616
    8      O       2.5080311510     1.1025259980     0.2490705616
    9      H       0.4350311510     0.4525259980    -1.2269294384
   10      H      -0.2809688490    -1.8684740020    -1.6619294384
   11      H       3.6870311510    -0.9864740020     1.0790705616
   12      H       3.2870311510     1.1105259980     0.8090705616
   13      H       1.6740311510    -4.9004740020    -0.5809294384
   14      H       0.7710311510    -4.2564740020    -1.9579294384
   15      H       3.0300311510    -3.3024740020     0.6090705616
   16      H      -0.0556208490    -4.4607430020    -0.3931124384
   17      C      -2.4429688490     1.1675259980    -0.0799294384
   18      C      -3.0859688490     1.5665259980    -1.4079294384
   19      C      -2.3979688490     2.3035259980     0.9210705616
   20      O      -2.0319688490     2.0715259980     2.0620705616
   21      O      -2.7489688490     3.4335259980     0.5880705616
   22      H      -3.0589688490     0.3805259980     0.3620705616
   23      H      -1.4549688490     0.7385259980    -0.2209294384
   24      H      -3.9509688490     2.2035259980    -1.2169294384
   25      H      -3.4334188490     0.6659959980    -1.9354904384
   26      H      -2.3725788490     2.1194359980    -2.0367054384
 ----------------------------------------------------------------
 Nuclear Repulsion Energy =         722.46881487 hartrees
 There are       49 alpha and       49 beta electrons
 Requested basis set is def2-TZVPD
 There are 237 shells and 607 basis functions

 Total QAlloc Memory Limit  96000 MB
 Mega-Array Size      1956 MB
 MEM_STATIC part      2000 MB
 
 Citation of the SMD model:
 Marenich, A.V.; Cramer, C.J.; Truhlar, D.G.
 J. Phys. Chem. B 2009, 113, 6378-6396.
 iSolventCode=           1
 Solvent: water                                                           
 
 vradii
            1           2           3           4           5           6
    1   1.8500000   1.8500000   1.8500000   1.8500000   1.8500000   1.8500000
            7           8           9          10          11          12
    1   1.8500000   1.5200000   1.2000000   1.2000000   1.2000000   1.2000000
           13          14          15          16          17          18
    1   1.2000000   1.2000000   1.2000000   1.2000000   1.8500000   1.8500000
           19          20          21          22          23          24
    1   1.8500000   1.5200000   1.5200000   1.2000000   1.2000000   1.2000000
           25          26
    1   1.2000000   1.2000000
 Changing PCM_VDW_RADII to SMD_RADIUS
 Discretize the solute cavity surface with Lebedev spheres
	Using 110 Lebedev grid points for each H atom
	Using 194 Lebedev grid points for other atoms
	Atomic van der Waals radii will be scaled by 1.20
 Remove points where switching function is < 1.0e-08
 Keep 2013 surface tesserae and discard 1939 interior tesserae
 Molecular Surface Area = 236.289 Angst**2
 A cutoff of  1.0D-14 yielded  23582 shell pairs
 There are    153916 function pairs (    193965 Cartesian)
 Smallest overlap matrix eigenvalue = 4.13E-07
 Linear dependence detected in AO basis
 Tighter screening thresholds may be required for diffuse basis sets
 Use S2THRESH > 14 and THRESH = 14 in case of SCF convergence issues
 Number of orthogonalized atomic orbitals = 605
 Maximum deviation from orthogonality = 1.769E-10

 Scale SEOQF with 1.000000e-01/1.000000e-01/1.000000e-01

 Standard Electronic Orientation quadrupole field applied
 Nucleus-field energy     =     0.0000000428 hartrees

 -----------------------------------------------------------------------
  General SCF calculation program by
  Eric Jon Sundstrom, Paul Horn, Yuezhi Mao, Dmitri Zuev, Alec White,
  David Stuck, Shaama M.S., Shane Yost, Joonho Lee, David Small,
  Daniel Levine, Susi Lehtola, Hugh Burton, Evgeny Epifanovsky
 -----------------------------------------------------------------------
================================================================
                 ALMO-EDA with the EDA2 driver                  
================================================================
 The second-generation ALMO-EDA (for DFT):                      
 P. R. Horn, Y. Mao and M. Head-Gordon, PCCP, 18, 23067 (2016)  
 Decomposition of the frozen energy:                            
 P. R. Horn, Y. Mao and M. Head-Gordon, JCP, 144, 114107 (2016) 
 FERF model for polarization:                                   
 P. R. Horn and M. Head-Gordon, JCP, 143, 114111 (2015)         
Using eda2 option set 1
Option set summary: Frozen orbital wavefunction, initial wavefunction decomposition, and nDQ polarization.
--------------------------------
Printing EDA Options
--------------------------------
eda_child_super_basis      0
fragmo_guess_mode          0
child_mp                   1
child_mp_orders            232
cls_elec                   1
cls_disp                   0
scfmi_mode                 1
scfmi_occs                 0
scfmi_virts                0
frz_relax                  0
frz_relax_method           0
dc_pen_start               0
dc_pen_conv                0
dc_pen_increment           0
dc_pen_steps               0
dc_pen_thresh_factor       0
dc_pen_pre_newton_thresh   0
frz_ortho_decomp           1
frz_ortho_decomp_conv      6
frgm_method                2
scfmi_freeze_ss            0
separate_rehyb             0
plot_diff_den              0
eda_nocv                   0
eda_vct_relax              1
disp_free_x                0
disp_free_c                0
eda_bsse                   0
eda_pct_a                  0
eda_covp                   0
--------------------------------
Attempting to make child job directory: /tmp/qchem25114//Frg1/
Attempting to make child job directory: /tmp/qchem25114//Frg2/
Creating input file /tmp/qchem25114/Frg1.input
using default PutDataFrgm: nothing
calling putenv with: QCSCRATCH=/tmp/qchem25114/ 
calling putenv with: QCLOCALSCR=/tmp/qchem25114/ 
Spawning Job For Fragment 0
                  Welcome to Q-Chem
     A Quantum Leap Into The Future Of Chemistry


 Q-Chem 5.2, Q-Chem, Inc., Pleasanton, CA (2019)

 License issued to: National Energy Research Scientific Computing Center

 Yihan Shao,  Zhengting Gan,  E. Epifanovsky,  A. T. B. Gilbert,  M. Wormit,  
 J. Kussmann,  A. W. Lange,  A. Behn,  Jia Deng,  Xintian Feng,  D. Ghosh,  
 M. Goldey,  P. R. Horn,  L. D. Jacobson,  I. Kaliman,  T. Kus,  A. Landau,  
 Jie Liu,  E. I. Proynov,  R. M. Richard,  R. P. Steele,  E. J. Sundstrom,  
 H. L. Woodcock III,  P. M. Zimmerman,  D. Zuev,  B. Albrecht,  E. Alguire,  
 S. A. Baeppler,  D. Barton,  Z. Benda,  Y. A. Bernard,  E. J. Berquist,  
 K. B. Bravaya,  H. Burton,  D. Casanova,  Chun-Min Chang,  Yunqing Chen,  
 A. Chien,  K. D. Closser,  M. P. Coons,  S. Coriani,  S. Dasgupta,  
 A. L. Dempwolff,  M. Diedenhofen,  Hainam Do,  R. G. Edgar,  Po-Tung Fang,  
 S. Faraji,  S. Fatehi,  Qingguo Feng,  K. D. Fenk,  J. Fosso-Tande,  
 J. Gayvert,  Qinghui Ge,  A. Ghysels,  G. Gidofalvi,  J. Gomes,  
 J. Gonthier,  A. Gunina,  D. Hait,  M. W. D. Hanson-Heine,  
 P. H. P. Harbach,  A. W. Hauser,  M. F. Herbst,  J. E. Herr,  
 E. G. Hohenstein,  Z. C. Holden,  Kerwin Hui,  B. C. Huynh,  T.-C. Jagau,  
 Hyunjun Ji,  B. Kaduk,  K. Khistyaev,  Jaehoon Kim,  P. Klunzinger,  K. Koh,  
 D. Kosenkov,  L. Koulias,  T. Kowalczyk,  C. M. Krauter,  A. Kunitsa,  
 Ka Un Lao,  A. Laurent,  K. V. Lawler,  Joonho Lee,  D. Lefrancois,  
 S. Lehtola,  D. S. Levine,  Yi-Pei Li,  You-Sheng Lin,  Fenglai Liu,  
 E. Livshits,  A. Luenser,  P. Manohar,  E. Mansoor,  S. F. Manzer,  
 Shan-Ping Mao,  Yuezhi Mao,  N. Mardirossian,  A. V. Marenich,  
 T. Markovich,  L. A. Martinez-Martinez,  S. A. Maurer,  N. J. Mayhall,  
 S. C. McKenzie,  J.-M. Mewes,  P. Morgante,  A. F. Morrison,  
 J. W. Mullinax,  K. Nanda,  T. S. Nguyen-Beck,  R. Olivares-Amaya,  
 J. A. Parkhill,  Zheng Pei,  T. M. Perrine,  F. Plasser,  P. Pokhilko,  
 S. Prager,  A. Prociuk,  E. Ramos,  D. R. Rehn,  F. Rob,  M. Scheurer,  
 M. Schneider,  N. Sergueev,  S. M. Sharada,  S. Sharma,  D. W. Small,  
 T. Stauch,  T. Stein,  Yu-Chuan Su,  A. J. W. Thom,  A. Tkatchenko,  
 T. Tsuchimochi,  N. M. Tubman,  L. Vogt,  M. L. Vidal,  O. Vydrov,  
 M. A. Watson,  J. Wenzel,  M. de Wergifosse,  T. A. Wesolowski,  A. White,  
 J. Witte,  A. Yamada,  Jun Yang,  K. Yao,  S. Yeganeh,  S. R. Yost,  
 Zhi-Qiang You,  A. Zech,  Igor Ying Zhang,  Xing Zhang,  Yan Zhao,  
 Ying Zhu,  B. R. Brooks,  G. K. L. Chan,  C. J. Cramer,  M. S. Gordon,  
 W. J. Hehre,  A. Klamt,  M. W. Schmidt,  C. D. Sherrill,  D. G. Truhlar,  
 A. Aspuru-Guzik,  R. Baer,  A. T. Bell,  N. A. Besley,  Jeng-Da Chai,  
 A. E. DePrince, III,  R. A. DiStasio Jr.,  A. Dreuw,  B. D. Dunietz,  
 T. R. Furlani,  Chao-Ping Hsu,  Yousung Jung,  Jing Kong,  D. S. Lambrecht,  
 WanZhen Liang,  C. Ochsenfeld,  V. A. Rassolov,  L. V. Slipchenko,  
 J. E. Subotnik,  T. Van Voorhis,  J. M. Herbert,  A. I. Krylov,  
 P. M. W. Gill,  M. Head-Gordon

 Contributors to earlier versions of Q-Chem not listed above: 
 R. D. Adamson,  B. Austin,  J. Baker,  G. J. O. Beran,  K. Brandhorst,  
 S. T. Brown,  E. F. C. Byrd,  A. K. Chakraborty,  C.-L. Cheng,  
 Siu Hung Chien,  D. M. Chipman,  D. L. Crittenden,  H. Dachsel,  
 R. J. Doerksen,  A. D. Dutoi,  L. Fusti-Molnar,  W. A. Goddard III,  
 A. Golubeva-Zadorozhnaya,  S. R. Gwaltney,  G. Hawkins,  A. Heyden,  
 S. Hirata,  G. Kedziora,  F. J. Keil,  C. Kelley,  Jihan Kim,  R. A. King,  
 R. Z. Khaliullin,  P. P. Korambath,  W. Kurlancheek,  A. M. Lee,  M. S. Lee,  
 S. V. Levchenko,  Ching Yeh Lin,  D. Liotard,  R. C. Lochan,  I. Lotan,  
 P. E. Maslen,  N. Nair,  D. P. O'Neill,  D. Neuhauser,  E. Neuscamman,  
 C. M. Oana,  R. Olson,  B. Peters,  R. Peverati,  P. A. Pieniazek,  
 Y. M. Rhee,  J. Ritchie,  M. A. Rohrdanz,  E. Rosta,  N. J. Russ,  
 H. F. Schaefer III,  N. E. Schultz,  N. Shenvi,  A. C. Simmonett,  A. Sodt,  
 D. Stuck,  K. S. Thanthiriwatte,  V. Vanovschi,  Tao Wang,  A. Warshel,  
 C. F. Williams,  Q. Wu,  X. Xu,  W. Zhang

 Please cite Q-Chem as follows:
 Y. Shao et al., Mol. Phys. 113, 184-215 (2015)
 DOI: 10.1080/00268976.2014.952696

 Q-Chem 5.2.0 for Intel X86 EM64T Linux

 Parts of Q-Chem use Armadillo 8.300.2 (Tropical Shenanigans).
 http://arma.sourceforge.net/

 Q-Chem begins on Sun Sep 26 12:04:36 2021  

Host: cori01
0

     Scratch files written to /tmp/qchem25114//Frg1//
 May1019 |scratch|qcdevops|jenkins|workspace|build_RNUM -1
Processing $rem in /global/common/cori/software/qchem/5.2/config/preferences:
	 MEM_TOTAL  96000 
NAlpha2: 58
NElect   58
Mult     1
Symmetry turned off for PCM/SM12/SMD calculation

Checking the input file for inconsistencies... 	...done.

--------------------------------------------------------------
User input:
--------------------------------------------------------------
$molecule
0 1
 6	0.8960311510	-4.1974740020	-0.8779294384
 6	0.9730311510	-0.3764740020	-0.7989294384
 6	2.0740311510	-0.1474740020	-0.0189294384
 6	0.5890311510	-1.6764740020	-1.0529294384
 6	1.3210311510	-2.7584740020	-0.5509294384
 6	2.8090311510	-1.1814740020	0.4820705616
 6	2.4390311510	-2.4904740020	0.2230705616
 8	2.5080311510	1.1025259980	0.2490705616
 1	0.4350311510	0.4525259980	-1.2269294384
 1	-0.2809688490	-1.8684740020	-1.6619294384
 1	3.6870311510	-0.9864740020	1.0790705616
 1	3.2870311510	1.1105259980	0.8090705616
 1	1.6740311510	-4.9004740020	-0.5809294384
 1	0.7710311510	-4.2564740020	-1.9579294384
 1	3.0300311510	-3.3024740020	0.6090705616
 1	-0.0556208490	-4.4607430020	-0.3931124384
$end
$rem
EDA2		1
METHOD		WB97X-V
BASIS		DEF2-TZVPD
XC_GRID		000099000590
NL_GRID		1
UNRESTRICTED		FALSE
MAX_SCF_CYCLES		200
SYMMETRY		FALSE
SYM_IGNORE		TRUE
BASIS_LIN_DEP_THRESH		6
THRESH		14
SCF_CONVERGENCE		8
SCF_PRINT_FRGM		TRUE
SOLVENT_METHOD		SMD
!required keywords
JOBTYPE		SP
SYM_IGNORE		TRUE
SUBSYSTEM		TRUE
GEN_SCFMAN		TRUE
CHILD_INSTRUCTION		2
SYM_IGNORE		TRUE
SCFMI		0
RI_K 0		
PARI_K 0		
MIN_PARI_K 0		
IARI_K 0		
OCC_RI_K 0		
PURECART		1111
MEM_STATIC		2000
MEM_TOTAL		96000
GUI		0
CHILD_MP		1
CHILD_MP_ORDERS		232
FRZ_RELAX		0
FRZ_RELAX_METHOD		0
EDA_CLS_ELEC		1
EDA_CLS_DISP		0
FRZ_ORTHO_DECOMP		1
EDA2		FALSE
FRGM_METHOD		FALSE
CIS_N_ROOTS  0
LOCAL_CIS    0
CIS_RLX_DNS  1
$end
$smx
SOLVENT			WATER
$end
--------------------------------------------------------------
 ----------------------------------------------------------------
             Standard Nuclear Orientation (Angstroms)
    I     Atom           X                Y                Z
 ----------------------------------------------------------------
    1      C       0.8960311510    -4.1974740020    -0.8779294384
    2      C       0.9730311510    -0.3764740020    -0.7989294384
    3      C       2.0740311510    -0.1474740020    -0.0189294384
    4      C       0.5890311510    -1.6764740020    -1.0529294384
    5      C       1.3210311510    -2.7584740020    -0.5509294384
    6      C       2.8090311510    -1.1814740020     0.4820705616
    7      C       2.4390311510    -2.4904740020     0.2230705616
    8      O       2.5080311510     1.1025259980     0.2490705616
    9      H       0.4350311510     0.4525259980    -1.2269294384
   10      H      -0.2809688490    -1.8684740020    -1.6619294384
   11      H       3.6870311510    -0.9864740020     1.0790705616
   12      H       3.2870311510     1.1105259980     0.8090705616
   13      H       1.6740311510    -4.9004740020    -0.5809294384
   14      H       0.7710311510    -4.2564740020    -1.9579294384
   15      H       3.0300311510    -3.3024740020     0.6090705616
   16      H      -0.0556208490    -4.4607430020    -0.3931124384
 ----------------------------------------------------------------
 Nuclear Repulsion Energy =         345.17189785 hartrees
 There are       29 alpha and       29 beta electrons
 Requested basis set is def2-TZVPD
 There are 145 shells and 371 basis functions

 Total QAlloc Memory Limit  96000 MB
 Mega-Array Size      1956 MB
 MEM_STATIC part      2000 MB
 
 Citation of the SMD model:
 Marenich, A.V.; Cramer, C.J.; Truhlar, D.G.
 J. Phys. Chem. B 2009, 113, 6378-6396.
 iSolventCode=           1
 Solvent: water                                                           
 
 vradii
            1           2           3           4           5           6
    1   1.8500000   1.8500000   1.8500000   1.8500000   1.8500000   1.8500000
            7           8           9          10          11          12
    1   1.8500000   1.5200000   1.2000000   1.2000000   1.2000000   1.2000000
           13          14          15          16
    1   1.2000000   1.2000000   1.2000000   1.2000000
 Changing PCM_VDW_RADII to SMD_RADIUS
 Discretize the solute cavity surface with Lebedev spheres
	Using 110 Lebedev grid points for each H atom
	Using 194 Lebedev grid points for other atoms
	Atomic van der Waals radii will be scaled by 1.20
 Remove points where switching function is < 1.0e-08
 Keep 1189 surface tesserae and discard 1243 interior tesserae
 Molecular Surface Area = 140.963 Angst**2
 A cutoff of  1.0D-14 yielded  10051 shell pairs
 There are     67145 function pairs (     85860 Cartesian)
 Smallest overlap matrix eigenvalue = 4.84E-07
 Linear dependence detected in AO basis
 Tighter screening thresholds may be required for diffuse basis sets
 Use S2THRESH > 14 and THRESH = 14 in case of SCF convergence issues
 Number of orthogonalized atomic orbitals = 370
 Maximum deviation from orthogonality = 2.315E-10

 Scale SEOQF with 1.000000e-01/1.000000e-01/1.000000e-01

 Standard Electronic Orientation quadrupole field applied
 Nucleus-field energy     =     0.0000000263 hartrees
 Guess from superposition of atomic densities
 Warning:  Energy on first SCF cycle will be non-variational
 SAD guess density has 57.738434 electrons

 -----------------------------------------------------------------------
  General SCF calculation program by
  Eric Jon Sundstrom, Paul Horn, Yuezhi Mao, Dmitri Zuev, Alec White,
  David Stuck, Shaama M.S., Shane Yost, Joonho Lee, David Small,
  Daniel Levine, Susi Lehtola, Hugh Burton, Evgeny Epifanovsky
 -----------------------------------------------------------------------
 Exchange:     0.1670 Hartree-Fock + 1.0000 wB97X-V + LR-HF
 Correlation:  1.0000 wB97X-V
 Using Euler-Maclaurin-Lebedev (99,590) quadrature formula
 Nonlocal Correlation:  VV10 with C = 0.0100 and b = 6.00 and scale = 1.00000
 Grid used for NLC:  SG-1 standard quadrature
Energy prior to optimization (guess energy) = -346.492801036946
Begin Timing: Total SCF Calculation
begin iterations for algorithm: DIIS         
the SCF tolerance is set to 1.00e-08
    1    -346.4928010369      5.18e-03     00000 
    2    -346.4438249813      5.53e-03     00000 
    3    -346.8174859237      5.28e-04     00000 
    4    -346.8222255888      1.75e-04     00000 
    5    -346.8229080529      3.61e-05     00000 
    6    -346.8229549015      1.23e-05     00000 
    7    -346.8229591052      4.72e-06     00000 
    8    -346.8229597280      1.42e-06     00000 
    9    -346.8229597977      4.89e-07     00000 
   10    -346.8229598060      1.88e-07     00000 
   11    -346.8229598077      4.27e-08     00000 
   12    -346.8229598079      2.11e-08     00000 
   13    -346.8229598079      9.37e-09     00000 Convergence criterion met
Timing for Total SCF: 1897.00s (wall), 3775.22s (cpu)
(3)  G-ENP(liq) elect-nuc-pol free energy of system     -346.822959808 a.u.
(4)  G-CDS(liq) cavity-dispersion-solvent structure 
     free energy                                                3.8234 kcal/mol
(6)  G-S(liq) free energy of system                     -346.816866840 a.u.
E_pcm = -0.0170391882
E_cds = 0.0060929680
Multipole orders to be included
        2
        3
computing dipole RHS
computing quadrupole RHS
total number of RHS in solve_reponses: 8
RHS batch sizes
        8
Beginning Block Conjugate Gradient Iterations. Batch Number: 0
computing hessian-vector products by finite difference
              1      6.63e-01     00000 Conjugate Gradient Iteration
computing hessian-vector products by finite difference
              2      1.96e-01     00000 Conjugate Gradient Iteration
computing hessian-vector products by finite difference
              3      5.06e-02     00000 Conjugate Gradient Iteration
computing hessian-vector products by finite difference
              4      1.45e-02     00000 Conjugate Gradient Iteration
computing hessian-vector products by finite difference
              5      3.92e-03     00000 Conjugate Gradient Iteration
computing hessian-vector products by finite difference
              6      1.61e-03     00000 Conjugate Gradient Iteration
computing hessian-vector products by finite difference
              7      3.93e-04     00000 Conjugate Gradient Iteration
computing hessian-vector products by finite difference
              8      7.74e-05     00000 Conjugate Gradient Iteration
computing hessian-vector products by finite difference
              9      1.43e-05     00000 Conjugate Gradient Iteration
computing hessian-vector products by finite difference
             10      1.90e-06     00000 Conjugate Gradient Iteration
computing hessian-vector products by finite difference
             11      2.58e-07     00000 Conjugate Gradient Iteration
computing hessian-vector products by finite difference
             12      4.64e-08     00000 Conjugate Gradient Iteration
computing hessian-vector products by finite difference
             13      6.62e-09     00000 CG Converged
batch 0 complete
Done Calculating Responses
TESTING ORTHOGONALIZATION OF MULTIPOLE BASIS
Multipole virts passed orthogonality test
Virts Per Order
           87
          145
 
 --------------------------------------------------------------
 
                    Orbital Energies (a.u.)
 --------------------------------------------------------------
 
 Alpha MOs
 -- Occupied --
-19.2363 -10.3227 -10.2709 -10.2668 -10.2644 -10.2621 -10.2582 -10.2548
 -1.1941  -0.9949  -0.8951  -0.8813  -0.8046  -0.7451  -0.7103  -0.6631
 -0.5995  -0.5739  -0.5432  -0.5403  -0.5281  -0.5157  -0.5035  -0.4737
 -0.4450  -0.4409  -0.4343  -0.3507  -0.3100
 -- Virtual --
  0.0638   0.0660   0.0744   0.0864   0.0887   0.0998   0.1138   0.1158
  0.1189   0.1367   0.1518   0.1558   0.1615   0.1787   0.1838   0.1984
  0.2029   0.2151   0.2197   0.2325   0.2402   0.2471   0.2533   0.2620
  0.2688   0.2732   0.2790   0.2853   0.2895   0.2995   0.3004   0.3070
  0.3107   0.3152   0.3218   0.3332   0.3398   0.3461   0.3508   0.3548
  0.3564   0.3654   0.3664   0.3743   0.3831   0.3857   0.3899   0.4005
  0.4009   0.4032   0.4112   0.4134   0.4194   0.4249   0.4312   0.4383
  0.4416   0.4577   0.4646   0.4698   0.4771   0.4830   0.4837   0.4921
  0.4973   0.4989   0.5072   0.5133   0.5203   0.5233   0.5382   0.5405
  0.5480   0.5517   0.5560   0.5579   0.5674   0.5737   0.5848   0.5949
  0.6041   0.6094   0.6300   0.6339   0.6418   0.6606   0.6669   0.6737
  0.6805   0.6941   0.6973   0.6993   0.7077   0.7135   0.7188   0.7318
  0.7360   0.7437   0.7564   0.7582   0.7640   0.7791   0.7888   0.7893
  0.7968   0.7988   0.8012   0.8128   0.8203   0.8253   0.8368   0.8392
  0.8458   0.8542   0.8612   0.8631   0.8696   0.8728   0.8958   0.9005
  0.9075   0.9211   0.9412   0.9589   0.9682   0.9870   0.9931   1.0130
  1.0415   1.0465   1.0525   1.0555   1.0628   1.0679   1.0827   1.1022
  1.1057   1.1304   1.1447   1.1740   1.2069   1.2579   1.2618   1.3072
  1.3225   1.3254   1.3344   1.3712   1.3761   1.3883   1.4061   1.4470
  1.4656   1.4680   1.4822   1.5000   1.5498   1.5834   1.6228   1.6250
  1.6510   1.6552   1.6701   1.6862   1.7219   1.7358   1.7697   1.8112
  1.8299   1.8391   1.8470   1.8634   1.8808   1.8854   1.9234   1.9279
  1.9373   1.9568   1.9838   1.9929   2.0143   2.0363   2.0442   2.0662
  2.0690   2.0885   2.0982   2.1177   2.1265   2.1635   2.2110   2.2211
  2.2241   2.2431   2.2729   2.2867   2.3256   2.3319   2.3589   2.3795
  2.4014   2.4187   2.4350   2.4654   2.4976   2.5168   2.5292   2.5621
  2.5906   2.6078   2.6331   2.6493   2.6690   2.6824   2.6913   2.7372
  2.7759   2.7841   2.8008   2.8267   2.8316   2.8515   2.8802   2.8856
  2.9134   2.9441   2.9483   2.9555   2.9766   2.9853   2.9925   3.0217
  3.0344   3.0622   3.0656   3.0871   3.1334   3.1391   3.1559   3.1832
  3.1887   3.2107   3.2154   3.2333   3.2541   3.2674   3.2819   3.3008
  3.3096   3.3737   3.3833   3.3989   3.4026   3.4462   3.4618   3.4632
  3.4769   3.4843   3.5064   3.5272   3.5372   3.5432   3.5510   3.5644
  3.5682   3.5737   3.5860   3.6113   3.6274   3.6460   3.6566   3.6759
  3.7153   3.7325   3.7535   3.7637   3.7896   3.8421   3.8596   3.9165
  3.9512   3.9779   3.9833   4.0077   4.0664   4.1039   4.1762   4.2177
  4.2587   4.2969   4.3037   4.3248   4.3505   4.3655   4.3803   4.3900
  4.4070   4.4169   4.4287   4.4986   4.5397   4.5952   4.6070   4.6296
  4.7582   4.7843   4.8083   4.8133   4.8568   4.9331   5.0507   5.0842
  5.0940   5.1377   5.1929   5.3339   5.3900   5.4146   5.4609   5.5321
  5.6393   5.6829   5.7394   5.7705   5.9839   6.2475   6.5567   6.6299
  6.6413   6.8882   7.0388   7.3100   7.4787  22.6546  22.6901  22.9826
 23.0363  23.1027  23.2478  23.6110  44.4443
 --------------------------------------------------------------
 
          Ground-State Mulliken Net Atomic Charges

     Atom                 Charge (a.u.)
  ----------------------------------------
      1 C                    -1.055618
      2 C                    -0.836259
      3 C                     0.749745
      4 C                    -0.419098
      5 C                     0.400962
      6 C                    -0.278575
      7 C                    -0.695942
      8 O                    -0.548828
      9 H                     0.398784
     10 H                     0.410487
     11 H                     0.369099
     12 H                     0.316628
     13 H                     0.293963
     14 H                     0.266170
     15 H                     0.374169
     16 H                     0.254312
  ----------------------------------------
  Sum of atomic charges =     0.000000

 -----------------------------------------------------------------
                    Cartesian Multipole Moments
 -----------------------------------------------------------------
    Charge (ESU x 10^10)
                 0.0000
    Dipole Moment (Debye)
         X       1.2886      Y      -1.2250      Z       0.8124
       Tot       1.9548
    Quadrupole Moments (Debye-Ang)
        XX     -37.2592     XY      -1.1101     YY     -44.2611
        XZ       7.9340     YZ       1.2821     ZZ     -47.1662
    Octopole Moments (Debye-Ang^2)
       XXX    -191.3151    XXY      73.5162    XYY     -72.7953
       YYY     197.2178    XXZ      43.7108    XYZ      -0.8867
       YYZ      14.3635    XZZ     -79.8278    YZZ      76.4145
       ZZZ      44.7810
    Hexadecapole Moments (Debye-Ang^3)
      XXXX    -892.0719   XXXY     300.9013   XXYY    -406.2326
      XYYY     236.0657   YYYY   -1476.0495   XXXZ     101.0825
      XXYZ     -46.5657   XYYZ      15.9116   YYYZ    -127.1881
      XXZZ    -202.9772   XYZZ     106.8521   YYZZ    -291.7528
      XZZZ       5.5480   YZZZ    -123.7270   ZZZZ    -199.4592
 -----------------------------------------------------------------
Archival summary:
1\1\nid00541\SP\ProcedureUnspecified\BasisUnspecified\178\meili\SunSep2622:02:422021SunSep2622:02:422021\0\\#,ProcedureUnspecified,BasisUnspecified,\\0,1\C\O,1,1.35007\H,2,0.95943,1,112.619\C,1,1.36396,2,117.113,3,-2.4577,0\H,4,1.0795,1,120.297,2,1.02158,0\C,1,1.36859,2,121.781,3,179.849,0\H,6,1.07697,1,119.972,2,0.740746,0\C,6,1.37912,1,119.123,2,179.092,0\H,8,1.07919,6,119.743,1,179.642,0\C,4,1.38472,1,120.261,2,-178.635,0\H,10,1.07593,4,119.97,1,179.143,0\C,10,1.38594,4,120.185,1,0.200928,0\C,12,1.53567,10,121.558,4,178.932,0\H,13,1.08881,12,107.083,10,-128.163,0\H,13,1.08982,12,110.417,10,-10.2186,0\H,13,1.1,12,111.706,10,112.617,0\\\@

 Total job time:  35889.18s(wall), 71193.43s(cpu) 
 Sun Sep 26 22:02:45 2021

        *************************************************************
        *                                                           *
        *  Thank you very much for using Q-Chem.  Have a nice day.  *
        *                                                           *
        *************************************************************


Done Job For Fragment 0
calling putenv with: QCSCRATCH=/global/cscratch1/sd/meili 
calling putenv with: QCLOCALSCR=/tmp 
calling putenv with: QCTHREADS=32 
Creating input file /tmp/qchem25114/Frg2.input
using default PutDataFrgm: nothing
calling putenv with: QCSCRATCH=/tmp/qchem25114/ 
calling putenv with: QCLOCALSCR=/tmp/qchem25114/ 
Spawning Job For Fragment 1
                  Welcome to Q-Chem
     A Quantum Leap Into The Future Of Chemistry


 Q-Chem 5.2, Q-Chem, Inc., Pleasanton, CA (2019)

 License issued to: National Energy Research Scientific Computing Center

 Yihan Shao,  Zhengting Gan,  E. Epifanovsky,  A. T. B. Gilbert,  M. Wormit,  
 J. Kussmann,  A. W. Lange,  A. Behn,  Jia Deng,  Xintian Feng,  D. Ghosh,  
 M. Goldey,  P. R. Horn,  L. D. Jacobson,  I. Kaliman,  T. Kus,  A. Landau,  
 Jie Liu,  E. I. Proynov,  R. M. Richard,  R. P. Steele,  E. J. Sundstrom,  
 H. L. Woodcock III,  P. M. Zimmerman,  D. Zuev,  B. Albrecht,  E. Alguire,  
 S. A. Baeppler,  D. Barton,  Z. Benda,  Y. A. Bernard,  E. J. Berquist,  
 K. B. Bravaya,  H. Burton,  D. Casanova,  Chun-Min Chang,  Yunqing Chen,  
 A. Chien,  K. D. Closser,  M. P. Coons,  S. Coriani,  S. Dasgupta,  
 A. L. Dempwolff,  M. Diedenhofen,  Hainam Do,  R. G. Edgar,  Po-Tung Fang,  
 S. Faraji,  S. Fatehi,  Qingguo Feng,  K. D. Fenk,  J. Fosso-Tande,  
 J. Gayvert,  Qinghui Ge,  A. Ghysels,  G. Gidofalvi,  J. Gomes,  
 J. Gonthier,  A. Gunina,  D. Hait,  M. W. D. Hanson-Heine,  
 P. H. P. Harbach,  A. W. Hauser,  M. F. Herbst,  J. E. Herr,  
 E. G. Hohenstein,  Z. C. Holden,  Kerwin Hui,  B. C. Huynh,  T.-C. Jagau,  
 Hyunjun Ji,  B. Kaduk,  K. Khistyaev,  Jaehoon Kim,  P. Klunzinger,  K. Koh,  
 D. Kosenkov,  L. Koulias,  T. Kowalczyk,  C. M. Krauter,  A. Kunitsa,  
 Ka Un Lao,  A. Laurent,  K. V. Lawler,  Joonho Lee,  D. Lefrancois,  
 S. Lehtola,  D. S. Levine,  Yi-Pei Li,  You-Sheng Lin,  Fenglai Liu,  
 E. Livshits,  A. Luenser,  P. Manohar,  E. Mansoor,  S. F. Manzer,  
 Shan-Ping Mao,  Yuezhi Mao,  N. Mardirossian,  A. V. Marenich,  
 T. Markovich,  L. A. Martinez-Martinez,  S. A. Maurer,  N. J. Mayhall,  
 S. C. McKenzie,  J.-M. Mewes,  P. Morgante,  A. F. Morrison,  
 J. W. Mullinax,  K. Nanda,  T. S. Nguyen-Beck,  R. Olivares-Amaya,  
 J. A. Parkhill,  Zheng Pei,  T. M. Perrine,  F. Plasser,  P. Pokhilko,  
 S. Prager,  A. Prociuk,  E. Ramos,  D. R. Rehn,  F. Rob,  M. Scheurer,  
 M. Schneider,  N. Sergueev,  S. M. Sharada,  S. Sharma,  D. W. Small,  
 T. Stauch,  T. Stein,  Yu-Chuan Su,  A. J. W. Thom,  A. Tkatchenko,  
 T. Tsuchimochi,  N. M. Tubman,  L. Vogt,  M. L. Vidal,  O. Vydrov,  
 M. A. Watson,  J. Wenzel,  M. de Wergifosse,  T. A. Wesolowski,  A. White,  
 J. Witte,  A. Yamada,  Jun Yang,  K. Yao,  S. Yeganeh,  S. R. Yost,  
 Zhi-Qiang You,  A. Zech,  Igor Ying Zhang,  Xing Zhang,  Yan Zhao,  
 Ying Zhu,  B. R. Brooks,  G. K. L. Chan,  C. J. Cramer,  M. S. Gordon,  
 W. J. Hehre,  A. Klamt,  M. W. Schmidt,  C. D. Sherrill,  D. G. Truhlar,  
 A. Aspuru-Guzik,  R. Baer,  A. T. Bell,  N. A. Besley,  Jeng-Da Chai,  
 A. E. DePrince, III,  R. A. DiStasio Jr.,  A. Dreuw,  B. D. Dunietz,  
 T. R. Furlani,  Chao-Ping Hsu,  Yousung Jung,  Jing Kong,  D. S. Lambrecht,  
 WanZhen Liang,  C. Ochsenfeld,  V. A. Rassolov,  L. V. Slipchenko,  
 J. E. Subotnik,  T. Van Voorhis,  J. M. Herbert,  A. I. Krylov,  
 P. M. W. Gill,  M. Head-Gordon

 Contributors to earlier versions of Q-Chem not listed above: 
 R. D. Adamson,  B. Austin,  J. Baker,  G. J. O. Beran,  K. Brandhorst,  
 S. T. Brown,  E. F. C. Byrd,  A. K. Chakraborty,  C.-L. Cheng,  
 Siu Hung Chien,  D. M. Chipman,  D. L. Crittenden,  H. Dachsel,  
 R. J. Doerksen,  A. D. Dutoi,  L. Fusti-Molnar,  W. A. Goddard III,  
 A. Golubeva-Zadorozhnaya,  S. R. Gwaltney,  G. Hawkins,  A. Heyden,  
 S. Hirata,  G. Kedziora,  F. J. Keil,  C. Kelley,  Jihan Kim,  R. A. King,  
 R. Z. Khaliullin,  P. P. Korambath,  W. Kurlancheek,  A. M. Lee,  M. S. Lee,  
 S. V. Levchenko,  Ching Yeh Lin,  D. Liotard,  R. C. Lochan,  I. Lotan,  
 P. E. Maslen,  N. Nair,  D. P. O'Neill,  D. Neuhauser,  E. Neuscamman,  
 C. M. Oana,  R. Olson,  B. Peters,  R. Peverati,  P. A. Pieniazek,  
 Y. M. Rhee,  J. Ritchie,  M. A. Rohrdanz,  E. Rosta,  N. J. Russ,  
 H. F. Schaefer III,  N. E. Schultz,  N. Shenvi,  A. C. Simmonett,  A. Sodt,  
 D. Stuck,  K. S. Thanthiriwatte,  V. Vanovschi,  Tao Wang,  A. Warshel,  
 C. F. Williams,  Q. Wu,  X. Xu,  W. Zhang

 Please cite Q-Chem as follows:
 Y. Shao et al., Mol. Phys. 113, 184-215 (2015)
 DOI: 10.1080/00268976.2014.952696

 Q-Chem 5.2.0 for Intel X86 EM64T Linux

 Parts of Q-Chem use Armadillo 8.300.2 (Tropical Shenanigans).
 http://arma.sourceforge.net/

 Q-Chem begins on Sun Sep 26 22:02:50 2021  

Host: cori01
0

     Scratch files written to /tmp/qchem25114//Frg2//
 May1019 |scratch|qcdevops|jenkins|workspace|build_RNUM -1
Processing $rem in /global/common/cori/software/qchem/5.2/config/preferences:
	 MEM_TOTAL  96000 
NAlpha2: 40
NElect   40
Mult     1
Symmetry turned off for PCM/SM12/SMD calculation

Checking the input file for inconsistencies... 	...done.

--------------------------------------------------------------
User input:
--------------------------------------------------------------
$molecule
-1 1
 6	-2.4429688490	1.1675259980	-0.0799294384
 6	-3.0859688490	1.5665259980	-1.4079294384
 6	-2.3979688490	2.3035259980	0.9210705616
 8	-2.0319688490	2.0715259980	2.0620705616
 8	-2.7489688490	3.4335259980	0.5880705616
 1	-3.0589688490	0.3805259980	0.3620705616
 1	-1.4549688490	0.7385259980	-0.2209294384
 1	-3.9509688490	2.2035259980	-1.2169294384
 1	-3.4334188490	0.6659959980	-1.9354904384
 1	-2.3725788490	2.1194359980	-2.0367054384
$end
$rem
EDA2		1
METHOD		WB97X-V
BASIS		DEF2-TZVPD
XC_GRID		000099000590
NL_GRID		1
UNRESTRICTED		FALSE
MAX_SCF_CYCLES		200
SYMMETRY		FALSE
SYM_IGNORE		TRUE
BASIS_LIN_DEP_THRESH		6
THRESH		14
SCF_CONVERGENCE		8
SCF_PRINT_FRGM		TRUE
SOLVENT_METHOD		SMD
!required keywords
JOBTYPE		SP
SYM_IGNORE		TRUE
SUBSYSTEM		TRUE
GEN_SCFMAN		TRUE
CHILD_INSTRUCTION		2
SYM_IGNORE		TRUE
SCFMI		0
RI_K 0		
PARI_K 0		
MIN_PARI_K 0		
IARI_K 0		
OCC_RI_K 0		
PURECART		1111
MEM_STATIC		2000
MEM_TOTAL		96000
GUI		0
CHILD_MP		1
CHILD_MP_ORDERS		232
FRZ_RELAX		0
FRZ_RELAX_METHOD		0
EDA_CLS_ELEC		1
EDA_CLS_DISP		0
FRZ_ORTHO_DECOMP		1
EDA2		FALSE
FRGM_METHOD		FALSE
CIS_N_ROOTS  0
LOCAL_CIS    0
CIS_RLX_DNS  1
$end
$smx
SOLVENT			WATER
$end
--------------------------------------------------------------
 ----------------------------------------------------------------
             Standard Nuclear Orientation (Angstroms)
    I     Atom           X                Y                Z
 ----------------------------------------------------------------
    1      C      -2.4429688490     1.1675259980    -0.0799294384
    2      C      -3.0859688490     1.5665259980    -1.4079294384
    3      C      -2.3979688490     2.3035259980     0.9210705616
    4      O      -2.0319688490     2.0715259980     2.0620705616
    5      O      -2.7489688490     3.4335259980     0.5880705616
    6      H      -3.0589688490     0.3805259980     0.3620705616
    7      H      -1.4549688490     0.7385259980    -0.2209294384
    8      H      -3.9509688490     2.2035259980    -1.2169294384
    9      H      -3.4334188490     0.6659959980    -1.9354904384
   10      H      -2.3725788490     2.1194359980    -2.0367054384
 ----------------------------------------------------------------
 Nuclear Repulsion Energy =         171.17460969 hartrees
 There are       20 alpha and       20 beta electrons
 Requested basis set is def2-TZVPD
 There are 92 shells and 236 basis functions

 Total QAlloc Memory Limit  96000 MB
 Mega-Array Size      1956 MB
 MEM_STATIC part      2000 MB
 
 Citation of the SMD model:
 Marenich, A.V.; Cramer, C.J.; Truhlar, D.G.
 J. Phys. Chem. B 2009, 113, 6378-6396.
 iSolventCode=           1
 Solvent: water                                                           
 
 vradii
            1           2           3           4           5           6
    1   1.8500000   1.8500000   1.8500000   1.5200000   1.5200000   1.2000000
            7           8           9          10
    1   1.2000000   1.2000000   1.2000000   1.2000000
 Changing PCM_VDW_RADII to SMD_RADIUS
 Discretize the solute cavity surface with Lebedev spheres
	Using 110 Lebedev grid points for each H atom
	Using 194 Lebedev grid points for other atoms
	Atomic van der Waals radii will be scaled by 1.20
 Remove points where switching function is < 1.0e-08
 Keep 831 surface tesserae and discard 689 interior tesserae
 Molecular Surface Area = 98.711 Angst**2

                       Distance Matrix (Angstroms)
             C (  1)   C (  2)   C (  3)   O (  4)   O (  5)   H (  6)
   C (  2)  1.528474
   C (  3)  1.514768  2.537864
   O (  4)  2.360996  3.661535  1.220517
   O (  5)  2.382145  2.753775  1.229223  2.131152
   H (  6)  1.092790  2.130780  2.108870  2.608488  3.077009
   H (  7)  1.086308  2.180531  2.154678  2.705902  3.097086  1.743809
   H (  8)  2.154096  1.091089  2.644400  3.801556  2.493136  2.571426
   H (  9)  2.162321  1.099998  3.451609  4.463191  3.807368  2.345313
   H ( 10)  2.177168  1.099997  2.963608  4.113183  2.959384  3.041228
             H (  7)   H (  8)   H (  9)
   H (  8)  3.060761
   H (  9)  2.619016  1.774313
   H ( 10)  2.458854  1.780567  1.802252
 
 A cutoff of  1.0D-14 yielded   4189 shell pairs
 There are     28005 function pairs (     35684 Cartesian)
 Smallest overlap matrix eigenvalue = 8.07E-06

 Scale SEOQF with 1.000000e-01/1.000000e-01/1.000000e-01

 Standard Electronic Orientation quadrupole field applied
 Nucleus-field energy     =     0.0000000165 hartrees
 Guess from superposition of atomic densities
 Warning:  Energy on first SCF cycle will be non-variational
 SAD guess density has 38.612942 electrons

 -----------------------------------------------------------------------
  General SCF calculation program by
  Eric Jon Sundstrom, Paul Horn, Yuezhi Mao, Dmitri Zuev, Alec White,
  David Stuck, Shaama M.S., Shane Yost, Joonho Lee, David Small,
  Daniel Levine, Susi Lehtola, Hugh Burton, Evgeny Epifanovsky
 -----------------------------------------------------------------------
 Exchange:     0.1670 Hartree-Fock + 1.0000 wB97X-V + LR-HF
 Correlation:  1.0000 wB97X-V
 Using Euler-Maclaurin-Lebedev (99,590) quadrature formula
 Nonlocal Correlation:  VV10 with C = 0.0100 and b = 6.00 and scale = 1.00000
 Grid used for NLC:  SG-1 standard quadrature
Energy prior to optimization (guess energy) = -267.075356025282
Begin Timing: Total SCF Calculation
begin iterations for algorithm: DIIS         
the SCF tolerance is set to 1.00e-08
    1    -267.0753560253      1.27e-02     00000 
    2    -263.3338912632      2.02e-02     00000 
    3    -267.8304317239      4.94e-03     00000 
    4    -267.9502305346      2.13e-03     00000 
    5    -267.9741877337      3.58e-04     00000 
    6    -267.9753083894      1.48e-04     00000 
    7    -267.9754019838      7.81e-05     00000 
    8    -267.9754325719      1.60e-05     00000 
    9    -267.9754347435      5.74e-06     00000 
   10    -267.9754350681      2.14e-06     00000 
   11    -267.9754351361      2.99e-07     00000 
   12    -267.9754351387      7.55e-08     00000 
   13    -267.9754351388      2.90e-08     00000 
   14    -267.9754351388      9.57e-09     00000 Convergence criterion met
Timing for Total SCF: 570.00s (wall), 1095.18s (cpu)
(3)  G-ENP(liq) elect-nuc-pol free energy of system     -267.975435139 a.u.
(4)  G-CDS(liq) cavity-dispersion-solvent structure 
     free energy                                                4.1317 kcal/mol
(6)  G-S(liq) free energy of system                     -267.968850848 a.u.
E_pcm = -0.1310287349
E_cds = 0.0065842905
Multipole orders to be included
        2
        3
computing dipole RHS
computing quadrupole RHS
total number of RHS in solve_reponses: 8
RHS batch sizes
        8
Beginning Block Conjugate Gradient Iterations. Batch Number: 0
computing hessian-vector products by finite difference
              1      5.98e-01     00000 Conjugate Gradient Iteration
computing hessian-vector products by finite difference
              2      2.13e-01     00000 Conjugate Gradient Iteration
computing hessian-vector products by finite difference
              3      5.52e-02     00000 Conjugate Gradient Iteration
computing hessian-vector products by finite difference
              4      1.44e-02     00000 Conjugate Gradient Iteration
computing hessian-vector products by finite difference
              5      2.38e-03     00000 Conjugate Gradient Iteration
computing hessian-vector products by finite difference
              6      5.17e-04     00000 Conjugate Gradient Iteration
computing hessian-vector products by finite difference
              7      7.43e-05     00000 Conjugate Gradient Iteration
computing hessian-vector products by finite difference
              8      1.12e-05     00000 Conjugate Gradient Iteration
computing hessian-vector products by finite difference
              9      1.69e-06     00000 Conjugate Gradient Iteration
computing hessian-vector products by finite difference
             10      2.65e-07     00000 Conjugate Gradient Iteration
computing hessian-vector products by finite difference
             11      3.85e-08     00000 Conjugate Gradient Iteration
computing hessian-vector products by finite difference
             12      7.08e-09     00000 CG Converged
batch 0 complete
Done Calculating Responses
TESTING ORTHOGONALIZATION OF MULTIPOLE BASIS
Multipole virts passed orthogonality test
Virts Per Order
           60
          100
 
 --------------------------------------------------------------
 
                    Orbital Energies (a.u.)
 --------------------------------------------------------------
 
 Alpha MOs
 -- Occupied --
-19.1451 -19.1449 -10.3397 -10.2483 -10.2430  -1.1783  -1.0688  -0.8876
 -0.7503  -0.6122  -0.5689  -0.5642  -0.5330  -0.5005  -0.4759  -0.4500
 -0.4326  -0.3623  -0.3547  -0.3378
 -- Virtual --
  0.0680   0.0878   0.0969   0.1056   0.1226   0.1348   0.1441   0.1456
  0.1587   0.1693   0.1792   0.2030   0.2064   0.2157   0.2227   0.2399
  0.2502   0.2634   0.2749   0.2885   0.2992   0.3127   0.3152   0.3237
  0.3356   0.3424   0.3540   0.3681   0.3805   0.3887   0.3932   0.3987
  0.4043   0.4073   0.4174   0.4215   0.4335   0.4445   0.4546   0.4732
  0.4814   0.4944   0.4996   0.5061   0.5072   0.5201   0.5331   0.5393
  0.5481   0.5553   0.5723   0.5929   0.6074   0.6195   0.6324   0.6378
  0.6626   0.6678   0.6827   0.6940   0.7013   0.7075   0.7213   0.7470
  0.7617   0.7818   0.7884   0.7987   0.8057   0.8127   0.8232   0.8247
  0.8351   0.8539   0.8690   0.8808   0.9029   0.9577   0.9825   0.9968
  1.0122   1.0321   1.0624   1.0774   1.1222   1.1439   1.1590   1.2036
  1.2263   1.2694   1.2878   1.3104   1.3424   1.3772   1.3874   1.3976
  1.4274   1.4424   1.4965   1.6148   1.6895   1.7686   1.8297   1.8834
  1.9032   1.9121   1.9182   1.9448   1.9599   1.9657   1.9788   1.9936
  2.0073   2.0236   2.0810   2.1311   2.1794   2.1922   2.2061   2.2339
  2.2559   2.3173   2.3310   2.3857   2.4516   2.4904   2.5009   2.5194
  2.5554   2.5796   2.6105   2.6290   2.6760   2.7561   2.7636   2.7919
  2.8199   2.8462   2.8989   2.9216   2.9457   3.0155   3.0421   3.0695
  3.1177   3.1896   3.2064   3.2632   3.2839   3.3064   3.3170   3.3636
  3.3691   3.4132   3.4302   3.4620   3.4947   3.5100   3.5539   3.5808
  3.5880   3.6055   3.6394   3.6558   3.6990   3.7458   3.7567   3.7764
  3.8110   3.8489   3.9727   4.0403   4.0982   4.1367   4.1635   4.2199
  4.3218   4.4482   4.5619   4.6202   4.6597   4.7326   4.7566   4.7759
  4.8800   5.0381   5.1387   5.3069   5.3417   5.3515   5.3603   5.4889
  5.7370   5.8283   5.8661   6.1083   6.2481   6.3817   6.4185   6.6244
  6.6654   6.7433   6.7465   6.7756   6.9791   7.0337   7.0432   7.2783
  7.3723   7.4243   7.4413  22.6253  22.7870  23.9492  44.2370  44.4353
 --------------------------------------------------------------
 
          Ground-State Mulliken Net Atomic Charges

     Atom                 Charge (a.u.)
  ----------------------------------------
      1 C                    -0.043605
      2 C                    -0.842840
      3 C                     0.337913
      4 O                    -0.788195
      5 O                    -0.767152
      6 H                     0.192437
      7 H                     0.229438
      8 H                     0.212611
      9 H                     0.245793
     10 H                     0.223602
  ----------------------------------------
  Sum of atomic charges =    -1.000000

 -----------------------------------------------------------------
                    Cartesian Multipole Moments
 -----------------------------------------------------------------
    Charge (ESU x 10^10)
                -4.8032
    Dipole Moment (Debye)
         X      11.4090      Y     -14.9420      Z      -7.8169
       Tot      20.3600
    Quadrupole Moments (Debye-Ang)
        XX     -59.6570     XY      37.8996     YY     -81.1760
        XZ      15.7091     YZ     -18.5799     ZZ     -49.7174
    Octopole Moments (Debye-Ang^2)
       XXX     315.2564    XXY    -164.1391    XYY     211.2429
       YYY    -366.5920    XXZ     -41.9296    XYZ      39.6356
       YYZ     -59.7171    XZZ     119.0504    YZZ    -104.1927
       ZZZ     -66.0525
    Hexadecapole Moments (Debye-Ang^3)
      XXXX   -1517.1281   XXXY     768.0528   XXYY    -732.1868
      XYYY     961.5490   YYYY   -1583.0099   XXXZ     101.6938
      XXYZ    -119.5933   XYYZ     125.7278   YYYZ    -244.4402
      XXZZ    -361.5540   XYZZ     252.1508   YYZZ    -312.7165
      XZZZ     106.5177   YZZZ    -175.9493   ZZZZ    -440.5699
 -----------------------------------------------------------------
Archival summary:
1\1\nid00541\SP\ProcedureUnspecified\BasisUnspecified\235(1-,1)\meili\MonSep2700:35:172021MonSep2700:35:172021\0\\#,ProcedureUnspecified,BasisUnspecified,\\-1,1\C\O,1,1.22052\O,1,1.22922,2,120.905\C,1,1.51477,2,118.955,3,-178.705,0\H,4,1.08631,1,110.789,2,-60.8638,0\H,4,1.09279,1,106.831,2,54.5158,0\C,4,1.52847,1,113.009,2,172.652,0\H,7,1.09109,4,109.501,1,-40.43,0\H,7,1.1,4,110.795,1,79.4695,0\H,7,1.1,4,109.625,1,-158.927,0\\\@

 Total job time:  9150.13s(wall), 17919.89s(cpu) 
 Mon Sep 27 00:35:20 2021

        *************************************************************
        *                                                           *
        *  Thank you very much for using Q-Chem.  Have a nice day.  *
        *                                                           *
        *************************************************************


Done Job For Fragment 1
calling putenv with: QCSCRATCH=/global/cscratch1/sd/meili 
calling putenv with: QCLOCALSCR=/tmp 
calling putenv with: QCTHREADS=32 
Doing General SCFMI
 Exchange:     0.1670 Hartree-Fock + 1.0000 wB97X-V + LR-HF
 Correlation:  1.0000 wB97X-V
 Using Euler-Maclaurin-Lebedev (99,590) quadrature formula
 Nonlocal Correlation:  VV10 with C = 0.0100 and b = 6.00 and scale = 1.00000
 Grid used for NLC:  SG-1 standard quadrature
performing fock build before subrot guess so that all methods have access
Printing subrot_rss_gen Method Specification:
Occupied Subspace Method is 0
Virtual Subspace Method is 0
Energy of the unrelaxed supersystem initial determinant -614.644738424612
performing fock build before subrot guess so that all methods have access
Printing subrot_rss_gen Method Specification:
Occupied Subspace Method is 0
Virtual Subspace Method is 0
Energy of the unrelaxed supersystem initial determinant w/ solvent -614.798737641268
write pseudocanon occs and virts to disk
write pseudocanon orbital energies to disk
Tolerance of ortho_decomp_scf: 1.00e-06
GDM subspace size: 20
Beginning the Orthogonal Decomposition of the Initial Supersystem Wavefunction
    1    -614.6410938394      1.40e-02     ortho_decomp Preconditoned Steepest Descent
    2    -614.6419275418      3.58e-04     ortho_decomp BFGS Step
    3    -614.6419301042      2.52e-05     ortho_decomp BFGS Step
    4    -614.6419301086      1.04e-06     ortho_decomp BFGS Step
    5    -614.6419301086      3.14e-08     ortho_decomp 00000 Convergence criterion met
 Hartree-Fock
 Hartree-Fock
 Hartree-Fock
Doing General SCFMI
 Exchange:     0.1670 Hartree-Fock + 1.0000 wB97X-V + LR-HF
 Correlation:  1.0000 wB97X-V
 Using Euler-Maclaurin-Lebedev (99,590) quadrature formula
 Nonlocal Correlation:  VV10 with C = 0.0100 and b = 6.00 and scale = 1.00000
 Grid used for NLC:  SG-1 standard quadrature
performing fock build at end of subrot_r(subrot) constructor so that all methods have access
<S^2> of initial wavefunction before polarization iterations 0.0000000000
Beginning iterations for the determination of the polarized wavefunction
Energy prior to optimization (guess energy) = -614.798737641268
Begin Timing: Total SCF Calculation
begin iterations for algorithm: DIIS         
the SCF tolerance is set to 1.00e-08
    1    -614.7987376413      2.94e-05     00000 
    2    -614.7988145566      1.14e-05     00000 
    3    -614.7988220044      6.51e-06     00000 
    4    -614.7988245208      2.00e-06     00000 
    5    -614.7988247473      1.26e-06     00000 
    6    -614.7988248249      4.90e-07     00000 
    7    -614.7988248313      2.53e-07     00000 
    8    -614.7988248334      1.17e-07     00000 
    9    -614.7988248340      5.45e-08     00000 
   10    -614.7988248342      2.52e-08     00000 
   11    -614.7988248343      6.56e-09     00000 Convergence criterion met
write pseudocanon occs and virts to disk
write pseudocanon orbital energies to disk
Timing for Total SCF: 5948.00s (wall), 11842.97s (cpu)
<S^2> of polarized wavefunction after polarization iterations 0.0000000000
relaxing scfmi constraint to allow all rotations in the entire AO span
Doing General SCFMI
 Exchange:     0.1670 Hartree-Fock + 1.0000 wB97X-V + LR-HF
 Correlation:  1.0000 wB97X-V
 Using Euler-Maclaurin-Lebedev (99,590) quadrature formula
 Nonlocal Correlation:  VV10 with C = 0.0100 and b = 6.00 and scale = 1.00000
 Grid used for NLC:  SG-1 standard quadrature
performing fock build at end of subrot_r(subrot) constructor so that all methods have access
<S^2> of polarized wavefunction before ct-allowed iterations 0.0000000000
Beginning iterations for the determination of the CT-Allowed wavefunction
Energy prior to optimization (guess energy) = -614.798824834251
Begin Timing: Total SCF Calculation
begin iterations for algorithm: DIIS         
the SCF tolerance is set to 1.00e-08
    1    -614.7988248343      5.58e-05     00000 
    2    -614.7994231762      6.23e-06     00000 
    3    -614.7994415244      9.62e-07     00000 
    4    -614.7994420819      3.35e-07     00000 
    5    -614.7994421082      1.50e-07     00000 
    6    -614.7994421144      5.20e-08     00000 
    7    -614.7994421150      1.60e-08     00000 
    8    -614.7994421151      8.19e-09     00000 Convergence criterion met
write pseudocanon occs and virts to disk
write pseudocanon orbital energies to disk
Timing for Total SCF: 4213.00s (wall), 8386.92s (cpu)
<S^2> of ct_allowed wavefunction after ct-allowed iterations 0.0000000000

================================
        Results of EDA2         
================================
Basic EDA Quantities
--------------------
Fragment Energies (Ha):
1 -346.8168668399
2 -267.9688508484
--------------------
  E_prp (kJ/mol) = -0.0000
  E_sol (kJ/mol) = -16.2842
  E_frz (kJ/mol) = 14.6730
  E_pol (kJ/mol) = -0.2289
  E_vct (kJ/mol) = -1.6207
  E_int (kJ/mol) = -3.4608
--------------------


Initial Wavefunction Decomposition
--------------------
  --------------------
  Orthogonal Fragment Subspace Decomposition:
  --------------------
     E_elec   (ELEC)   (kJ/mol) = 5.9340
     E_pauli  (PAULI)  (kJ/mol) = 17.2807
     E_disp   (DISP)   (kJ/mol) = -8.5416
     --------------------
     Terms summing to E_pauli:
     --------------------
        E_kep_pauli       (kJ/mol) = 22.0464
        E_disp_free_pauli (kJ/mol) = -4.7657
  --------------------
  Classical Frozen Decomposition:
  --------------------
     E_cls_elec  (CLS ELEC)  (kJ/mol) = 12.7514
     E_cls_pauli (CLS PAULI) (kJ/mol) = 1.9217
    [E_mod_pauli (MOD PAULI) (kJ/mol) = 10.4633 (CLS PAULI - DISP from orthogonal decomposition) ]
  --------------------
--------------------

Simplified EDA Summary (kJ/mol)
--------------------
 PREPARATION     -0.0000
 SOLVATION       -16.2842
 FROZEN          23.2147      (does not include dispersion)
[PAULI           17.2807]     (if this is negligible, then frozen describes electrostatics)
 DISPERSION      -8.5416
 POLARIZATION    -0.2289
 CHARGE TRANSFER -1.6207
 TOTAL           -3.4608     (PRP + SOL + FRZ + DISP + POL + CT)
--------------------
 
 --------------------------------------------------------------
 
                    Orbital Energies (a.u.)
 --------------------------------------------------------------
 
 Alpha MOs
 -- Occupied --
-19.2352 -19.1450 -19.1449 -10.3395 -10.3217 -10.2701 -10.2659 -10.2635
-10.2610 -10.2573 -10.2540 -10.2473 -10.2429  -1.1930  -1.1781  -1.0687
 -0.9940  -0.8943  -0.8874  -0.8803  -0.8037  -0.7502  -0.7442  -0.7096
 -0.6622  -0.6125  -0.5986  -0.5750  -0.5674  -0.5640  -0.5422  -0.5393
 -0.5328  -0.5271  -0.5148  -0.5028  -0.5001  -0.4758  -0.4728  -0.4504
 -0.4441  -0.4399  -0.4355  -0.4293  -0.3622  -0.3551  -0.3487  -0.3377
 -0.3090
 -- Virtual --
  0.0599   0.0660   0.0731   0.0748   0.0796   0.0907   0.0946   0.0979
  0.1072   0.1118   0.1173   0.1204   0.1236   0.1331   0.1415   0.1494
  0.1522   0.1542   0.1581   0.1616   0.1706   0.1773   0.1844   0.1860
  0.1886   0.1964   0.2013   0.2020   0.2053   0.2140   0.2275   0.2321
  0.2378   0.2389   0.2450   0.2502   0.2540   0.2568   0.2616   0.2653
  0.2703   0.2776   0.2794   0.2849   0.2882   0.2941   0.2947   0.2998
  0.3060   0.3112   0.3127   0.3151   0.3168   0.3219   0.3279   0.3307
  0.3421   0.3451   0.3485   0.3492   0.3523   0.3545   0.3568   0.3642
  0.3674   0.3704   0.3749   0.3768   0.3801   0.3829   0.3868   0.3878
  0.3941   0.3976   0.3993   0.4017   0.4022   0.4086   0.4127   0.4143
  0.4196   0.4223   0.4236   0.4268   0.4330   0.4390   0.4434   0.4501
  0.4545   0.4569   0.4634   0.4658   0.4729   0.4763   0.4773   0.4828
  0.4878   0.4919   0.4956   0.4962   0.4999   0.5047   0.5049   0.5098
  0.5148   0.5189   0.5212   0.5245   0.5296   0.5377   0.5406   0.5413
  0.5475   0.5498   0.5545   0.5559   0.5656   0.5697   0.5707   0.5802
  0.5822   0.5853   0.5935   0.5994   0.6041   0.6084   0.6106   0.6144
  0.6214   0.6266   0.6333   0.6391   0.6406   0.6479   0.6541   0.6600
  0.6657   0.6694   0.6777   0.6819   0.6923   0.6961   0.6975   0.7010
  0.7060   0.7116   0.7162   0.7219   0.7256   0.7282   0.7351   0.7412
  0.7440   0.7505   0.7540   0.7563   0.7625   0.7648   0.7690   0.7719
  0.7793   0.7807   0.7842   0.7921   0.7957   0.8065   0.8095   0.8114
  0.8146   0.8213   0.8230   0.8262   0.8309   0.8351   0.8359   0.8395
  0.8460   0.8488   0.8514   0.8562   0.8606   0.8637   0.8696   0.8752
  0.8863   0.8883   0.8910   0.8950   0.9020   0.9120   0.9202   0.9219
  0.9252   0.9485   0.9491   0.9526   0.9669   0.9723   0.9761   0.9832
  0.9929   1.0026   1.0072   1.0201   1.0245   1.0347   1.0387   1.0500
  1.0588   1.0683   1.0754   1.0845   1.0963   1.1001   1.1105   1.1170
  1.1212   1.1352   1.1511   1.1564   1.1630   1.1748   1.1980   1.2039
  1.2196   1.2251   1.2377   1.2486   1.2611   1.2705   1.2845   1.3178
  1.3267   1.3316   1.3464   1.3507   1.3619   1.3720   1.3806   1.3866
  1.3963   1.4098   1.4118   1.4232   1.4388   1.4490   1.4535   1.4838
  1.4921   1.5001   1.5037   1.5149   1.5343   1.5467   1.5675   1.6004
  1.6254   1.6392   1.6444   1.6621   1.6734   1.7070   1.7160   1.7274
  1.7460   1.7643   1.7850   1.7959   1.8278   1.8471   1.8494   1.8756
  1.8834   1.8881   1.8998   1.9074   1.9184   1.9211   1.9357   1.9467
  1.9545   1.9604   1.9722   1.9767   1.9837   1.9864   1.9962   2.0056
  2.0227   2.0249   2.0305   2.0469   2.0486   2.0546   2.0723   2.0771
  2.0899   2.1039   2.1144   2.1152   2.1230   2.1483   2.1637   2.1657
  2.1879   2.2037   2.2187   2.2249   2.2309   2.2435   2.2548   2.2627
  2.2671   2.2848   2.2969   2.3172   2.3342   2.3402   2.3522   2.3578
  2.3803   2.3915   2.4131   2.4168   2.4440   2.4547   2.4770   2.4850
  2.5015   2.5117   2.5159   2.5310   2.5397   2.5581   2.5775   2.5833
  2.6066   2.6098   2.6307   2.6317   2.6511   2.6587   2.6663   2.6886
  2.6989   2.7051   2.7228   2.7483   2.7766   2.7852   2.7971   2.8010
  2.8123   2.8207   2.8347   2.8451   2.8548   2.8733   2.8848   2.8934
  2.9057   2.9203   2.9401   2.9502   2.9637   2.9679   2.9833   2.9955
  3.0010   3.0060   3.0086   3.0283   3.0463   3.0505   3.0650   3.0755
  3.0769   3.0946   3.0968   3.1370   3.1462   3.1600   3.1887   3.1932
  3.2007   3.2146   3.2209   3.2255   3.2444   3.2551   3.2701   3.2737
  3.2798   3.2908   3.3170   3.3226   3.3332   3.3480   3.3534   3.3826
  3.3829   3.3891   3.3966   3.4132   3.4196   3.4382   3.4481   3.4603
  3.4654   3.4763   3.4778   3.4923   3.5108   3.5149   3.5191   3.5267
  3.5376   3.5449   3.5517   3.5622   3.5739   3.5769   3.5823   3.5926
  3.6115   3.6188   3.6220   3.6262   3.6402   3.6427   3.6549   3.6684
  3.6782   3.6899   3.6976   3.7129   3.7223   3.7436   3.7474   3.7677
  3.7728   3.7801   3.7859   3.7905   3.8298   3.8544   3.8651   3.8685
  3.9240   3.9564   3.9787   3.9859   3.9928   4.0193   4.0577   4.0751
  4.1090   4.1234   4.1677   4.1844   4.1888   4.2224   4.2382   4.2761
  4.3070   4.3134   4.3309   4.3438   4.3587   4.3770   4.3878   4.4001
  4.4128   4.4246   4.4429   4.4618   4.5071   4.5456   4.5898   4.6031
  4.6125   4.6315   4.6398   4.6872   4.7530   4.7634   4.7830   4.7928
  4.7987   4.8146   4.8193   4.8631   4.8908   4.9470   5.0589   5.0659
  5.0915   5.0997   5.1431   5.1607   5.2107   5.3095   5.3375   5.3438
  5.3542   5.3623   5.3926   5.4212   5.4641   5.4911   5.5369   5.6422
  5.6858   5.7403   5.7479   5.7616   5.8307   5.8675   5.9874   6.1115
  6.2510   6.2542   6.3876   6.4226   6.5577   6.6320   6.6426   6.6646
  6.6700   6.7508   6.7569   6.7833   6.8970   6.9836   7.0444   7.0497
  7.0574   7.2813   7.3195   7.3763   7.4281   7.4504   7.4872  22.6529
 22.6671  22.7151  22.8565  23.0147  23.0515  23.1194  23.2651  23.6219
 23.9663  44.2739  44.4586  44.4729
 --------------------------------------------------------------
 
          Ground-State Mulliken Net Atomic Charges

     Atom                 Charge (a.u.)
  ----------------------------------------
      1 C                    -1.073536
      2 C                    -0.692875
      3 C                     0.636324
      4 C                    -0.549609
      5 C                     0.423017
      6 C                    -0.340742
      7 C                    -0.581980
      8 O                    -0.557045
      9 H                     0.428292
     10 H                     0.429489
     11 H                     0.378838
     12 H                     0.328476
     13 H                     0.299934
     14 H                     0.265804
     15 H                     0.403913
     16 H                     0.254728
     17 C                     0.312292
     18 C                    -0.931403
     19 C                     0.350578
     20 O                    -0.803468
     21 O                    -0.782142
     22 H                     0.222012
     23 H                    -0.153016
     24 H                     0.250531
     25 H                     0.262774
     26 H                     0.218814
  ----------------------------------------
  Sum of atomic charges =    -1.000000

 -----------------------------------------------------------------
                    Cartesian Multipole Moments
 -----------------------------------------------------------------
    Charge (ESU x 10^10)
                -4.8032
    Dipole Moment (Debye)
         X      12.7215      Y     -16.1652      Z      -7.0015
       Tot      21.7295
    Quadrupole Moments (Debye-Ang)
        XX     -97.0463     XY      36.8600     YY    -125.5068
        XZ      23.6562     YZ     -17.3117     ZZ     -96.9189
    Octopole Moments (Debye-Ang^2)
       XXX     124.2288    XXY     -90.6725    XYY     138.4716
       YYY    -169.3184    XXZ       1.8195    XYZ      38.7361
       YYZ     -45.3124    XZZ      39.2709    YZZ     -27.7959
       ZZZ     -21.1911
    Hexadecapole Moments (Debye-Ang^3)
      XXXX   -2410.9382   XXXY    1069.6250   XXYY   -1139.0260
      XYYY    1198.3970   YYYY   -3060.4226   XXXZ     202.7907
      XXYZ    -166.1444   XYYZ     141.6887   YYYZ    -371.8390
      XXZZ    -564.7847   XYZZ     359.1364   YYZZ    -604.6648
      XZZZ     112.0838   YZZZ    -299.7238   ZZZZ    -640.4753
 -----------------------------------------------------------------
Archival summary:
1\1\nid00541\SP\ProcedureUnspecified\BasisUnspecified\31013(1-,1)\meili\MonSep2705:55:372021MonSep2705:55:372021\0\\#,ProcedureUnspecified,BasisUnspecified,\\-1,1\O\H,1,0.95943\C,1,1.35007,2,112.619\C,3,1.36396,1,117.113,2,-2.4577,0\H,4,1.0795,3,120.297,1,1.02158,0\C,3,1.36859,1,121.781,2,179.849,0\H,6,1.07697,3,119.972,1,0.740746,0\C,6,1.37912,3,119.123,1,179.092,0\H,8,1.07919,6,119.743,3,179.642,0\C,4,1.38472,3,120.261,1,-178.635,0\H,10,1.07593,4,119.97,3,179.143,0\C,10,1.38594,4,120.185,3,0.200928,0\C,12,1.53567,10,121.558,4,178.932,0\H,13,1.08881,12,107.083,10,-128.163,0\H,13,1.08982,12,110.417,10,-10.2186,0\H,13,1.1,12,111.706,10,112.617,0\H,7,2.16008,6,110.727,3,-107.194,0\C,17,1.08631,7,155.302,6,-170.296,0\H,18,1.09279,17,106.306,7,145.664,0\C,18,1.51477,17,110.789,7,-98.6294,0\O,20,1.22052,18,118.955,17,-60.8638,0\O,20,1.22922,18,120.126,17,120.421,0\C,18,1.52847,17,111.896,7,28.4695,0\H,23,1.09109,18,109.501,17,-166.322,0\H,23,1.1,18,110.795,17,-46.4227,0\H,23,1.1,18,109.625,17,75.181,0\\\@

 Total job time:  64269.99s(wall), 38300.75s(cpu) 
 Mon Sep 27 05:55:40 2021

        *************************************************************
        *                                                           *
        *  Thank you very much for using Q-Chem.  Have a nice day.  *
        *                                                           *
        *************************************************************


