
Running Job 1 of 1 SSI-030GLU-034ASP-1_SMD_TZVPD.in
qchem SSI-030GLU-034ASP-1_SMD_TZVPD.in_28453.0 /tmp/qchem28453/ 0
/global/common/cori/software/qchem/5.2/exe/qcprog.exe_s SSI-030GLU-034ASP-1_SMD_TZVPD.in_28453.0 /tmp/qchem28453/
                  Welcome to Q-Chem
     A Quantum Leap Into The Future Of Chemistry


 Q-Chem 5.2, Q-Chem, Inc., Pleasanton, CA (2019)

 License issued to: National Energy Research Scientific Computing Center

 Yihan Shao,  Zhengting Gan,  E. Epifanovsky,  A. T. B. Gilbert,  M. Wormit,  
 J. Kussmann,  A. W. Lange,  A. Behn,  Jia Deng,  Xintian Feng,  D. Ghosh,  
 M. Goldey,  P. R. Horn,  L. D. Jacobson,  I. Kaliman,  T. Kus,  A. Landau,  
 Jie Liu,  E. I. Proynov,  R. M. Richard,  R. P. Steele,  E. J. Sundstrom,  
 H. L. Woodcock III,  P. M. Zimmerman,  D. Zuev,  B. Albrecht,  E. Alguire,  
 S. A. Baeppler,  D. Barton,  Z. Benda,  Y. A. Bernard,  E. J. Berquist,  
 K. B. Bravaya,  H. Burton,  D. Casanova,  Chun-Min Chang,  Yunqing Chen,  
 A. Chien,  K. D. Closser,  M. P. Coons,  S. Coriani,  S. Dasgupta,  
 A. L. Dempwolff,  M. Diedenhofen,  Hainam Do,  R. G. Edgar,  Po-Tung Fang,  
 S. Faraji,  S. Fatehi,  Qingguo Feng,  K. D. Fenk,  J. Fosso-Tande,  
 J. Gayvert,  Qinghui Ge,  A. Ghysels,  G. Gidofalvi,  J. Gomes,  
 J. Gonthier,  A. Gunina,  D. Hait,  M. W. D. Hanson-Heine,  
 P. H. P. Harbach,  A. W. Hauser,  M. F. Herbst,  J. E. Herr,  
 E. G. Hohenstein,  Z. C. Holden,  Kerwin Hui,  B. C. Huynh,  T.-C. Jagau,  
 Hyunjun Ji,  B. Kaduk,  K. Khistyaev,  Jaehoon Kim,  P. Klunzinger,  K. Koh,  
 D. Kosenkov,  L. Koulias,  T. Kowalczyk,  C. M. Krauter,  A. Kunitsa,  
 Ka Un Lao,  A. Laurent,  K. V. Lawler,  Joonho Lee,  D. Lefrancois,  
 S. Lehtola,  D. S. Levine,  Yi-Pei Li,  You-Sheng Lin,  Fenglai Liu,  
 E. Livshits,  A. Luenser,  P. Manohar,  E. Mansoor,  S. F. Manzer,  
 Shan-Ping Mao,  Yuezhi Mao,  N. Mardirossian,  A. V. Marenich,  
 T. Markovich,  L. A. Martinez-Martinez,  S. A. Maurer,  N. J. Mayhall,  
 S. C. McKenzie,  J.-M. Mewes,  P. Morgante,  A. F. Morrison,  
 J. W. Mullinax,  K. Nanda,  T. S. Nguyen-Beck,  R. Olivares-Amaya,  
 J. A. Parkhill,  Zheng Pei,  T. M. Perrine,  F. Plasser,  P. Pokhilko,  
 S. Prager,  A. Prociuk,  E. Ramos,  D. R. Rehn,  F. Rob,  M. Scheurer,  
 M. Schneider,  N. Sergueev,  S. M. Sharada,  S. Sharma,  D. W. Small,  
 T. Stauch,  T. Stein,  Yu-Chuan Su,  A. J. W. Thom,  A. Tkatchenko,  
 T. Tsuchimochi,  N. M. Tubman,  L. Vogt,  M. L. Vidal,  O. Vydrov,  
 M. A. Watson,  J. Wenzel,  M. de Wergifosse,  T. A. Wesolowski,  A. White,  
 J. Witte,  A. Yamada,  Jun Yang,  K. Yao,  S. Yeganeh,  S. R. Yost,  
 Zhi-Qiang You,  A. Zech,  Igor Ying Zhang,  Xing Zhang,  Yan Zhao,  
 Ying Zhu,  B. R. Brooks,  G. K. L. Chan,  C. J. Cramer,  M. S. Gordon,  
 W. J. Hehre,  A. Klamt,  M. W. Schmidt,  C. D. Sherrill,  D. G. Truhlar,  
 A. Aspuru-Guzik,  R. Baer,  A. T. Bell,  N. A. Besley,  Jeng-Da Chai,  
 A. E. DePrince, III,  R. A. DiStasio Jr.,  A. Dreuw,  B. D. Dunietz,  
 T. R. Furlani,  Chao-Ping Hsu,  Yousung Jung,  Jing Kong,  D. S. Lambrecht,  
 WanZhen Liang,  C. Ochsenfeld,  V. A. Rassolov,  L. V. Slipchenko,  
 J. E. Subotnik,  T. Van Voorhis,  J. M. Herbert,  A. I. Krylov,  
 P. M. W. Gill,  M. Head-Gordon

 Contributors to earlier versions of Q-Chem not listed above: 
 R. D. Adamson,  B. Austin,  J. Baker,  G. J. O. Beran,  K. Brandhorst,  
 S. T. Brown,  E. F. C. Byrd,  A. K. Chakraborty,  C.-L. Cheng,  
 Siu Hung Chien,  D. M. Chipman,  D. L. Crittenden,  H. Dachsel,  
 R. J. Doerksen,  A. D. Dutoi,  L. Fusti-Molnar,  W. A. Goddard III,  
 A. Golubeva-Zadorozhnaya,  S. R. Gwaltney,  G. Hawkins,  A. Heyden,  
 S. Hirata,  G. Kedziora,  F. J. Keil,  C. Kelley,  Jihan Kim,  R. A. King,  
 R. Z. Khaliullin,  P. P. Korambath,  W. Kurlancheek,  A. M. Lee,  M. S. Lee,  
 S. V. Levchenko,  Ching Yeh Lin,  D. Liotard,  R. C. Lochan,  I. Lotan,  
 P. E. Maslen,  N. Nair,  D. P. O'Neill,  D. Neuhauser,  E. Neuscamman,  
 C. M. Oana,  R. Olson,  B. Peters,  R. Peverati,  P. A. Pieniazek,  
 Y. M. Rhee,  J. Ritchie,  M. A. Rohrdanz,  E. Rosta,  N. J. Russ,  
 H. F. Schaefer III,  N. E. Schultz,  N. Shenvi,  A. C. Simmonett,  A. Sodt,  
 D. Stuck,  K. S. Thanthiriwatte,  V. Vanovschi,  Tao Wang,  A. Warshel,  
 C. F. Williams,  Q. Wu,  X. Xu,  W. Zhang

 Please cite Q-Chem as follows:
 Y. Shao et al., Mol. Phys. 113, 184-215 (2015)
 DOI: 10.1080/00268976.2014.952696

 Q-Chem 5.2.0 for Intel X86 EM64T Linux

 Parts of Q-Chem use Armadillo 8.300.2 (Tropical Shenanigans).
 http://arma.sourceforge.net/

 Q-Chem begins on Sun Sep 26 04:47:45 2021  

Host: cori01
0

     Scratch files written to /tmp/qchem28453//
 May1019 |scratch|qcdevops|jenkins|workspace|build_RNUM -1
Processing $rem in /global/common/cori/software/qchem/5.2/config/preferences:
	 MEM_TOTAL  96000 
NAlpha2: 64
NElect   64
Mult     1
Symmetry turned off for PCM/SM12/SMD calculation

 Q-Chem warning in module libgen/rem_setup.C, line 2803:

 Neither GIA nor STOLL is specified by user. Use STOLL as the default


Checking the input file for inconsistencies... 	...done.

--------------------------------------------------------------
User input:
--------------------------------------------------------------
$comment
SSI-030GLU-034ASP-1.pdb
$end

$molecule
-2 1
--
-1 1
C   -0.762939969403    2.206745153627    1.423254391279
C   -0.097939969403    2.240745153627    0.044254391279
O    1.052060030597    1.760745153627   -0.069745608721
O   -0.711939969403    2.732745153627   -0.932745608721
H   -0.079939969403    2.622745153627    2.167254391279
H   -0.974939969403    1.171745153627    1.702254391279
H   -1.701029969403    2.780145153627    1.457914391279
--
-1 1
C   -1.216939969403   -1.830254846373   -0.168745608721
C    0.205060030597   -2.263254846373   -0.118745608721
O    1.055060030597   -1.389254846373    0.162254391279
O    0.479060030597   -3.462254846373   -0.347745608721
H   -1.242939969403   -0.748254846373   -0.329745608721
H   -1.676939969403   -2.034254846373    0.786254391279
H   -1.771129969403   -2.324884846373   -0.980055608721
$end

$rem
JOBTYPE			EDA
EDA2			1
method			wB97X-V
BASIS			def2-TZVPD
XC_GRID			000099000590
NL_GRID			1
UNRESTRICTED		FALSE
MAX_SCF_CYCLES		200
SYMMETRY		FALSE
SYM_IGNORE		TRUE
MEM_STATIC		2000
BASIS_LIN_DEP_THRESH 	6
THRESH 			14
SCF_CONVERGENCE 	8
SCF_PRINT_FRGM 		TRUE
SOLVENT_METHOD          SMD
$end

$SMX
SOLVENT			WATER
$END
--------------------------------------------------------------
 ----------------------------------------------------------------
             Standard Nuclear Orientation (Angstroms)
    I     Atom           X                Y                Z
 ----------------------------------------------------------------
    1      C      -0.7629399694     2.2067451536     1.4232543913
    2      C      -0.0979399694     2.2407451536     0.0442543913
    3      O       1.0520600306     1.7607451536    -0.0697456087
    4      O      -0.7119399694     2.7327451536    -0.9327456087
    5      H      -0.0799399694     2.6227451536     2.1672543913
    6      H      -0.9749399694     1.1717451536     1.7022543913
    7      H      -1.7010299694     2.7801451536     1.4579143913
    8      C      -1.2169399694    -1.8302548464    -0.1687456087
    9      C       0.2050600306    -2.2632548464    -0.1187456087
   10      O       1.0550600306    -1.3892548464     0.1622543913
   11      O       0.4790600306    -3.4622548464    -0.3477456087
   12      H      -1.2429399694    -0.7482548464    -0.3297456087
   13      H      -1.6769399694    -2.0342548464     0.7862543913
   14      H      -1.7711299694    -2.3248848464    -0.9800556087
 ----------------------------------------------------------------
 Nuclear Repulsion Energy =         337.01223605 hartrees
 There are       32 alpha and       32 beta electrons
 Requested basis set is def2-TZVPD
 There are 138 shells and 362 basis functions

 Total QAlloc Memory Limit  96000 MB
 Mega-Array Size      1956 MB
 MEM_STATIC part      2000 MB
 
 Citation of the SMD model:
 Marenich, A.V.; Cramer, C.J.; Truhlar, D.G.
 J. Phys. Chem. B 2009, 113, 6378-6396.
 iSolventCode=           1
 Solvent: water                                                           
 
 vradii
            1           2           3           4           5           6
    1   1.8500000   1.8500000   1.5200000   1.5200000   1.2000000   1.2000000
            7           8           9          10          11          12
    1   1.2000000   1.8500000   1.8500000   1.5200000   1.5200000   1.2000000
           13          14
    1   1.2000000   1.2000000
 Changing PCM_VDW_RADII to SMD_RADIUS
 Discretize the solute cavity surface with Lebedev spheres
	Using 110 Lebedev grid points for each H atom
	Using 194 Lebedev grid points for other atoms
	Atomic van der Waals radii will be scaled by 1.20
 Remove points where switching function is < 1.0e-08
 Keep 1289 surface tesserae and discard 923 interior tesserae
 Molecular Surface Area = 159.622 Angst**2

                       Distance Matrix (Angstroms)
             C (  1)   C (  2)   O (  3)   O (  4)   H (  5)   H (  6)
   C (  2)  1.531346
   O (  3)  2.392110  1.251358
   O (  4)  2.414542  1.254428  2.191175
   H (  5)  1.092282  2.157169  2.651158  3.165679
   H (  6)  1.092708  2.158901  2.756018  3.073941  1.767102
   H (  7)  1.100001  2.204378  3.309445  2.587625  1.776477  1.781533
   C (  8)  4.363250  4.227360  4.248934  4.653997  5.155470  3.545590
   C (  9)  4.826561  4.517122  4.112467  5.144269  5.401853  4.062963
   O ( 10)  4.222139  3.810542  3.158533  4.616514  4.626488  3.612647
   O ( 11)  6.067666  5.745503  5.261686  6.335513  6.607945  5.271676
   H ( 12)  3.469212  3.222580  3.410235  3.572524  4.353300  2.808424
   H ( 13)  4.384888  4.617297  4.752073  5.158534  5.113240  3.407388
   H ( 14)  5.227621  4.969281  5.048905  5.167566  6.102846  4.478295
             H (  7)   C (  8)   C (  9)   O ( 10)   O ( 11)   H ( 12)
   C (  8)  4.912856
   C (  9)  5.617377  1.487304
   O ( 10)  5.163203  2.337953  1.251134
   O ( 11)  6.854251  2.360483  1.251047  2.211155
   H ( 12)  3.981857  1.094222  2.106288  2.435929  3.214250
   H ( 13)  4.861086  1.079463  2.100807  2.875626  2.823734  1.757159
   H ( 14)  5.657733  1.100004  2.156613  3.188671  2.599381  1.785399
             H ( 13)
   H ( 14)  1.792537
 
 A cutoff of  1.0D-14 yielded   8618 shell pairs
 There are     59350 function pairs (     75667 Cartesian)
 Smallest overlap matrix eigenvalue = 8.14E-06

 Scale SEOQF with 1.000000e-01/1.000000e-01/1.000000e-01

 Standard Electronic Orientation quadrupole field applied
 Nucleus-field energy     =     0.0000000220 hartrees

 -----------------------------------------------------------------------
  General SCF calculation program by
  Eric Jon Sundstrom, Paul Horn, Yuezhi Mao, Dmitri Zuev, Alec White,
  David Stuck, Shaama M.S., Shane Yost, Joonho Lee, David Small,
  Daniel Levine, Susi Lehtola, Hugh Burton, Evgeny Epifanovsky
 -----------------------------------------------------------------------
================================================================
                 ALMO-EDA with the EDA2 driver                  
================================================================
 The second-generation ALMO-EDA (for DFT):                      
 P. R. Horn, Y. Mao and M. Head-Gordon, PCCP, 18, 23067 (2016)  
 Decomposition of the frozen energy:                            
 P. R. Horn, Y. Mao and M. Head-Gordon, JCP, 144, 114107 (2016) 
 FERF model for polarization:                                   
 P. R. Horn and M. Head-Gordon, JCP, 143, 114111 (2015)         
Using eda2 option set 1
Option set summary: Frozen orbital wavefunction, initial wavefunction decomposition, and nDQ polarization.
--------------------------------
Printing EDA Options
--------------------------------
eda_child_super_basis      0
fragmo_guess_mode          0
child_mp                   1
child_mp_orders            232
cls_elec                   1
cls_disp                   0
scfmi_mode                 1
scfmi_occs                 0
scfmi_virts                0
frz_relax                  0
frz_relax_method           0
dc_pen_start               0
dc_pen_conv                0
dc_pen_increment           0
dc_pen_steps               0
dc_pen_thresh_factor       0
dc_pen_pre_newton_thresh   0
frz_ortho_decomp           1
frz_ortho_decomp_conv      6
frgm_method                2
scfmi_freeze_ss            0
separate_rehyb             0
plot_diff_den              0
eda_nocv                   0
eda_vct_relax              1
disp_free_x                0
disp_free_c                0
eda_bsse                   0
eda_pct_a                  0
eda_covp                   0
--------------------------------
Attempting to make child job directory: /tmp/qchem28453//Frg1/
Attempting to make child job directory: /tmp/qchem28453//Frg2/
Creating input file /tmp/qchem28453/Frg1.input
using default PutDataFrgm: nothing
calling putenv with: QCSCRATCH=/tmp/qchem28453/ 
calling putenv with: QCLOCALSCR=/tmp/qchem28453/ 
Spawning Job For Fragment 0
                  Welcome to Q-Chem
     A Quantum Leap Into The Future Of Chemistry


 Q-Chem 5.2, Q-Chem, Inc., Pleasanton, CA (2019)

 License issued to: National Energy Research Scientific Computing Center

 Yihan Shao,  Zhengting Gan,  E. Epifanovsky,  A. T. B. Gilbert,  M. Wormit,  
 J. Kussmann,  A. W. Lange,  A. Behn,  Jia Deng,  Xintian Feng,  D. Ghosh,  
 M. Goldey,  P. R. Horn,  L. D. Jacobson,  I. Kaliman,  T. Kus,  A. Landau,  
 Jie Liu,  E. I. Proynov,  R. M. Richard,  R. P. Steele,  E. J. Sundstrom,  
 H. L. Woodcock III,  P. M. Zimmerman,  D. Zuev,  B. Albrecht,  E. Alguire,  
 S. A. Baeppler,  D. Barton,  Z. Benda,  Y. A. Bernard,  E. J. Berquist,  
 K. B. Bravaya,  H. Burton,  D. Casanova,  Chun-Min Chang,  Yunqing Chen,  
 A. Chien,  K. D. Closser,  M. P. Coons,  S. Coriani,  S. Dasgupta,  
 A. L. Dempwolff,  M. Diedenhofen,  Hainam Do,  R. G. Edgar,  Po-Tung Fang,  
 S. Faraji,  S. Fatehi,  Qingguo Feng,  K. D. Fenk,  J. Fosso-Tande,  
 J. Gayvert,  Qinghui Ge,  A. Ghysels,  G. Gidofalvi,  J. Gomes,  
 J. Gonthier,  A. Gunina,  D. Hait,  M. W. D. Hanson-Heine,  
 P. H. P. Harbach,  A. W. Hauser,  M. F. Herbst,  J. E. Herr,  
 E. G. Hohenstein,  Z. C. Holden,  Kerwin Hui,  B. C. Huynh,  T.-C. Jagau,  
 Hyunjun Ji,  B. Kaduk,  K. Khistyaev,  Jaehoon Kim,  P. Klunzinger,  K. Koh,  
 D. Kosenkov,  L. Koulias,  T. Kowalczyk,  C. M. Krauter,  A. Kunitsa,  
 Ka Un Lao,  A. Laurent,  K. V. Lawler,  Joonho Lee,  D. Lefrancois,  
 S. Lehtola,  D. S. Levine,  Yi-Pei Li,  You-Sheng Lin,  Fenglai Liu,  
 E. Livshits,  A. Luenser,  P. Manohar,  E. Mansoor,  S. F. Manzer,  
 Shan-Ping Mao,  Yuezhi Mao,  N. Mardirossian,  A. V. Marenich,  
 T. Markovich,  L. A. Martinez-Martinez,  S. A. Maurer,  N. J. Mayhall,  
 S. C. McKenzie,  J.-M. Mewes,  P. Morgante,  A. F. Morrison,  
 J. W. Mullinax,  K. Nanda,  T. S. Nguyen-Beck,  R. Olivares-Amaya,  
 J. A. Parkhill,  Zheng Pei,  T. M. Perrine,  F. Plasser,  P. Pokhilko,  
 S. Prager,  A. Prociuk,  E. Ramos,  D. R. Rehn,  F. Rob,  M. Scheurer,  
 M. Schneider,  N. Sergueev,  S. M. Sharada,  S. Sharma,  D. W. Small,  
 T. Stauch,  T. Stein,  Yu-Chuan Su,  A. J. W. Thom,  A. Tkatchenko,  
 T. Tsuchimochi,  N. M. Tubman,  L. Vogt,  M. L. Vidal,  O. Vydrov,  
 M. A. Watson,  J. Wenzel,  M. de Wergifosse,  T. A. Wesolowski,  A. White,  
 J. Witte,  A. Yamada,  Jun Yang,  K. Yao,  S. Yeganeh,  S. R. Yost,  
 Zhi-Qiang You,  A. Zech,  Igor Ying Zhang,  Xing Zhang,  Yan Zhao,  
 Ying Zhu,  B. R. Brooks,  G. K. L. Chan,  C. J. Cramer,  M. S. Gordon,  
 W. J. Hehre,  A. Klamt,  M. W. Schmidt,  C. D. Sherrill,  D. G. Truhlar,  
 A. Aspuru-Guzik,  R. Baer,  A. T. Bell,  N. A. Besley,  Jeng-Da Chai,  
 A. E. DePrince, III,  R. A. DiStasio Jr.,  A. Dreuw,  B. D. Dunietz,  
 T. R. Furlani,  Chao-Ping Hsu,  Yousung Jung,  Jing Kong,  D. S. Lambrecht,  
 WanZhen Liang,  C. Ochsenfeld,  V. A. Rassolov,  L. V. Slipchenko,  
 J. E. Subotnik,  T. Van Voorhis,  J. M. Herbert,  A. I. Krylov,  
 P. M. W. Gill,  M. Head-Gordon

 Contributors to earlier versions of Q-Chem not listed above: 
 R. D. Adamson,  B. Austin,  J. Baker,  G. J. O. Beran,  K. Brandhorst,  
 S. T. Brown,  E. F. C. Byrd,  A. K. Chakraborty,  C.-L. Cheng,  
 Siu Hung Chien,  D. M. Chipman,  D. L. Crittenden,  H. Dachsel,  
 R. J. Doerksen,  A. D. Dutoi,  L. Fusti-Molnar,  W. A. Goddard III,  
 A. Golubeva-Zadorozhnaya,  S. R. Gwaltney,  G. Hawkins,  A. Heyden,  
 S. Hirata,  G. Kedziora,  F. J. Keil,  C. Kelley,  Jihan Kim,  R. A. King,  
 R. Z. Khaliullin,  P. P. Korambath,  W. Kurlancheek,  A. M. Lee,  M. S. Lee,  
 S. V. Levchenko,  Ching Yeh Lin,  D. Liotard,  R. C. Lochan,  I. Lotan,  
 P. E. Maslen,  N. Nair,  D. P. O'Neill,  D. Neuhauser,  E. Neuscamman,  
 C. M. Oana,  R. Olson,  B. Peters,  R. Peverati,  P. A. Pieniazek,  
 Y. M. Rhee,  J. Ritchie,  M. A. Rohrdanz,  E. Rosta,  N. J. Russ,  
 H. F. Schaefer III,  N. E. Schultz,  N. Shenvi,  A. C. Simmonett,  A. Sodt,  
 D. Stuck,  K. S. Thanthiriwatte,  V. Vanovschi,  Tao Wang,  A. Warshel,  
 C. F. Williams,  Q. Wu,  X. Xu,  W. Zhang

 Please cite Q-Chem as follows:
 Y. Shao et al., Mol. Phys. 113, 184-215 (2015)
 DOI: 10.1080/00268976.2014.952696

 Q-Chem 5.2.0 for Intel X86 EM64T Linux

 Parts of Q-Chem use Armadillo 8.300.2 (Tropical Shenanigans).
 http://arma.sourceforge.net/

 Q-Chem begins on Sun Sep 26 04:47:50 2021  

Host: cori01
0

     Scratch files written to /tmp/qchem28453//Frg1//
 May1019 |scratch|qcdevops|jenkins|workspace|build_RNUM -1
Processing $rem in /global/common/cori/software/qchem/5.2/config/preferences:
	 MEM_TOTAL  96000 
NAlpha2: 32
NElect   32
Mult     1
Symmetry turned off for PCM/SM12/SMD calculation

Checking the input file for inconsistencies... 	...done.

--------------------------------------------------------------
User input:
--------------------------------------------------------------
$molecule
-1 1
 6	-0.7629399694	2.2067451536	1.4232543913
 6	-0.0979399694	2.2407451536	0.0442543913
 8	1.0520600306	1.7607451536	-0.0697456087
 8	-0.7119399694	2.7327451536	-0.9327456087
 1	-0.0799399694	2.6227451536	2.1672543913
 1	-0.9749399694	1.1717451536	1.7022543913
 1	-1.7010299694	2.7801451536	1.4579143913
$end
$rem
EDA2		1
METHOD		WB97X-V
BASIS		DEF2-TZVPD
XC_GRID		000099000590
NL_GRID		1
UNRESTRICTED		FALSE
MAX_SCF_CYCLES		200
SYMMETRY		FALSE
SYM_IGNORE		TRUE
BASIS_LIN_DEP_THRESH		6
THRESH		14
SCF_CONVERGENCE		8
SCF_PRINT_FRGM		TRUE
SOLVENT_METHOD		SMD
!required keywords
JOBTYPE		SP
SYM_IGNORE		TRUE
SUBSYSTEM		TRUE
GEN_SCFMAN		TRUE
CHILD_INSTRUCTION		2
SYM_IGNORE		TRUE
SCFMI		0
RI_K 0		
PARI_K 0		
MIN_PARI_K 0		
IARI_K 0		
OCC_RI_K 0		
PURECART		1111
MEM_STATIC		2000
MEM_TOTAL		96000
GUI		0
CHILD_MP		1
CHILD_MP_ORDERS		232
FRZ_RELAX		0
FRZ_RELAX_METHOD		0
EDA_CLS_ELEC		1
EDA_CLS_DISP		0
FRZ_ORTHO_DECOMP		1
EDA2		FALSE
FRGM_METHOD		FALSE
CIS_N_ROOTS  0
LOCAL_CIS    0
CIS_RLX_DNS  1
$end
$smx
SOLVENT			WATER
$end
--------------------------------------------------------------
 ----------------------------------------------------------------
             Standard Nuclear Orientation (Angstroms)
    I     Atom           X                Y                Z
 ----------------------------------------------------------------
    1      C      -0.7629399694     2.2067451536     1.4232543913
    2      C      -0.0979399694     2.2407451536     0.0442543913
    3      O       1.0520600306     1.7607451536    -0.0697456087
    4      O      -0.7119399694     2.7327451536    -0.9327456087
    5      H      -0.0799399694     2.6227451536     2.1672543913
    6      H      -0.9749399694     1.1717451536     1.7022543913
    7      H      -1.7010299694     2.7801451536     1.4579143913
 ----------------------------------------------------------------
 Nuclear Repulsion Energy =         112.32058808 hartrees
 There are       16 alpha and       16 beta electrons
 Requested basis set is def2-TZVPD
 There are 69 shells and 181 basis functions

 Total QAlloc Memory Limit  96000 MB
 Mega-Array Size      1956 MB
 MEM_STATIC part      2000 MB
 
 Citation of the SMD model:
 Marenich, A.V.; Cramer, C.J.; Truhlar, D.G.
 J. Phys. Chem. B 2009, 113, 6378-6396.
 iSolventCode=           1
 Solvent: water                                                           
 
 vradii
            1           2           3           4           5           6
    1   1.8500000   1.8500000   1.5200000   1.5200000   1.2000000   1.2000000
            7
    1   1.2000000
 Changing PCM_VDW_RADII to SMD_RADIUS
 Discretize the solute cavity surface with Lebedev spheres
	Using 110 Lebedev grid points for each H atom
	Using 194 Lebedev grid points for other atoms
	Atomic van der Waals radii will be scaled by 1.20
 Remove points where switching function is < 1.0e-08
 Keep 649 surface tesserae and discard 457 interior tesserae
 Molecular Surface Area = 80.171 Angst**2

                       Distance Matrix (Angstroms)
             C (  1)   C (  2)   O (  3)   O (  4)   H (  5)   H (  6)
   C (  2)  1.531346
   O (  3)  2.392110  1.251358
   O (  4)  2.414542  1.254428  2.191175
   H (  5)  1.092282  2.157169  2.651158  3.165679
   H (  6)  1.092708  2.158901  2.756018  3.073941  1.767102
   H (  7)  1.100001  2.204378  3.309445  2.587625  1.776477  1.781533

 
 A cutoff of  1.0D-14 yielded   2390 shell pairs
 There are     16694 function pairs (     21490 Cartesian)
 Smallest overlap matrix eigenvalue = 1.70E-05

 Scale SEOQF with 1.000000e-01/1.000000e-01/1.000000e-01

 Standard Electronic Orientation quadrupole field applied
 Nucleus-field energy     =     0.0000000090 hartrees
 Guess from superposition of atomic densities
 Warning:  Energy on first SCF cycle will be non-variational
 SAD guess density has 30.625312 electrons

 -----------------------------------------------------------------------
  General SCF calculation program by
  Eric Jon Sundstrom, Paul Horn, Yuezhi Mao, Dmitri Zuev, Alec White,
  David Stuck, Shaama M.S., Shane Yost, Joonho Lee, David Small,
  Daniel Levine, Susi Lehtola, Hugh Burton, Evgeny Epifanovsky
 -----------------------------------------------------------------------
 Exchange:     0.1670 Hartree-Fock + 1.0000 wB97X-V + LR-HF
 Correlation:  1.0000 wB97X-V
 Using Euler-Maclaurin-Lebedev (99,590) quadrature formula
 Nonlocal Correlation:  VV10 with C = 0.0100 and b = 6.00 and scale = 1.00000
 Grid used for NLC:  SG-1 standard quadrature
Energy prior to optimization (guess energy) = -227.759114394407
Begin Timing: Total SCF Calculation
begin iterations for algorithm: DIIS         
the SCF tolerance is set to 1.00e-08
    1    -227.7591143944      1.66e-02     00000 
    2    -225.6068626352      2.51e-02     00000 
    3    -228.6062656127      4.08e-03     00000 
    4    -228.6590377858      1.43e-03     00000 
    5    -228.6652314888      3.57e-04     00000 
    6    -228.6655739476      2.34e-04     00000 
    7    -228.6657246164      4.77e-05     00000 
    8    -228.6657342127      1.36e-05     00000 
    9    -228.6657353862      4.01e-06     00000 
   10    -228.6657355061      1.15e-06     00000 
   11    -228.6657355176      2.35e-07     00000 
   12    -228.6657355180      5.19e-08     00000 
   13    -228.6657355181      1.34e-08     00000 
   14    -228.6657355181      3.46e-09     00000 Convergence criterion met
Timing for Total SCF: 319.00s (wall), 624.92s (cpu)
(3)  G-ENP(liq) elect-nuc-pol free energy of system     -228.665735518 a.u.
(4)  G-CDS(liq) cavity-dispersion-solvent structure 
     free energy                                                3.9062 kcal/mol
(6)  G-S(liq) free energy of system                     -228.659510630 a.u.
E_pcm = -0.1315384350
E_cds = 0.0062248882
Multipole orders to be included
        2
        3
computing dipole RHS
computing quadrupole RHS
total number of RHS in solve_reponses: 8
RHS batch sizes
        8
Beginning Block Conjugate Gradient Iterations. Batch Number: 0
computing hessian-vector products by finite difference
              1      6.99e-01     00000 Conjugate Gradient Iteration
computing hessian-vector products by finite difference
              2      2.19e-01     00000 Conjugate Gradient Iteration
computing hessian-vector products by finite difference
              3      5.97e-02     00000 Conjugate Gradient Iteration
computing hessian-vector products by finite difference
              4      1.58e-02     00000 Conjugate Gradient Iteration
computing hessian-vector products by finite difference
              5      2.34e-03     00000 Conjugate Gradient Iteration
computing hessian-vector products by finite difference
              6      6.10e-04     00000 Conjugate Gradient Iteration
computing hessian-vector products by finite difference
              7      8.83e-05     00000 Conjugate Gradient Iteration
computing hessian-vector products by finite difference
              8      1.09e-05     00000 Conjugate Gradient Iteration
computing hessian-vector products by finite difference
              9      1.63e-06     00000 Conjugate Gradient Iteration
computing hessian-vector products by finite difference
             10      1.59e-07     00000 Conjugate Gradient Iteration
computing hessian-vector products by finite difference
             11      2.28e-08     00000 Conjugate Gradient Iteration
computing hessian-vector products by finite difference
             12      5.32e-09     00000 CG Converged
batch 0 complete
Done Calculating Responses
TESTING ORTHOGONALIZATION OF MULTIPOLE BASIS
Multipole virts passed orthogonality test
Virts Per Order
        48
        80
 
 --------------------------------------------------------------
 
                    Orbital Energies (a.u.)
 --------------------------------------------------------------
 
 Alpha MOs
 -- Occupied --
-19.1536 -19.1527 -10.3558 -10.2487  -1.1653  -1.0639  -0.8393  -0.6182
 -0.5467  -0.5461  -0.5406  -0.4814  -0.4637  -0.3651  -0.3591  -0.3442
 -- Virtual --
  0.0670   0.0999   0.1005   0.1074   0.1351   0.1443   0.1457   0.1499
  0.1560   0.1901   0.2023   0.2261   0.2328   0.2378   0.2605   0.2646
  0.2979   0.3149   0.3331   0.3465   0.3520   0.3611   0.3696   0.3841
  0.3872   0.3962   0.4159   0.4244   0.4274   0.4543   0.4671   0.4729
  0.4829   0.4896   0.5049   0.5092   0.5466   0.5596   0.5803   0.6004
  0.6111   0.6232   0.6256   0.6460   0.6562   0.6640   0.6795   0.6961
  0.7054   0.7237   0.7686   0.7900   0.8059   0.8098   0.8333   0.8439
  0.8594   0.9562   0.9688   0.9814   0.9844   1.0331   1.0380   1.1052
  1.1513   1.1844   1.2412   1.2626   1.2739   1.3006   1.3279   1.3405
  1.4371   1.5493   1.5821   1.7342   1.8014   1.8415   1.8539   1.8988
  1.9047   1.9349   1.9466   1.9580   2.0071   2.0895   2.1131   2.1505
  2.1898   2.2000   2.3006   2.3172   2.3937   2.4231   2.4562   2.4775
  2.5601   2.5796   2.6078   2.6536   2.7709   2.8046   2.8690   2.9176
  2.9359   2.9760   3.0072   3.1595   3.1861   3.2337   3.2607   3.2969
  3.3260   3.3333   3.3800   3.3913   3.4094   3.5195   3.5390   3.5543
  3.5898   3.6319   3.6724   3.7162   3.7460   3.8608   3.9293   4.0222
  4.0647   4.1715   4.3303   4.5376   4.5996   4.6450   4.7800   4.8049
  4.9758   5.2969   5.3224   5.3325   5.3383   5.4582   5.6735   5.7456
  5.7839   5.9938   6.1935   6.3106   6.3217   6.5778   6.5955   6.6942
  6.7089   6.7255   6.9143   6.9473   7.0040   7.2164   7.3029   7.3554
  7.3787  22.5745  23.6903  44.1897  44.3115
 --------------------------------------------------------------
 
          Ground-State Mulliken Net Atomic Charges

     Atom                 Charge (a.u.)
  ----------------------------------------
      1 C                    -0.594982
      2 C                     0.507866
      3 O                    -0.775021
      4 O                    -0.771194
      5 H                     0.212982
      6 H                     0.203136
      7 H                     0.217212
  ----------------------------------------
  Sum of atomic charges =    -1.000000

 -----------------------------------------------------------------
                    Cartesian Multipole Moments
 -----------------------------------------------------------------
    Charge (ESU x 10^10)
                -4.8032
    Dipole Moment (Debye)
         X      -1.8247      Y     -10.8577      Z       4.5515
       Tot      11.9137
    Quadrupole Moments (Debye-Ang)
        XX     -32.5231     XY      -0.0934     YY     -51.6753
        XZ      -2.6337     YZ      12.1078     ZZ     -29.1039
    Octopole Moments (Debye-Ang^2)
       XXX       8.9479    XXY     -71.2258    XYY      12.1141
       YYY    -238.1002    XXZ      -1.9151    XYZ      -6.9664
       YYZ      28.2250    XZZ       6.1906    YZZ     -66.4834
       ZZZ      -9.3141
    Hexadecapole Moments (Debye-Ang^3)
      XXXX    -137.1441   XXXY      39.2527   XXYY    -187.7571
      XYYY      81.9971   YYYY    -998.2653   XXXZ      12.2830
      XXYZ       0.7562   XYYZ     -14.6572   YYYZ      67.9559
      XXZZ     -52.8985   XYZZ      21.8261   YYZZ    -189.3496
      XZZZ      15.2591   YZZZ      -8.2870   ZZZZ    -177.3753
 -----------------------------------------------------------------
Archival summary:
1\1\nid00526\SP\ProcedureUnspecified\BasisUnspecified\223(1-,1)\meili\SunSep2606:20:002021SunSep2606:20:002021\0\\#,ProcedureUnspecified,BasisUnspecified,\\-1,1\C\O,1,1.25136\O,1,1.25443,2,121.959\C,1,1.53135,2,118.204,3,179.493,0\H,4,1.09228,1,109.474,2,50.8944,0\H,4,1.09271,1,109.585,2,-67.3168,0\H,4,1.1,1,112.777,2,171.482,0\\\@

 Total job time:  5530.10s(wall), 10835.55s(cpu) 
 Sun Sep 26 06:20:00 2021

        *************************************************************
        *                                                           *
        *  Thank you very much for using Q-Chem.  Have a nice day.  *
        *                                                           *
        *************************************************************


Done Job For Fragment 0
calling putenv with: QCSCRATCH=/global/cscratch1/sd/meili 
calling putenv with: QCLOCALSCR=/tmp 
calling putenv with: QCTHREADS=32 
Creating input file /tmp/qchem28453/Frg2.input
using default PutDataFrgm: nothing
calling putenv with: QCSCRATCH=/tmp/qchem28453/ 
calling putenv with: QCLOCALSCR=/tmp/qchem28453/ 
Spawning Job For Fragment 1
                  Welcome to Q-Chem
     A Quantum Leap Into The Future Of Chemistry


 Q-Chem 5.2, Q-Chem, Inc., Pleasanton, CA (2019)

 License issued to: National Energy Research Scientific Computing Center

 Yihan Shao,  Zhengting Gan,  E. Epifanovsky,  A. T. B. Gilbert,  M. Wormit,  
 J. Kussmann,  A. W. Lange,  A. Behn,  Jia Deng,  Xintian Feng,  D. Ghosh,  
 M. Goldey,  P. R. Horn,  L. D. Jacobson,  I. Kaliman,  T. Kus,  A. Landau,  
 Jie Liu,  E. I. Proynov,  R. M. Richard,  R. P. Steele,  E. J. Sundstrom,  
 H. L. Woodcock III,  P. M. Zimmerman,  D. Zuev,  B. Albrecht,  E. Alguire,  
 S. A. Baeppler,  D. Barton,  Z. Benda,  Y. A. Bernard,  E. J. Berquist,  
 K. B. Bravaya,  H. Burton,  D. Casanova,  Chun-Min Chang,  Yunqing Chen,  
 A. Chien,  K. D. Closser,  M. P. Coons,  S. Coriani,  S. Dasgupta,  
 A. L. Dempwolff,  M. Diedenhofen,  Hainam Do,  R. G. Edgar,  Po-Tung Fang,  
 S. Faraji,  S. Fatehi,  Qingguo Feng,  K. D. Fenk,  J. Fosso-Tande,  
 J. Gayvert,  Qinghui Ge,  A. Ghysels,  G. Gidofalvi,  J. Gomes,  
 J. Gonthier,  A. Gunina,  D. Hait,  M. W. D. Hanson-Heine,  
 P. H. P. Harbach,  A. W. Hauser,  M. F. Herbst,  J. E. Herr,  
 E. G. Hohenstein,  Z. C. Holden,  Kerwin Hui,  B. C. Huynh,  T.-C. Jagau,  
 Hyunjun Ji,  B. Kaduk,  K. Khistyaev,  Jaehoon Kim,  P. Klunzinger,  K. Koh,  
 D. Kosenkov,  L. Koulias,  T. Kowalczyk,  C. M. Krauter,  A. Kunitsa,  
 Ka Un Lao,  A. Laurent,  K. V. Lawler,  Joonho Lee,  D. Lefrancois,  
 S. Lehtola,  D. S. Levine,  Yi-Pei Li,  You-Sheng Lin,  Fenglai Liu,  
 E. Livshits,  A. Luenser,  P. Manohar,  E. Mansoor,  S. F. Manzer,  
 Shan-Ping Mao,  Yuezhi Mao,  N. Mardirossian,  A. V. Marenich,  
 T. Markovich,  L. A. Martinez-Martinez,  S. A. Maurer,  N. J. Mayhall,  
 S. C. McKenzie,  J.-M. Mewes,  P. Morgante,  A. F. Morrison,  
 J. W. Mullinax,  K. Nanda,  T. S. Nguyen-Beck,  R. Olivares-Amaya,  
 J. A. Parkhill,  Zheng Pei,  T. M. Perrine,  F. Plasser,  P. Pokhilko,  
 S. Prager,  A. Prociuk,  E. Ramos,  D. R. Rehn,  F. Rob,  M. Scheurer,  
 M. Schneider,  N. Sergueev,  S. M. Sharada,  S. Sharma,  D. W. Small,  
 T. Stauch,  T. Stein,  Yu-Chuan Su,  A. J. W. Thom,  A. Tkatchenko,  
 T. Tsuchimochi,  N. M. Tubman,  L. Vogt,  M. L. Vidal,  O. Vydrov,  
 M. A. Watson,  J. Wenzel,  M. de Wergifosse,  T. A. Wesolowski,  A. White,  
 J. Witte,  A. Yamada,  Jun Yang,  K. Yao,  S. Yeganeh,  S. R. Yost,  
 Zhi-Qiang You,  A. Zech,  Igor Ying Zhang,  Xing Zhang,  Yan Zhao,  
 Ying Zhu,  B. R. Brooks,  G. K. L. Chan,  C. J. Cramer,  M. S. Gordon,  
 W. J. Hehre,  A. Klamt,  M. W. Schmidt,  C. D. Sherrill,  D. G. Truhlar,  
 A. Aspuru-Guzik,  R. Baer,  A. T. Bell,  N. A. Besley,  Jeng-Da Chai,  
 A. E. DePrince, III,  R. A. DiStasio Jr.,  A. Dreuw,  B. D. Dunietz,  
 T. R. Furlani,  Chao-Ping Hsu,  Yousung Jung,  Jing Kong,  D. S. Lambrecht,  
 WanZhen Liang,  C. Ochsenfeld,  V. A. Rassolov,  L. V. Slipchenko,  
 J. E. Subotnik,  T. Van Voorhis,  J. M. Herbert,  A. I. Krylov,  
 P. M. W. Gill,  M. Head-Gordon

 Contributors to earlier versions of Q-Chem not listed above: 
 R. D. Adamson,  B. Austin,  J. Baker,  G. J. O. Beran,  K. Brandhorst,  
 S. T. Brown,  E. F. C. Byrd,  A. K. Chakraborty,  C.-L. Cheng,  
 Siu Hung Chien,  D. M. Chipman,  D. L. Crittenden,  H. Dachsel,  
 R. J. Doerksen,  A. D. Dutoi,  L. Fusti-Molnar,  W. A. Goddard III,  
 A. Golubeva-Zadorozhnaya,  S. R. Gwaltney,  G. Hawkins,  A. Heyden,  
 S. Hirata,  G. Kedziora,  F. J. Keil,  C. Kelley,  Jihan Kim,  R. A. King,  
 R. Z. Khaliullin,  P. P. Korambath,  W. Kurlancheek,  A. M. Lee,  M. S. Lee,  
 S. V. Levchenko,  Ching Yeh Lin,  D. Liotard,  R. C. Lochan,  I. Lotan,  
 P. E. Maslen,  N. Nair,  D. P. O'Neill,  D. Neuhauser,  E. Neuscamman,  
 C. M. Oana,  R. Olson,  B. Peters,  R. Peverati,  P. A. Pieniazek,  
 Y. M. Rhee,  J. Ritchie,  M. A. Rohrdanz,  E. Rosta,  N. J. Russ,  
 H. F. Schaefer III,  N. E. Schultz,  N. Shenvi,  A. C. Simmonett,  A. Sodt,  
 D. Stuck,  K. S. Thanthiriwatte,  V. Vanovschi,  Tao Wang,  A. Warshel,  
 C. F. Williams,  Q. Wu,  X. Xu,  W. Zhang

 Please cite Q-Chem as follows:
 Y. Shao et al., Mol. Phys. 113, 184-215 (2015)
 DOI: 10.1080/00268976.2014.952696

 Q-Chem 5.2.0 for Intel X86 EM64T Linux

 Parts of Q-Chem use Armadillo 8.300.2 (Tropical Shenanigans).
 http://arma.sourceforge.net/

 Q-Chem begins on Sun Sep 26 06:20:02 2021  

Host: cori01
0

     Scratch files written to /tmp/qchem28453//Frg2//
 May1019 |scratch|qcdevops|jenkins|workspace|build_RNUM -1
Processing $rem in /global/common/cori/software/qchem/5.2/config/preferences:
	 MEM_TOTAL  96000 
NAlpha2: 32
NElect   32
Mult     1
Symmetry turned off for PCM/SM12/SMD calculation

Checking the input file for inconsistencies... 	...done.

--------------------------------------------------------------
User input:
--------------------------------------------------------------
$molecule
-1 1
 6	-1.2169399694	-1.8302548464	-0.1687456087
 6	0.2050600306	-2.2632548464	-0.1187456087
 8	1.0550600306	-1.3892548464	0.1622543913
 8	0.4790600306	-3.4622548464	-0.3477456087
 1	-1.2429399694	-0.7482548464	-0.3297456087
 1	-1.6769399694	-2.0342548464	0.7862543913
 1	-1.7711299694	-2.3248848464	-0.9800556087
$end
$rem
EDA2		1
METHOD		WB97X-V
BASIS		DEF2-TZVPD
XC_GRID		000099000590
NL_GRID		1
UNRESTRICTED		FALSE
MAX_SCF_CYCLES		200
SYMMETRY		FALSE
SYM_IGNORE		TRUE
BASIS_LIN_DEP_THRESH		6
THRESH		14
SCF_CONVERGENCE		8
SCF_PRINT_FRGM		TRUE
SOLVENT_METHOD		SMD
!required keywords
JOBTYPE		SP
SYM_IGNORE		TRUE
SUBSYSTEM		TRUE
GEN_SCFMAN		TRUE
CHILD_INSTRUCTION		2
SYM_IGNORE		TRUE
SCFMI		0
RI_K 0		
PARI_K 0		
MIN_PARI_K 0		
IARI_K 0		
OCC_RI_K 0		
PURECART		1111
MEM_STATIC		2000
MEM_TOTAL		96000
GUI		0
CHILD_MP		1
CHILD_MP_ORDERS		232
FRZ_RELAX		0
FRZ_RELAX_METHOD		0
EDA_CLS_ELEC		1
EDA_CLS_DISP		0
FRZ_ORTHO_DECOMP		1
EDA2		FALSE
FRGM_METHOD		FALSE
CIS_N_ROOTS  0
LOCAL_CIS    0
CIS_RLX_DNS  1
$end
$smx
SOLVENT			WATER
$end
--------------------------------------------------------------
 ----------------------------------------------------------------
             Standard Nuclear Orientation (Angstroms)
    I     Atom           X                Y                Z
 ----------------------------------------------------------------
    1      C      -1.2169399694    -1.8302548464    -0.1687456087
    2      C       0.2050600306    -2.2632548464    -0.1187456087
    3      O       1.0550600306    -1.3892548464     0.1622543913
    4      O       0.4790600306    -3.4622548464    -0.3477456087
    5      H      -1.2429399694    -0.7482548464    -0.3297456087
    6      H      -1.6769399694    -2.0342548464     0.7862543913
    7      H      -1.7711299694    -2.3248848464    -0.9800556087
 ----------------------------------------------------------------
 Nuclear Repulsion Energy =         113.45161947 hartrees
 There are       16 alpha and       16 beta electrons
 Requested basis set is def2-TZVPD
 There are 69 shells and 181 basis functions

 Total QAlloc Memory Limit  96000 MB
 Mega-Array Size      1956 MB
 MEM_STATIC part      2000 MB
 
 Citation of the SMD model:
 Marenich, A.V.; Cramer, C.J.; Truhlar, D.G.
 J. Phys. Chem. B 2009, 113, 6378-6396.
 iSolventCode=           1
 Solvent: water                                                           
 
 vradii
            1           2           3           4           5           6
    1   1.8500000   1.8500000   1.5200000   1.5200000   1.2000000   1.2000000
            7
    1   1.2000000
 Changing PCM_VDW_RADII to SMD_RADIUS
 Discretize the solute cavity surface with Lebedev spheres
	Using 110 Lebedev grid points for each H atom
	Using 194 Lebedev grid points for other atoms
	Atomic van der Waals radii will be scaled by 1.20
 Remove points where switching function is < 1.0e-08
 Keep 640 surface tesserae and discard 466 interior tesserae
 Molecular Surface Area = 79.466 Angst**2

                       Distance Matrix (Angstroms)
             C (  1)   C (  2)   O (  3)   O (  4)   H (  5)   H (  6)
   C (  2)  1.487304
   O (  3)  2.337953  1.251134
   O (  4)  2.360483  1.251047  2.211155
   H (  5)  1.094222  2.106288  2.435929  3.214250
   H (  6)  1.079463  2.100807  2.875626  2.823734  1.757159
   H (  7)  1.100004  2.156613  3.188671  2.599381  1.785399  1.792537

 
 A cutoff of  1.0D-14 yielded   2392 shell pairs
 There are     16696 function pairs (     21492 Cartesian)
 Smallest overlap matrix eigenvalue = 1.50E-05

 Scale SEOQF with 1.000000e-01/1.000000e-01/1.000000e-01

 Standard Electronic Orientation quadrupole field applied
 Nucleus-field energy     =     0.0000000129 hartrees
 Guess from superposition of atomic densities
 Warning:  Energy on first SCF cycle will be non-variational
 SAD guess density has 30.625312 electrons

 -----------------------------------------------------------------------
  General SCF calculation program by
  Eric Jon Sundstrom, Paul Horn, Yuezhi Mao, Dmitri Zuev, Alec White,
  David Stuck, Shaama M.S., Shane Yost, Joonho Lee, David Small,
  Daniel Levine, Susi Lehtola, Hugh Burton, Evgeny Epifanovsky
 -----------------------------------------------------------------------
 Exchange:     0.1670 Hartree-Fock + 1.0000 wB97X-V + LR-HF
 Correlation:  1.0000 wB97X-V
 Using Euler-Maclaurin-Lebedev (99,590) quadrature formula
 Nonlocal Correlation:  VV10 with C = 0.0100 and b = 6.00 and scale = 1.00000
 Grid used for NLC:  SG-1 standard quadrature
Energy prior to optimization (guess energy) = -227.764500570625
Begin Timing: Total SCF Calculation
begin iterations for algorithm: DIIS         
the SCF tolerance is set to 1.00e-08
    1    -227.7645005706      1.66e-02     00000 
    2    -225.6279869033      2.49e-02     00000 
    3    -228.6057828987      4.07e-03     00000 
    4    -228.6586215999      1.37e-03     00000 
    5    -228.6644120616      2.61e-04     00000 
    6    -228.6646541975      1.82e-04     00000 
    7    -228.6647409562      5.09e-05     00000 
    8    -228.6647506456      1.27e-05     00000 
    9    -228.6647516738      3.25e-06     00000 
   10    -228.6647517635      9.15e-07     00000 
   11    -228.6647517693      2.11e-07     00000 
   12    -228.6647517697      4.54e-08     00000 
   13    -228.6647517697      1.01e-08     00000 
   14    -228.6647517697      2.42e-09     00000 Convergence criterion met
Timing for Total SCF: 322.00s (wall), 633.35s (cpu)
(3)  G-ENP(liq) elect-nuc-pol free energy of system     -228.664751770 a.u.
(4)  G-CDS(liq) cavity-dispersion-solvent structure 
     free energy                                                3.8646 kcal/mol
(6)  G-S(liq) free energy of system                     -228.658593104 a.u.
E_pcm = -0.1306137190
E_cds = 0.0061586661
Multipole orders to be included
        2
        3
computing dipole RHS
computing quadrupole RHS
total number of RHS in solve_reponses: 8
RHS batch sizes
        8
Beginning Block Conjugate Gradient Iterations. Batch Number: 0
computing hessian-vector products by finite difference
              1      7.54e-01     00000 Conjugate Gradient Iteration
computing hessian-vector products by finite difference
              2      2.37e-01     00000 Conjugate Gradient Iteration
computing hessian-vector products by finite difference
              3      6.48e-02     00000 Conjugate Gradient Iteration
computing hessian-vector products by finite difference
              4      1.73e-02     00000 Conjugate Gradient Iteration
computing hessian-vector products by finite difference
              5      2.59e-03     00000 Conjugate Gradient Iteration
computing hessian-vector products by finite difference
              6      6.92e-04     00000 Conjugate Gradient Iteration
computing hessian-vector products by finite difference
              7      9.89e-05     00000 Conjugate Gradient Iteration
computing hessian-vector products by finite difference
              8      1.23e-05     00000 Conjugate Gradient Iteration
computing hessian-vector products by finite difference
              9      1.91e-06     00000 Conjugate Gradient Iteration
computing hessian-vector products by finite difference
             10      1.87e-07     00000 Conjugate Gradient Iteration
computing hessian-vector products by finite difference
             11      2.45e-08     00000 Conjugate Gradient Iteration
computing hessian-vector products by finite difference
             12      4.03e-09     00000 CG Converged
batch 0 complete
Done Calculating Responses
TESTING ORTHOGONALIZATION OF MULTIPOLE BASIS
Multipole virts passed orthogonality test
Virts Per Order
        48
        80
 
 --------------------------------------------------------------
 
                    Orbital Energies (a.u.)
 --------------------------------------------------------------
 
 Alpha MOs
 -- Occupied --
-19.1527 -19.1519 -10.3506 -10.2419  -1.1652  -1.0669  -0.8453  -0.6173
 -0.5523  -0.5468  -0.5430  -0.4798  -0.4623  -0.3659  -0.3568  -0.3449
 -- Virtual --
  0.0670   0.1001   0.1013   0.1068   0.1358   0.1446   0.1461   0.1509
  0.1563   0.1905   0.2056   0.2218   0.2377   0.2405   0.2575   0.2682
  0.2998   0.3144   0.3334   0.3470   0.3559   0.3640   0.3750   0.3797
  0.3870   0.4108   0.4168   0.4239   0.4344   0.4568   0.4666   0.4728
  0.4867   0.4901   0.5034   0.5095   0.5478   0.5683   0.5759   0.6000
  0.6172   0.6290   0.6325   0.6455   0.6489   0.6792   0.6855   0.6938
  0.7115   0.7223   0.7799   0.7968   0.8020   0.8120   0.8331   0.8495
  0.8620   0.9548   0.9783   0.9854   0.9958   1.0237   1.0544   1.0849
  1.1413   1.2263   1.2469   1.2571   1.2614   1.3045   1.3436   1.3726
  1.4249   1.5401   1.5884   1.7382   1.8086   1.8560   1.8573   1.8920
  1.9249   1.9359   1.9534   1.9633   2.0025   2.1037   2.1134   2.1856
  2.1935   2.2151   2.3022   2.3325   2.4130   2.4403   2.4517   2.4708
  2.5554   2.5840   2.6228   2.6408   2.7968   2.8168   2.8544   2.8920
  2.9427   3.0048   3.0679   3.1412   3.2182   3.2329   3.2685   3.2725
  3.3302   3.3540   3.3805   3.3980   3.4090   3.5346   3.5664   3.5885
  3.5961   3.6439   3.6933   3.7359   3.7495   3.8523   3.9715   4.0788
  4.1083   4.2065   4.3528   4.5665   4.6430   4.6841   4.7827   4.8147
  4.9729   5.2967   5.3273   5.3346   5.3469   5.4843   5.6967   5.7254
  5.7888   5.9962   6.2335   6.3050   6.3300   6.6018   6.6056   6.6759
  6.7196   6.7293   6.9412   6.9444   7.0206   7.2102   7.3487   7.3562
  7.3882  22.6222  23.7508  44.1886  44.3493
 --------------------------------------------------------------
 
          Ground-State Mulliken Net Atomic Charges

     Atom                 Charge (a.u.)
  ----------------------------------------
      1 C                    -0.572876
      2 C                     0.490298
      3 O                    -0.772967
      4 O                    -0.778113
      5 H                     0.205676
      6 H                     0.196926
      7 H                     0.231056
  ----------------------------------------
  Sum of atomic charges =    -1.000000

 -----------------------------------------------------------------
                    Cartesian Multipole Moments
 -----------------------------------------------------------------
    Charge (ESU x 10^10)
                -4.8032
    Dipole Moment (Debye)
         X      -5.8993      Y      12.3185      Z       0.4026
       Tot      13.6642
    Quadrupole Moments (Debye-Ang)
        XX     -31.3667     XY      11.9075     YY     -66.2776
        XZ      -0.2553     YZ      -3.4206     ZZ     -25.4541
    Octopole Moments (Debye-Ang^2)
       XXX     -11.5325    XXY      67.0136    XYY     -31.4465
       YYY     317.6894    XXZ       2.6526    XYZ      -0.9597
       YYZ      17.7696    XZZ      -2.8405    YZZ      56.5511
       ZZZ       9.4527
    Hexadecapole Moments (Debye-Ang^3)
      XXXX    -178.1395   XXXY      31.1015   XXYY    -198.7607
      XYYY     104.0762   YYYY   -1430.4936   XXXZ      -5.6739
      XXYZ      -9.8754   XYYZ       4.6696   YYYZ     -86.5197
      XXZZ     -32.9151   XYZZ       9.1834   YYZZ    -156.5893
      XZZZ      -5.2828   YZZZ     -31.5421   ZZZZ     -40.4803
 -----------------------------------------------------------------
Archival summary:
1\1\nid00526\SP\ProcedureUnspecified\BasisUnspecified\223(1-,1)\meili\SunSep2607:51:482021SunSep2607:51:482021\0\\#,ProcedureUnspecified,BasisUnspecified,\\-1,1\C\O,1,1.25105\O,1,1.25113,2,124.182\C,1,1.4873,2,118.833,3,-179.527,0\H,4,1.07946,1,108.824,2,84.3621,0\H,4,1.09422,1,108.394,2,-158.568,0\H,4,1.1,1,112.06,2,-38.3469,0\\\@

 Total job time:  5506.49s(wall), 10764.24s(cpu) 
 Sun Sep 26 07:51:49 2021

        *************************************************************
        *                                                           *
        *  Thank you very much for using Q-Chem.  Have a nice day.  *
        *                                                           *
        *************************************************************


Done Job For Fragment 1
calling putenv with: QCSCRATCH=/global/cscratch1/sd/meili 
calling putenv with: QCLOCALSCR=/tmp 
calling putenv with: QCTHREADS=32 
Doing General SCFMI
 Exchange:     0.1670 Hartree-Fock + 1.0000 wB97X-V + LR-HF
 Correlation:  1.0000 wB97X-V
 Using Euler-Maclaurin-Lebedev (99,590) quadrature formula
 Nonlocal Correlation:  VV10 with C = 0.0100 and b = 6.00 and scale = 1.00000
 Grid used for NLC:  SG-1 standard quadrature
performing fock build before subrot guess so that all methods have access
Printing subrot_rss_gen Method Specification:
Occupied Subspace Method is 0
Virtual Subspace Method is 0
Energy of the unrelaxed supersystem initial determinant -456.950739333095
performing fock build before subrot guess so that all methods have access
Printing subrot_rss_gen Method Specification:
Occupied Subspace Method is 0
Virtual Subspace Method is 0
Energy of the unrelaxed supersystem initial determinant w/ solvent -457.329549786756
write pseudocanon occs and virts to disk
write pseudocanon orbital energies to disk
Tolerance of ortho_decomp_scf: 1.00e-06
GDM subspace size: 20
Beginning the Orthogonal Decomposition of the Initial Supersystem Wavefunction
    1    -457.0524443562      4.76e-02     ortho_decomp Preconditoned Steepest Descent
    2    -457.0546035665      7.42e-04     ortho_decomp BFGS Step
    3    -457.0546069575      4.97e-05     ortho_decomp BFGS Step
    4    -457.0546069626      1.50e-06     ortho_decomp BFGS Step
    5    -457.0546069626      3.82e-08     ortho_decomp 00000 Convergence criterion met
 Hartree-Fock
 Hartree-Fock
 Hartree-Fock
Doing General SCFMI
 Exchange:     0.1670 Hartree-Fock + 1.0000 wB97X-V + LR-HF
 Correlation:  1.0000 wB97X-V
 Using Euler-Maclaurin-Lebedev (99,590) quadrature formula
 Nonlocal Correlation:  VV10 with C = 0.0100 and b = 6.00 and scale = 1.00000
 Grid used for NLC:  SG-1 standard quadrature
performing fock build at end of subrot_r(subrot) constructor so that all methods have access
<S^2> of initial wavefunction before polarization iterations 0.0000000000
Beginning iterations for the determination of the polarized wavefunction
Energy prior to optimization (guess energy) = -457.329549786757
Begin Timing: Total SCF Calculation
begin iterations for algorithm: DIIS         
the SCF tolerance is set to 1.00e-08
    1    -457.3295497868      4.44e-05     00000 
    2    -457.3296045189      3.98e-05     00000 
    3    -457.3296272127      1.00e-05     00000 
    4    -457.3296313615      4.66e-06     00000 
    5    -457.3296320414      1.67e-06     00000 
    6    -457.3296321825      8.88e-07     00000 
    7    -457.3296322078      1.74e-07     00000 
    8    -457.3296322098      4.38e-08     00000 
    9    -457.3296322100      1.41e-08     00000 
   10    -457.3296322100      1.10e-08     00000 
   11    -457.3296322100      2.58e-09     00000 Convergence criterion met
write pseudocanon occs and virts to disk
write pseudocanon orbital energies to disk
Timing for Total SCF: 1379.00s (wall), 2740.70s (cpu)
<S^2> of polarized wavefunction after polarization iterations 0.0000000000
relaxing scfmi constraint to allow all rotations in the entire AO span
Doing General SCFMI
 Exchange:     0.1670 Hartree-Fock + 1.0000 wB97X-V + LR-HF
 Correlation:  1.0000 wB97X-V
 Using Euler-Maclaurin-Lebedev (99,590) quadrature formula
 Nonlocal Correlation:  VV10 with C = 0.0100 and b = 6.00 and scale = 1.00000
 Grid used for NLC:  SG-1 standard quadrature
performing fock build at end of subrot_r(subrot) constructor so that all methods have access
<S^2> of polarized wavefunction before ct-allowed iterations 0.0000000000
Beginning iterations for the determination of the CT-Allowed wavefunction
Energy prior to optimization (guess energy) = -457.329632209981
Begin Timing: Total SCF Calculation
begin iterations for algorithm: DIIS         
the SCF tolerance is set to 1.00e-08
    1    -457.3296322100      7.57e-05     00000 
    2    -457.3298752869      5.78e-06     00000 
    3    -457.3298812549      1.21e-06     00000 
    4    -457.3298814335      1.18e-06     00000 
    5    -457.3298814953      1.22e-07     00000 
    6    -457.3298814971      8.15e-08     00000 
    7    -457.3298814975      1.82e-08     00000 
    8    -457.3298814975      4.29e-09     00000 Convergence criterion met
write pseudocanon occs and virts to disk
write pseudocanon orbital energies to disk
Timing for Total SCF: 1111.00s (wall), 2204.64s (cpu)
<S^2> of ct_allowed wavefunction after ct-allowed iterations 0.0000000000

================================
        Results of EDA2         
================================
Basic EDA Quantities
--------------------
Fragment Energies (Ha):
1 -228.6595106299
2 -228.6585931036
--------------------
  E_prp (kJ/mol) = 0.0000
  E_sol (kJ/mol) = -308.7223
  E_frz (kJ/mol) = 308.7514
  E_pol (kJ/mol) = -0.2164
  E_vct (kJ/mol) = -0.6545
  E_int (kJ/mol) = -0.8418
--------------------


Initial Wavefunction Decomposition
--------------------
  --------------------
  Orthogonal Fragment Subspace Decomposition:
  --------------------
     E_elec   (ELEC)   (kJ/mol) = 290.3201
     E_pauli  (PAULI)  (kJ/mol) = 28.7004
     E_disp   (DISP)   (kJ/mol) = -10.2691
     --------------------
     Terms summing to E_pauli:
     --------------------
        E_kep_pauli       (kJ/mol) = 36.0437
        E_disp_free_pauli (kJ/mol) = -7.3434
  --------------------
  Classical Frozen Decomposition:
  --------------------
     E_cls_elec  (CLS ELEC)  (kJ/mol) = 310.2810
     E_cls_pauli (CLS PAULI) (kJ/mol) = -1.5295
    [E_mod_pauli (MOD PAULI) (kJ/mol) = 8.7396 (CLS PAULI - DISP from orthogonal decomposition) ]
  --------------------
--------------------

Simplified EDA Summary (kJ/mol)
--------------------
 PREPARATION     0.0000
 SOLVATION       -308.7223
 FROZEN          319.0205      (does not include dispersion)
[PAULI           28.7004]     (if this is negligible, then frozen describes electrostatics)
 DISPERSION      -10.2691
 POLARIZATION    -0.2164
 CHARGE TRANSFER -0.6545
 TOTAL           -0.8418     (PRP + SOL + FRZ + DISP + POL + CT)
--------------------
 
 --------------------------------------------------------------
 
                    Orbital Energies (a.u.)
 --------------------------------------------------------------
 
 Alpha MOs
 -- Occupied --
-19.1519 -19.1510 -19.1501 -19.1492 -10.3538 -10.3487 -10.2473 -10.2406
 -1.1636  -1.1629  -1.0650  -1.0618  -0.8439  -0.8378  -0.6178  -0.6147
 -0.5513  -0.5475  -0.5463  -0.5425  -0.5413  -0.5375  -0.4813  -0.4761
 -0.4622  -0.4607  -0.3663  -0.3630  -0.3570  -0.3547  -0.3443  -0.3389
 -- Virtual --
  0.0644   0.0802   0.0942   0.0953   0.1092   0.1137   0.1185   0.1290
  0.1394   0.1438   0.1453   0.1495   0.1528   0.1552   0.1684   0.1810
  0.1852   0.2005   0.2089   0.2158   0.2219   0.2235   0.2285   0.2381
  0.2446   0.2556   0.2676   0.2716   0.2780   0.2863   0.2996   0.3075
  0.3165   0.3253   0.3314   0.3392   0.3435   0.3516   0.3536   0.3607
  0.3646   0.3732   0.3779   0.3850   0.3961   0.3998   0.4064   0.4140
  0.4194   0.4245   0.4296   0.4324   0.4437   0.4501   0.4529   0.4551
  0.4612   0.4708   0.4802   0.4851   0.4911   0.4957   0.5082   0.5160
  0.5248   0.5310   0.5366   0.5381   0.5536   0.5595   0.5668   0.5690
  0.5790   0.5882   0.5979   0.6075   0.6143   0.6222   0.6291   0.6370
  0.6437   0.6534   0.6570   0.6652   0.6716   0.6836   0.6876   0.6926
  0.6971   0.7093   0.7115   0.7310   0.7431   0.7450   0.7492   0.7639
  0.7669   0.7712   0.7947   0.7986   0.8068   0.8164   0.8212   0.8291
  0.8384   0.8500   0.8594   0.8666   0.8823   0.8987   0.9023   0.9418
  0.9588   0.9726   0.9769   0.9953   1.0006   1.0280   1.0339   1.0497
  1.0589   1.0609   1.0676   1.0847   1.1130   1.1411   1.1485   1.1631
  1.1746   1.2121   1.2429   1.2564   1.2672   1.2830   1.2946   1.3057
  1.3225   1.3286   1.3474   1.3611   1.3767   1.3877   1.3998   1.4055
  1.4598   1.4864   1.5649   1.5783   1.6112   1.6382   1.7685   1.8065
  1.8252   1.8603   1.8753   1.8809   1.8928   1.9183   1.9256   1.9349
  1.9509   1.9563   1.9634   1.9723   1.9745   1.9854   1.9960   2.0133
  2.0319   2.0459   2.1003   2.1311   2.1358   2.1717   2.1825   2.2005
  2.2235   2.2281   2.2434   2.2490   2.3169   2.3221   2.3375   2.3762
  2.4197   2.4409   2.4518   2.4673   2.4772   2.4929   2.5038   2.5196
  2.5815   2.5914   2.6129   2.6209   2.6397   2.6617   2.6694   2.6813
  2.7828   2.8303   2.8343   2.8457   2.8736   2.8863   2.9249   2.9351
  2.9506   2.9649   3.0149   3.0361   3.0873   3.1395   3.1594   3.2107
  3.2320   3.2440   3.2566   3.2686   3.2820   3.2862   3.3063   3.3254
  3.3503   3.3594   3.3791   3.3903   3.4000   3.4131   3.4161   3.4224
  3.4291   3.4525   3.5491   3.5545   3.5805   3.5942   3.6077   3.6162
  3.6290   3.6388   3.6571   3.6626   3.7009   3.7113   3.7341   3.7545
  3.7694   3.7749   3.8666   3.8840   3.9431   4.0125   4.0392   4.0801
  4.1080   4.1216   4.1849   4.2277   4.3415   4.3695   4.5561   4.5854
  4.6092   4.6607   4.6748   4.7035   4.7926   4.8076   4.8176   4.8487
  4.9969   5.0030   5.2998   5.3014   5.3282   5.3327   5.3391   5.3416
  5.3443   5.3542   5.4625   5.4880   5.6831   5.7041   5.7299   5.7529
  5.7873   5.7929   5.9973   6.0076   6.2117   6.2415   6.3184   6.3190
  6.3316   6.3443   6.5858   6.6068   6.6166   6.6283   6.7007   6.7244
  6.7342   6.7378   6.7413   6.7606   6.9221   6.9498   6.9594   6.9819
  7.0201   7.0316   7.2199   7.2267   7.3119   7.3579   7.3629   7.3703
  7.3990   7.4147  22.5951  22.6537  23.7128  23.7681  44.2201  44.2887
 44.3685  44.4058
 --------------------------------------------------------------
 
          Ground-State Mulliken Net Atomic Charges

     Atom                 Charge (a.u.)
  ----------------------------------------
      1 C                    -0.609940
      2 C                     0.567499
      3 O                    -0.773960
      4 O                    -0.799823
      5 H                     0.229391
      6 H                     0.180619
      7 H                     0.223460
      8 C                    -0.445298
      9 C                     0.466884
     10 O                    -0.743075
     11 O                    -0.793778
     12 H                     0.071590
     13 H                     0.192350
     14 H                     0.234082
  ----------------------------------------
  Sum of atomic charges =    -2.000000

 -----------------------------------------------------------------
                    Cartesian Multipole Moments
 -----------------------------------------------------------------
    Charge (ESU x 10^10)
                -9.6064
    Dipole Moment (Debye)
         X      -7.6752      Y       1.4640      Z       4.9618
       Tot       9.2559
    Quadrupole Moments (Debye-Ang)
        XX     -63.9248     XY      11.8648     YY    -118.3411
        XZ      -2.8900     YZ       8.7085     ZZ     -54.6060
    Octopole Moments (Debye-Ang^2)
       XXX      -2.4345    XXY      -4.2495    XYY     -19.3484
       YYY      79.7199    XXZ       0.7396    XYZ      -7.9385
       YYZ      46.0854    XZZ       3.4031    YZZ      -9.9718
       ZZZ       0.1379
    Hexadecapole Moments (Debye-Ang^3)
      XXXX    -315.5762   XXXY      70.5267   XXYY    -387.1799
      XYYY     186.4615   YYYY   -2434.0370   XXXZ       6.6265
      XXYZ      -9.0913   XYYZ     -10.0149   YYYZ     -18.6125
      XXZZ     -85.9243   XYZZ      31.1041   YYZZ    -346.4584
      XZZZ       9.9904   YZZZ     -39.8214   ZZZZ    -218.0950
 -----------------------------------------------------------------
Archival summary:
1\1\nid00526\SP\ProcedureUnspecified\BasisUnspecified\446(2-,1)\meili\SunSep2609:10:302021SunSep2609:10:302021\0\\#,ProcedureUnspecified,BasisUnspecified,\\-2,1\O\C,1,1.25113\O,2,1.25105,1,124.182\C,2,1.4873,1,116.983,3,179.535,0\H,4,1.07946,2,108.824,1,-95.1985,0\H,4,1.09422,2,108.394,1,21.8716,0\H,4,1.1,2,112.06,1,142.093,0\H,6,2.80842,4,124.562,2,-82.9779,0\C,8,1.09271,6,118.772,4,164.776,0\H,9,1.09228,8,107.947,6,-142.839,0\H,9,1.1,8,108.678,6,99.9617,0\C,9,1.53135,8,109.585,6,-23.6823,0\O,12,1.25136,9,118.204,8,-67.3168,0\O,12,1.25443,9,119.835,8,112.187,0\\\@

 Total job time:  15766.07s(wall), 9391.95s(cpu) 
 Sun Sep 26 09:10:31 2021

        *************************************************************
        *                                                           *
        *  Thank you very much for using Q-Chem.  Have a nice day.  *
        *                                                           *
        *************************************************************


