
Running Job 1 of 1 SSI-051PHE-091ARG-1_SMD_TZVPD.in
qchem SSI-051PHE-091ARG-1_SMD_TZVPD.in_26945.0 /tmp/qchem26945/ 0
/global/common/cori/software/qchem/5.2/exe/qcprog.exe_s SSI-051PHE-091ARG-1_SMD_TZVPD.in_26945.0 /tmp/qchem26945/
                  Welcome to Q-Chem
     A Quantum Leap Into The Future Of Chemistry


 Q-Chem 5.2, Q-Chem, Inc., Pleasanton, CA (2019)

 License issued to: National Energy Research Scientific Computing Center

 Yihan Shao,  Zhengting Gan,  E. Epifanovsky,  A. T. B. Gilbert,  M. Wormit,  
 J. Kussmann,  A. W. Lange,  A. Behn,  Jia Deng,  Xintian Feng,  D. Ghosh,  
 M. Goldey,  P. R. Horn,  L. D. Jacobson,  I. Kaliman,  T. Kus,  A. Landau,  
 Jie Liu,  E. I. Proynov,  R. M. Richard,  R. P. Steele,  E. J. Sundstrom,  
 H. L. Woodcock III,  P. M. Zimmerman,  D. Zuev,  B. Albrecht,  E. Alguire,  
 S. A. Baeppler,  D. Barton,  Z. Benda,  Y. A. Bernard,  E. J. Berquist,  
 K. B. Bravaya,  H. Burton,  D. Casanova,  Chun-Min Chang,  Yunqing Chen,  
 A. Chien,  K. D. Closser,  M. P. Coons,  S. Coriani,  S. Dasgupta,  
 A. L. Dempwolff,  M. Diedenhofen,  Hainam Do,  R. G. Edgar,  Po-Tung Fang,  
 S. Faraji,  S. Fatehi,  Qingguo Feng,  K. D. Fenk,  J. Fosso-Tande,  
 J. Gayvert,  Qinghui Ge,  A. Ghysels,  G. Gidofalvi,  J. Gomes,  
 J. Gonthier,  A. Gunina,  D. Hait,  M. W. D. Hanson-Heine,  
 P. H. P. Harbach,  A. W. Hauser,  M. F. Herbst,  J. E. Herr,  
 E. G. Hohenstein,  Z. C. Holden,  Kerwin Hui,  B. C. Huynh,  T.-C. Jagau,  
 Hyunjun Ji,  B. Kaduk,  K. Khistyaev,  Jaehoon Kim,  P. Klunzinger,  K. Koh,  
 D. Kosenkov,  L. Koulias,  T. Kowalczyk,  C. M. Krauter,  A. Kunitsa,  
 Ka Un Lao,  A. Laurent,  K. V. Lawler,  Joonho Lee,  D. Lefrancois,  
 S. Lehtola,  D. S. Levine,  Yi-Pei Li,  You-Sheng Lin,  Fenglai Liu,  
 E. Livshits,  A. Luenser,  P. Manohar,  E. Mansoor,  S. F. Manzer,  
 Shan-Ping Mao,  Yuezhi Mao,  N. Mardirossian,  A. V. Marenich,  
 T. Markovich,  L. A. Martinez-Martinez,  S. A. Maurer,  N. J. Mayhall,  
 S. C. McKenzie,  J.-M. Mewes,  P. Morgante,  A. F. Morrison,  
 J. W. Mullinax,  K. Nanda,  T. S. Nguyen-Beck,  R. Olivares-Amaya,  
 J. A. Parkhill,  Zheng Pei,  T. M. Perrine,  F. Plasser,  P. Pokhilko,  
 S. Prager,  A. Prociuk,  E. Ramos,  D. R. Rehn,  F. Rob,  M. Scheurer,  
 M. Schneider,  N. Sergueev,  S. M. Sharada,  S. Sharma,  D. W. Small,  
 T. Stauch,  T. Stein,  Yu-Chuan Su,  A. J. W. Thom,  A. Tkatchenko,  
 T. Tsuchimochi,  N. M. Tubman,  L. Vogt,  M. L. Vidal,  O. Vydrov,  
 M. A. Watson,  J. Wenzel,  M. de Wergifosse,  T. A. Wesolowski,  A. White,  
 J. Witte,  A. Yamada,  Jun Yang,  K. Yao,  S. Yeganeh,  S. R. Yost,  
 Zhi-Qiang You,  A. Zech,  Igor Ying Zhang,  Xing Zhang,  Yan Zhao,  
 Ying Zhu,  B. R. Brooks,  G. K. L. Chan,  C. J. Cramer,  M. S. Gordon,  
 W. J. Hehre,  A. Klamt,  M. W. Schmidt,  C. D. Sherrill,  D. G. Truhlar,  
 A. Aspuru-Guzik,  R. Baer,  A. T. Bell,  N. A. Besley,  Jeng-Da Chai,  
 A. E. DePrince, III,  R. A. DiStasio Jr.,  A. Dreuw,  B. D. Dunietz,  
 T. R. Furlani,  Chao-Ping Hsu,  Yousung Jung,  Jing Kong,  D. S. Lambrecht,  
 WanZhen Liang,  C. Ochsenfeld,  V. A. Rassolov,  L. V. Slipchenko,  
 J. E. Subotnik,  T. Van Voorhis,  J. M. Herbert,  A. I. Krylov,  
 P. M. W. Gill,  M. Head-Gordon

 Contributors to earlier versions of Q-Chem not listed above: 
 R. D. Adamson,  B. Austin,  J. Baker,  G. J. O. Beran,  K. Brandhorst,  
 S. T. Brown,  E. F. C. Byrd,  A. K. Chakraborty,  C.-L. Cheng,  
 Siu Hung Chien,  D. M. Chipman,  D. L. Crittenden,  H. Dachsel,  
 R. J. Doerksen,  A. D. Dutoi,  L. Fusti-Molnar,  W. A. Goddard III,  
 A. Golubeva-Zadorozhnaya,  S. R. Gwaltney,  G. Hawkins,  A. Heyden,  
 S. Hirata,  G. Kedziora,  F. J. Keil,  C. Kelley,  Jihan Kim,  R. A. King,  
 R. Z. Khaliullin,  P. P. Korambath,  W. Kurlancheek,  A. M. Lee,  M. S. Lee,  
 S. V. Levchenko,  Ching Yeh Lin,  D. Liotard,  R. C. Lochan,  I. Lotan,  
 P. E. Maslen,  N. Nair,  D. P. O'Neill,  D. Neuhauser,  E. Neuscamman,  
 C. M. Oana,  R. Olson,  B. Peters,  R. Peverati,  P. A. Pieniazek,  
 Y. M. Rhee,  J. Ritchie,  M. A. Rohrdanz,  E. Rosta,  N. J. Russ,  
 H. F. Schaefer III,  N. E. Schultz,  N. Shenvi,  A. C. Simmonett,  A. Sodt,  
 D. Stuck,  K. S. Thanthiriwatte,  V. Vanovschi,  Tao Wang,  A. Warshel,  
 C. F. Williams,  Q. Wu,  X. Xu,  W. Zhang

 Please cite Q-Chem as follows:
 Y. Shao et al., Mol. Phys. 113, 184-215 (2015)
 DOI: 10.1080/00268976.2014.952696

 Q-Chem 5.2.0 for Intel X86 EM64T Linux

 Parts of Q-Chem use Armadillo 8.300.2 (Tropical Shenanigans).
 http://arma.sourceforge.net/

 Q-Chem begins on Sun Sep 26 08:21:57 2021  

Host: cori01
0

     Scratch files written to /tmp/qchem26945//
 May1019 |scratch|qcdevops|jenkins|workspace|build_RNUM -1
Processing $rem in /global/common/cori/software/qchem/5.2/config/preferences:
	 MEM_TOTAL  96000 
NAlpha2: 98
NElect   98
Mult     1
Symmetry turned off for PCM/SM12/SMD calculation

 Q-Chem warning in module libgen/rem_setup.C, line 2803:

 Neither GIA nor STOLL is specified by user. Use STOLL as the default


Checking the input file for inconsistencies... 	...done.

--------------------------------------------------------------
User input:
--------------------------------------------------------------
$comment
SSI-051PHE-091ARG-1.pdb
$end

$molecule
1 1
--
0 1
C    3.115474888505    2.406928580599    2.158749578309
C   -0.823525111495    1.730928580599    0.548749578309
C    0.101474888505    2.499928580599   -0.164250421691
C   -0.465525111495    1.191928580599    1.785749578309
C    1.380474888505    2.723928580599    0.363749578309
C    0.809474888505    1.419928580599    2.305749578309
C    1.740474888505    2.181928580599    1.599749578309
H   -1.807525111495    1.548928580599    0.138749578309
H   -0.171525111495    2.922928580599   -1.121250421691
H   -1.143525111495    0.590928580599    2.362749578309
H    2.092474888505    3.318928580599   -0.188250421691
H    1.064474888505    1.019928580599    3.273749578309
H    3.092474888505    2.295928580599    3.244749578309
H    3.399474888505    3.433928580599    1.935749578309
H    3.886254888505    1.747596580599    1.733095658309
--
1 1
C    0.273474888505   -1.255071419401   -1.495250421691
C    0.574474888505   -0.172071419401   -2.521250421691
C   -1.574525111495   -2.801071419401   -0.953250421691
N   -1.069525111495   -1.815071419401   -1.679250421691
N   -0.864525111495   -3.342071419401    0.020749578309
N   -2.785525111495   -3.259071419401   -1.205250421691
H    1.018474888505   -2.045071419401   -1.608250421691
H    0.357474888505   -0.821071419401   -0.495250421691
H   -0.149525111495    0.635928580599   -2.420250421691
H    0.498474888505   -0.598071419401   -3.521250421691
H   -1.633525111495   -1.447071419401   -2.432250421691
H    0.074474888505   -3.003071419401    0.222749578309
H   -1.196525111495   -4.183071419401    0.467749578309
H   -3.322525111495   -2.879071419401   -1.969250421691
H   -3.173525111495   -4.029071419401   -0.680250421691
H    1.586724888505    0.225883580599   -2.357003421691
$end

$rem
JOBTYPE			EDA
EDA2			1
method			wB97X-V
BASIS			def2-TZVPD
XC_GRID			000099000590
NL_GRID			1
UNRESTRICTED		FALSE
MAX_SCF_CYCLES		200
SYMMETRY		FALSE
SYM_IGNORE		TRUE
MEM_STATIC		2000
BASIS_LIN_DEP_THRESH 	6
THRESH 			14
SCF_CONVERGENCE 	8
SCF_PRINT_FRGM 		TRUE
SOLVENT_METHOD          SMD
$end

$SMX
SOLVENT			WATER
$END
--------------------------------------------------------------
 ----------------------------------------------------------------
             Standard Nuclear Orientation (Angstroms)
    I     Atom           X                Y                Z
 ----------------------------------------------------------------
    1      C       3.1154748885     2.4069285806     2.1587495783
    2      C      -0.8235251115     1.7309285806     0.5487495783
    3      C       0.1014748885     2.4999285806    -0.1642504217
    4      C      -0.4655251115     1.1919285806     1.7857495783
    5      C       1.3804748885     2.7239285806     0.3637495783
    6      C       0.8094748885     1.4199285806     2.3057495783
    7      C       1.7404748885     2.1819285806     1.5997495783
    8      H      -1.8075251115     1.5489285806     0.1387495783
    9      H      -0.1715251115     2.9229285806    -1.1212504217
   10      H      -1.1435251115     0.5909285806     2.3627495783
   11      H       2.0924748885     3.3189285806    -0.1882504217
   12      H       1.0644748885     1.0199285806     3.2737495783
   13      H       3.0924748885     2.2959285806     3.2447495783
   14      H       3.3994748885     3.4339285806     1.9357495783
   15      H       3.8862548885     1.7475965806     1.7330956583
   16      C       0.2734748885    -1.2550714194    -1.4952504217
   17      C       0.5744748885    -0.1720714194    -2.5212504217
   18      C      -1.5745251115    -2.8010714194    -0.9532504217
   19      N      -1.0695251115    -1.8150714194    -1.6792504217
   20      N      -0.8645251115    -3.3420714194     0.0207495783
   21      N      -2.7855251115    -3.2590714194    -1.2052504217
   22      H       1.0184748885    -2.0450714194    -1.6082504217
   23      H       0.3574748885    -0.8210714194    -0.4952504217
   24      H      -0.1495251115     0.6359285806    -2.4202504217
   25      H       0.4984748885    -0.5980714194    -3.5212504217
   26      H      -1.6335251115    -1.4470714194    -2.4322504217
   27      H       0.0744748885    -3.0030714194     0.2227495783
   28      H      -1.1965251115    -4.1830714194     0.4677495783
   29      H      -3.3225251115    -2.8790714194    -1.9692504217
   30      H      -3.1735251115    -4.0290714194    -0.6802504217
   31      H       1.5867248885     0.2258835806    -2.3570034217
 ----------------------------------------------------------------
 Nuclear Repulsion Energy =         765.94123970 hartrees
 There are       49 alpha and       49 beta electrons
 Requested basis set is def2-TZVPD
 There are 259 shells and 643 basis functions

 Total QAlloc Memory Limit  96000 MB
 Mega-Array Size      1956 MB
 MEM_STATIC part      2000 MB
 
 Citation of the SMD model:
 Marenich, A.V.; Cramer, C.J.; Truhlar, D.G.
 J. Phys. Chem. B 2009, 113, 6378-6396.
 iSolventCode=           1
 Solvent: water                                                           
 
 vradii
            1           2           3           4           5           6
    1   1.8500000   1.8500000   1.8500000   1.8500000   1.8500000   1.8500000
            7           8           9          10          11          12
    1   1.8500000   1.2000000   1.2000000   1.2000000   1.2000000   1.2000000
           13          14          15          16          17          18
    1   1.2000000   1.2000000   1.2000000   1.8500000   1.8500000   1.8500000
           19          20          21          22          23          24
    1   1.8900000   1.8900000   1.8900000   1.2000000   1.2000000   1.2000000
           25          26          27          28          29          30
    1   1.2000000   1.2000000   1.2000000   1.2000000   1.2000000   1.2000000
           31
    1   1.2000000
 Changing PCM_VDW_RADII to SMD_RADIUS
 Discretize the solute cavity surface with Lebedev spheres
	Using 110 Lebedev grid points for each H atom
	Using 194 Lebedev grid points for other atoms
	Atomic van der Waals radii will be scaled by 1.20
 Remove points where switching function is < 1.0e-08
 Keep 2201 surface tesserae and discard 2301 interior tesserae
 Molecular Surface Area = 263.515 Angst**2
 A cutoff of  1.0D-14 yielded  28715 shell pairs
 There are    177039 function pairs (    220919 Cartesian)
 Smallest overlap matrix eigenvalue = 5.03E-07
 Linear dependence detected in AO basis
 Tighter screening thresholds may be required for diffuse basis sets
 Use S2THRESH > 14 and THRESH = 14 in case of SCF convergence issues
 Number of orthogonalized atomic orbitals = 641
 Maximum deviation from orthogonality = 2.906E-10

 Scale SEOQF with 1.000000e-01/1.000000e-01/1.000000e-01

 Standard Electronic Orientation quadrupole field applied
 Nucleus-field energy     =     0.0000000188 hartrees

 -----------------------------------------------------------------------
  General SCF calculation program by
  Eric Jon Sundstrom, Paul Horn, Yuezhi Mao, Dmitri Zuev, Alec White,
  David Stuck, Shaama M.S., Shane Yost, Joonho Lee, David Small,
  Daniel Levine, Susi Lehtola, Hugh Burton, Evgeny Epifanovsky
 -----------------------------------------------------------------------
================================================================
                 ALMO-EDA with the EDA2 driver                  
================================================================
 The second-generation ALMO-EDA (for DFT):                      
 P. R. Horn, Y. Mao and M. Head-Gordon, PCCP, 18, 23067 (2016)  
 Decomposition of the frozen energy:                            
 P. R. Horn, Y. Mao and M. Head-Gordon, JCP, 144, 114107 (2016) 
 FERF model for polarization:                                   
 P. R. Horn and M. Head-Gordon, JCP, 143, 114111 (2015)         
Using eda2 option set 1
Option set summary: Frozen orbital wavefunction, initial wavefunction decomposition, and nDQ polarization.
--------------------------------
Printing EDA Options
--------------------------------
eda_child_super_basis      0
fragmo_guess_mode          0
child_mp                   1
child_mp_orders            232
cls_elec                   1
cls_disp                   0
scfmi_mode                 1
scfmi_occs                 0
scfmi_virts                0
frz_relax                  0
frz_relax_method           0
dc_pen_start               0
dc_pen_conv                0
dc_pen_increment           0
dc_pen_steps               0
dc_pen_thresh_factor       0
dc_pen_pre_newton_thresh   0
frz_ortho_decomp           1
frz_ortho_decomp_conv      6
frgm_method                2
scfmi_freeze_ss            0
separate_rehyb             0
plot_diff_den              0
eda_nocv                   0
eda_vct_relax              1
disp_free_x                0
disp_free_c                0
eda_bsse                   0
eda_pct_a                  0
eda_covp                   0
--------------------------------
Attempting to make child job directory: /tmp/qchem26945//Frg1/
Attempting to make child job directory: /tmp/qchem26945//Frg2/
Creating input file /tmp/qchem26945/Frg1.input
using default PutDataFrgm: nothing
calling putenv with: QCSCRATCH=/tmp/qchem26945/ 
calling putenv with: QCLOCALSCR=/tmp/qchem26945/ 
Spawning Job For Fragment 0
                  Welcome to Q-Chem
     A Quantum Leap Into The Future Of Chemistry


 Q-Chem 5.2, Q-Chem, Inc., Pleasanton, CA (2019)

 License issued to: National Energy Research Scientific Computing Center

 Yihan Shao,  Zhengting Gan,  E. Epifanovsky,  A. T. B. Gilbert,  M. Wormit,  
 J. Kussmann,  A. W. Lange,  A. Behn,  Jia Deng,  Xintian Feng,  D. Ghosh,  
 M. Goldey,  P. R. Horn,  L. D. Jacobson,  I. Kaliman,  T. Kus,  A. Landau,  
 Jie Liu,  E. I. Proynov,  R. M. Richard,  R. P. Steele,  E. J. Sundstrom,  
 H. L. Woodcock III,  P. M. Zimmerman,  D. Zuev,  B. Albrecht,  E. Alguire,  
 S. A. Baeppler,  D. Barton,  Z. Benda,  Y. A. Bernard,  E. J. Berquist,  
 K. B. Bravaya,  H. Burton,  D. Casanova,  Chun-Min Chang,  Yunqing Chen,  
 A. Chien,  K. D. Closser,  M. P. Coons,  S. Coriani,  S. Dasgupta,  
 A. L. Dempwolff,  M. Diedenhofen,  Hainam Do,  R. G. Edgar,  Po-Tung Fang,  
 S. Faraji,  S. Fatehi,  Qingguo Feng,  K. D. Fenk,  J. Fosso-Tande,  
 J. Gayvert,  Qinghui Ge,  A. Ghysels,  G. Gidofalvi,  J. Gomes,  
 J. Gonthier,  A. Gunina,  D. Hait,  M. W. D. Hanson-Heine,  
 P. H. P. Harbach,  A. W. Hauser,  M. F. Herbst,  J. E. Herr,  
 E. G. Hohenstein,  Z. C. Holden,  Kerwin Hui,  B. C. Huynh,  T.-C. Jagau,  
 Hyunjun Ji,  B. Kaduk,  K. Khistyaev,  Jaehoon Kim,  P. Klunzinger,  K. Koh,  
 D. Kosenkov,  L. Koulias,  T. Kowalczyk,  C. M. Krauter,  A. Kunitsa,  
 Ka Un Lao,  A. Laurent,  K. V. Lawler,  Joonho Lee,  D. Lefrancois,  
 S. Lehtola,  D. S. Levine,  Yi-Pei Li,  You-Sheng Lin,  Fenglai Liu,  
 E. Livshits,  A. Luenser,  P. Manohar,  E. Mansoor,  S. F. Manzer,  
 Shan-Ping Mao,  Yuezhi Mao,  N. Mardirossian,  A. V. Marenich,  
 T. Markovich,  L. A. Martinez-Martinez,  S. A. Maurer,  N. J. Mayhall,  
 S. C. McKenzie,  J.-M. Mewes,  P. Morgante,  A. F. Morrison,  
 J. W. Mullinax,  K. Nanda,  T. S. Nguyen-Beck,  R. Olivares-Amaya,  
 J. A. Parkhill,  Zheng Pei,  T. M. Perrine,  F. Plasser,  P. Pokhilko,  
 S. Prager,  A. Prociuk,  E. Ramos,  D. R. Rehn,  F. Rob,  M. Scheurer,  
 M. Schneider,  N. Sergueev,  S. M. Sharada,  S. Sharma,  D. W. Small,  
 T. Stauch,  T. Stein,  Yu-Chuan Su,  A. J. W. Thom,  A. Tkatchenko,  
 T. Tsuchimochi,  N. M. Tubman,  L. Vogt,  M. L. Vidal,  O. Vydrov,  
 M. A. Watson,  J. Wenzel,  M. de Wergifosse,  T. A. Wesolowski,  A. White,  
 J. Witte,  A. Yamada,  Jun Yang,  K. Yao,  S. Yeganeh,  S. R. Yost,  
 Zhi-Qiang You,  A. Zech,  Igor Ying Zhang,  Xing Zhang,  Yan Zhao,  
 Ying Zhu,  B. R. Brooks,  G. K. L. Chan,  C. J. Cramer,  M. S. Gordon,  
 W. J. Hehre,  A. Klamt,  M. W. Schmidt,  C. D. Sherrill,  D. G. Truhlar,  
 A. Aspuru-Guzik,  R. Baer,  A. T. Bell,  N. A. Besley,  Jeng-Da Chai,  
 A. E. DePrince, III,  R. A. DiStasio Jr.,  A. Dreuw,  B. D. Dunietz,  
 T. R. Furlani,  Chao-Ping Hsu,  Yousung Jung,  Jing Kong,  D. S. Lambrecht,  
 WanZhen Liang,  C. Ochsenfeld,  V. A. Rassolov,  L. V. Slipchenko,  
 J. E. Subotnik,  T. Van Voorhis,  J. M. Herbert,  A. I. Krylov,  
 P. M. W. Gill,  M. Head-Gordon

 Contributors to earlier versions of Q-Chem not listed above: 
 R. D. Adamson,  B. Austin,  J. Baker,  G. J. O. Beran,  K. Brandhorst,  
 S. T. Brown,  E. F. C. Byrd,  A. K. Chakraborty,  C.-L. Cheng,  
 Siu Hung Chien,  D. M. Chipman,  D. L. Crittenden,  H. Dachsel,  
 R. J. Doerksen,  A. D. Dutoi,  L. Fusti-Molnar,  W. A. Goddard III,  
 A. Golubeva-Zadorozhnaya,  S. R. Gwaltney,  G. Hawkins,  A. Heyden,  
 S. Hirata,  G. Kedziora,  F. J. Keil,  C. Kelley,  Jihan Kim,  R. A. King,  
 R. Z. Khaliullin,  P. P. Korambath,  W. Kurlancheek,  A. M. Lee,  M. S. Lee,  
 S. V. Levchenko,  Ching Yeh Lin,  D. Liotard,  R. C. Lochan,  I. Lotan,  
 P. E. Maslen,  N. Nair,  D. P. O'Neill,  D. Neuhauser,  E. Neuscamman,  
 C. M. Oana,  R. Olson,  B. Peters,  R. Peverati,  P. A. Pieniazek,  
 Y. M. Rhee,  J. Ritchie,  M. A. Rohrdanz,  E. Rosta,  N. J. Russ,  
 H. F. Schaefer III,  N. E. Schultz,  N. Shenvi,  A. C. Simmonett,  A. Sodt,  
 D. Stuck,  K. S. Thanthiriwatte,  V. Vanovschi,  Tao Wang,  A. Warshel,  
 C. F. Williams,  Q. Wu,  X. Xu,  W. Zhang

 Please cite Q-Chem as follows:
 Y. Shao et al., Mol. Phys. 113, 184-215 (2015)
 DOI: 10.1080/00268976.2014.952696

 Q-Chem 5.2.0 for Intel X86 EM64T Linux

 Parts of Q-Chem use Armadillo 8.300.2 (Tropical Shenanigans).
 http://arma.sourceforge.net/

 Q-Chem begins on Sun Sep 26 08:22:04 2021  

Host: cori01
0

     Scratch files written to /tmp/qchem26945//Frg1//
 May1019 |scratch|qcdevops|jenkins|workspace|build_RNUM -1
Processing $rem in /global/common/cori/software/qchem/5.2/config/preferences:
	 MEM_TOTAL  96000 
NAlpha2: 50
NElect   50
Mult     1
Symmetry turned off for PCM/SM12/SMD calculation

Checking the input file for inconsistencies... 	...done.

--------------------------------------------------------------
User input:
--------------------------------------------------------------
$molecule
0 1
 6	3.1154748885	2.4069285806	2.1587495783
 6	-0.8235251115	1.7309285806	0.5487495783
 6	0.1014748885	2.4999285806	-0.1642504217
 6	-0.4655251115	1.1919285806	1.7857495783
 6	1.3804748885	2.7239285806	0.3637495783
 6	0.8094748885	1.4199285806	2.3057495783
 6	1.7404748885	2.1819285806	1.5997495783
 1	-1.8075251115	1.5489285806	0.1387495783
 1	-0.1715251115	2.9229285806	-1.1212504217
 1	-1.1435251115	0.5909285806	2.3627495783
 1	2.0924748885	3.3189285806	-0.1882504217
 1	1.0644748885	1.0199285806	3.2737495783
 1	3.0924748885	2.2959285806	3.2447495783
 1	3.3994748885	3.4339285806	1.9357495783
 1	3.8862548885	1.7475965806	1.7330956583
$end
$rem
EDA2		1
METHOD		WB97X-V
BASIS		DEF2-TZVPD
XC_GRID		000099000590
NL_GRID		1
UNRESTRICTED		FALSE
MAX_SCF_CYCLES		200
SYMMETRY		FALSE
SYM_IGNORE		TRUE
BASIS_LIN_DEP_THRESH		6
THRESH		14
SCF_CONVERGENCE		8
SCF_PRINT_FRGM		TRUE
SOLVENT_METHOD		SMD
!required keywords
JOBTYPE		SP
SYM_IGNORE		TRUE
SUBSYSTEM		TRUE
GEN_SCFMAN		TRUE
CHILD_INSTRUCTION		2
SYM_IGNORE		TRUE
SCFMI		0
RI_K 0		
PARI_K 0		
MIN_PARI_K 0		
IARI_K 0		
OCC_RI_K 0		
PURECART		1111
MEM_STATIC		2000
MEM_TOTAL		96000
GUI		0
CHILD_MP		1
CHILD_MP_ORDERS		232
FRZ_RELAX		0
FRZ_RELAX_METHOD		0
EDA_CLS_ELEC		1
EDA_CLS_DISP		0
FRZ_ORTHO_DECOMP		1
EDA2		FALSE
FRGM_METHOD		FALSE
CIS_N_ROOTS  0
LOCAL_CIS    0
CIS_RLX_DNS  1
$end
$smx
SOLVENT			WATER
$end
--------------------------------------------------------------
 ----------------------------------------------------------------
             Standard Nuclear Orientation (Angstroms)
    I     Atom           X                Y                Z
 ----------------------------------------------------------------
    1      C       3.1154748885     2.4069285806     2.1587495783
    2      C      -0.8235251115     1.7309285806     0.5487495783
    3      C       0.1014748885     2.4999285806    -0.1642504217
    4      C      -0.4655251115     1.1919285806     1.7857495783
    5      C       1.3804748885     2.7239285806     0.3637495783
    6      C       0.8094748885     1.4199285806     2.3057495783
    7      C       1.7404748885     2.1819285806     1.5997495783
    8      H      -1.8075251115     1.5489285806     0.1387495783
    9      H      -0.1715251115     2.9229285806    -1.1212504217
   10      H      -1.1435251115     0.5909285806     2.3627495783
   11      H       2.0924748885     3.3189285806    -0.1882504217
   12      H       1.0644748885     1.0199285806     3.2737495783
   13      H       3.0924748885     2.2959285806     3.2447495783
   14      H       3.3994748885     3.4339285806     1.9357495783
   15      H       3.8862548885     1.7475965806     1.7330956583
 ----------------------------------------------------------------
 Nuclear Repulsion Energy =         269.37135935 hartrees
 There are       25 alpha and       25 beta electrons
 Requested basis set is def2-TZVPD
 There are 131 shells and 331 basis functions

 Total QAlloc Memory Limit  96000 MB
 Mega-Array Size      1956 MB
 MEM_STATIC part      2000 MB
 
 Citation of the SMD model:
 Marenich, A.V.; Cramer, C.J.; Truhlar, D.G.
 J. Phys. Chem. B 2009, 113, 6378-6396.
 iSolventCode=           1
 Solvent: water                                                           
 
 vradii
            1           2           3           4           5           6
    1   1.8500000   1.8500000   1.8500000   1.8500000   1.8500000   1.8500000
            7           8           9          10          11          12
    1   1.8500000   1.2000000   1.2000000   1.2000000   1.2000000   1.2000000
           13          14          15
    1   1.2000000   1.2000000   1.2000000
 Changing PCM_VDW_RADII to SMD_RADIUS
 Discretize the solute cavity surface with Lebedev spheres
	Using 110 Lebedev grid points for each H atom
	Using 194 Lebedev grid points for other atoms
	Atomic van der Waals radii will be scaled by 1.20
 Remove points where switching function is < 1.0e-08
 Keep 1091 surface tesserae and discard 1147 interior tesserae
 Molecular Surface Area = 132.215 Angst**2

                       Distance Matrix (Angstroms)
             C (  1)   C (  2)   C (  3)   C (  4)   C (  5)   C (  6)
   C (  2)  4.308689
   C (  3)  3.806465  1.398340
   C (  4)  3.799857  1.396014  2.415544
   C (  5)  2.516493  2.424436  1.401714  2.788696
   C (  6)  2.512651  2.418772  2.787214  1.395711  2.407866
   C (  7)  1.501243  2.807507  2.428815  2.425105  1.396803  1.394934
   H (  8)  5.390036  1.081425  2.154180  2.154303  3.405084  3.400179
   H (  9)  4.672154  2.152874  1.081345  3.396093  2.157204  3.868553
   H ( 10)  4.634496  2.166240  3.402945  1.074157  3.862158  2.122428
   H ( 11)  2.717845  3.401172  2.153002  3.868355  1.079663  3.387082
   H ( 12)  2.715436  3.390529  3.864921  2.141174  3.386971  1.077984
   H ( 13)  1.091900  4.787765  4.539711  4.000858  3.378504  2.619387
   H ( 14)  1.088629  4.760011  4.019846  4.470715  2.655493  3.301696
   H ( 15)  1.100001  4.856437  4.300056  4.387428  3.017825  3.146724
             C (  7)   H (  8)   H (  9)   H ( 10)   H ( 11)   H ( 12)
   H (  8)  3.888896
   H (  9)  3.407149  2.480317
   H ( 10)  3.380962  2.510943  4.303634
   H ( 11)  2.147933  4.295326  2.480524  4.941789
   H ( 12)  2.146974  4.284443  4.946224  2.426773  4.281078
   H ( 13)  2.132352  5.849380  5.487147  4.650661  3.719142  2.396206
   H ( 14)  2.105393  5.821966  4.728468  5.376228  2.496568  3.615227
   H ( 15)  2.193353  5.916125  5.098458  5.199330  3.062401  3.296295
             H ( 13)   H ( 14)
   H ( 14)  1.761469
   H ( 15)  1.793280  1.766844
 
 A cutoff of  1.0D-14 yielded   8359 shell pairs
 There are     54495 function pairs (     69446 Cartesian)
 Smallest overlap matrix eigenvalue = 5.85E-07
 Linear dependence detected in AO basis
 Tighter screening thresholds may be required for diffuse basis sets
 Use S2THRESH > 14 and THRESH = 14 in case of SCF convergence issues
 Number of orthogonalized atomic orbitals = 330
 Maximum deviation from orthogonality = 1.258E-10

 Scale SEOQF with 1.000000e-01/1.000000e-01/1.000000e-01

 Standard Electronic Orientation quadrupole field applied
 Nucleus-field energy     =     0.0000000072 hartrees
 Guess from superposition of atomic densities
 Warning:  Energy on first SCF cycle will be non-variational
 SAD guess density has 49.913408 electrons

 -----------------------------------------------------------------------
  General SCF calculation program by
  Eric Jon Sundstrom, Paul Horn, Yuezhi Mao, Dmitri Zuev, Alec White,
  David Stuck, Shaama M.S., Shane Yost, Joonho Lee, David Small,
  Daniel Levine, Susi Lehtola, Hugh Burton, Evgeny Epifanovsky
 -----------------------------------------------------------------------
 Exchange:     0.1670 Hartree-Fock + 1.0000 wB97X-V + LR-HF
 Correlation:  1.0000 wB97X-V
 Using Euler-Maclaurin-Lebedev (99,590) quadrature formula
 Nonlocal Correlation:  VV10 with C = 0.0100 and b = 6.00 and scale = 1.00000
 Grid used for NLC:  SG-1 standard quadrature
Energy prior to optimization (guess energy) = -271.520698505201
Begin Timing: Total SCF Calculation
begin iterations for algorithm: DIIS         
the SCF tolerance is set to 1.00e-08
    1    -271.5206985052      1.94e-03     00000 
    2    -271.5614164648      1.26e-03     00000 
    3    -271.5847139984      1.55e-04     00000 
    4    -271.5854194811      4.65e-05     00000 
    5    -271.5854699924      2.20e-05     00000 
    6    -271.5854778834      5.74e-06     00000 
    7    -271.5854786369      1.78e-06     00000 
    8    -271.5854786952      4.46e-07     00000 
    9    -271.5854787007      8.26e-08     00000 
   10    -271.5854787011      4.12e-08     00000 
   11    -271.5854787011      1.59e-08     00000 
   12    -271.5854787011      5.99e-09     00000 Convergence criterion met
Timing for Total SCF: 1333.00s (wall), 2650.94s (cpu)
(3)  G-ENP(liq) elect-nuc-pol free energy of system     -271.585478701 a.u.
(4)  G-CDS(liq) cavity-dispersion-solvent structure 
     free energy                                                3.1941 kcal/mol
(6)  G-S(liq) free energy of system                     -271.580388570 a.u.
E_pcm = -0.0076294550
E_cds = 0.0050901313
Multipole orders to be included
        2
        3
computing dipole RHS
computing quadrupole RHS
total number of RHS in solve_reponses: 8
RHS batch sizes
        8
Beginning Block Conjugate Gradient Iterations. Batch Number: 0
computing hessian-vector products by finite difference
              1      6.16e-01     00000 Conjugate Gradient Iteration
computing hessian-vector products by finite difference
              2      1.84e-01     00000 Conjugate Gradient Iteration
computing hessian-vector products by finite difference
              3      4.41e-02     00000 Conjugate Gradient Iteration
computing hessian-vector products by finite difference
              4      1.12e-02     00000 Conjugate Gradient Iteration
computing hessian-vector products by finite difference
              5      2.11e-03     00000 Conjugate Gradient Iteration
computing hessian-vector products by finite difference
              6      5.94e-04     00000 Conjugate Gradient Iteration
computing hessian-vector products by finite difference
              7      1.51e-04     00000 Conjugate Gradient Iteration
computing hessian-vector products by finite difference
              8      2.46e-05     00000 Conjugate Gradient Iteration
computing hessian-vector products by finite difference
              9      3.70e-06     00000 Conjugate Gradient Iteration
computing hessian-vector products by finite difference
             10      8.27e-07     00000 Conjugate Gradient Iteration
computing hessian-vector products by finite difference
             11      1.57e-07     00000 Conjugate Gradient Iteration
computing hessian-vector products by finite difference
             12      2.32e-08     00000 Conjugate Gradient Iteration
computing hessian-vector products by finite difference
             13      3.35e-09     00000 CG Converged
batch 0 complete
Done Calculating Responses
TESTING ORTHOGONALIZATION OF MULTIPOLE BASIS
Multipole virts passed orthogonality test
Virts Per Order
           75
          125
 
 --------------------------------------------------------------
 
                    Orbital Energies (a.u.)
 --------------------------------------------------------------
 
 Alpha MOs
 -- Occupied --
-10.2776 -10.2706 -10.2684 -10.2674 -10.2659 -10.2639 -10.2533  -0.9914
 -0.9015  -0.8736  -0.8066  -0.7249  -0.7006  -0.6232  -0.5676  -0.5617
 -0.5282  -0.5239  -0.5084  -0.4808  -0.4679  -0.4364  -0.4344  -0.3455
 -0.3343
 -- Virtual --
  0.0656   0.0683   0.0707   0.0843   0.0899   0.1095   0.1157   0.1183
  0.1410   0.1596   0.1710   0.1745   0.1919   0.1951   0.1997   0.2066
  0.2278   0.2302   0.2391   0.2441   0.2553   0.2644   0.2670   0.2758
  0.2862   0.2877   0.2891   0.2959   0.2980   0.3063   0.3078   0.3153
  0.3241   0.3295   0.3361   0.3412   0.3551   0.3577   0.3714   0.3777
  0.3820   0.3874   0.3890   0.3929   0.3956   0.4041   0.4071   0.4124
  0.4172   0.4336   0.4349   0.4394   0.4456   0.4518   0.4550   0.4569
  0.4678   0.4761   0.4798   0.4871   0.4957   0.5003   0.5172   0.5201
  0.5233   0.5280   0.5403   0.5439   0.5467   0.5515   0.5536   0.5724
  0.5867   0.5931   0.5971   0.6018   0.6042   0.6252   0.6440   0.6449
  0.6677   0.6787   0.6865   0.6893   0.6937   0.7024   0.7256   0.7261
  0.7327   0.7351   0.7492   0.7597   0.7668   0.7700   0.7801   0.7895
  0.7939   0.7970   0.8016   0.8074   0.8108   0.8255   0.8303   0.8360
  0.8382   0.8417   0.8490   0.8576   0.8633   0.8768   0.8935   0.8987
  0.9120   0.9228   0.9351   0.9501   0.9558   1.0123   1.0269   1.0434
  1.0482   1.0622   1.0743   1.0793   1.0915   1.0962   1.1056   1.1435
  1.1665   1.1824   1.2546   1.2783   1.2990   1.3258   1.3518   1.3575
  1.3786   1.4381   1.4527   1.4609   1.4678   1.4887   1.5276   1.5408
  1.6042   1.6066   1.6211   1.6291   1.6682   1.6777   1.7418   1.7813
  1.7955   1.8016   1.8043   1.8185   1.8350   1.8695   1.8921   1.9174
  1.9208   1.9306   1.9489   1.9668   1.9897   1.9981   2.0182   2.0270
  2.0318   2.0519   2.0747   2.0966   2.1194   2.1270   2.1773   2.1859
  2.2023   2.2425   2.2485   2.2740   2.2882   2.3141   2.3941   2.3974
  2.4052   2.4164   2.4908   2.5152   2.5387   2.5558   2.5638   2.6130
  2.6221   2.6311   2.6764   2.6794   2.7009   2.7186   2.7591   2.7684
  2.7866   2.8116   2.8225   2.8482   2.8670   2.9041   2.9114   2.9205
  2.9359   2.9461   2.9636   2.9770   2.9952   3.0210   3.0252   3.0523
  3.0688   3.0879   3.1081   3.1326   3.1830   3.1957   3.2075   3.2278
  3.2399   3.2447   3.2927   3.3055   3.3321   3.3590   3.3695   3.3774
  3.4032   3.4433   3.4482   3.4516   3.4650   3.4744   3.4937   3.4979
  3.5100   3.5337   3.5417   3.5454   3.5614   3.5678   3.5894   3.6066
  3.6225   3.6344   3.6558   3.6891   3.7096   3.7476   3.7800   3.8099
  3.8451   3.8999   3.9141   3.9533   3.9612   3.9929   4.0350   4.0530
  4.1223   4.2027   4.2713   4.2738   4.2958   4.3122   4.3236   4.3312
  4.3419   4.3641   4.3813   4.3978   4.4250   4.4417   4.4780   4.5248
  4.6059   4.6348   4.7446   4.7659   4.8242   4.8847   4.9081   4.9486
  5.0237   5.0468   5.1614   5.2706   5.3561   5.3703   5.5018   5.5354
  5.6662   5.8522  22.5896  22.6804  22.8796  22.8884  23.0028  23.0649
 23.4100
 --------------------------------------------------------------
 
          Ground-State Mulliken Net Atomic Charges

     Atom                 Charge (a.u.)
  ----------------------------------------
      1 C                    -1.084475
      2 C                    -0.565810
      3 C                    -0.562718
      4 C                    -0.560050
      5 C                    -0.388461
      6 C                    -0.433282
      7 C                     0.823666
      8 H                     0.404243
      9 H                     0.378003
     10 H                     0.381963
     11 H                     0.401597
     12 H                     0.379130
     13 H                     0.300706
     14 H                     0.279834
     15 H                     0.245654
  ----------------------------------------
  Sum of atomic charges =     0.000000

 -----------------------------------------------------------------
                    Cartesian Multipole Moments
 -----------------------------------------------------------------
    Charge (ESU x 10^10)
                 0.0000
    Dipole Moment (Debye)
         X       0.5257      Y       0.0985      Z       0.2015
       Tot       0.5715
    Quadrupole Moments (Debye-Ang)
        XX     -37.4349     XY       3.6648     YY     -43.3166
        XZ       2.1881     YZ      -2.8886     ZZ     -38.7609
    Octopole Moments (Debye-Ang^2)
       XXX    -105.1984    XXY     -75.0080    XYY     -25.1675
       YYY    -264.2111    XXZ     -47.1368    XYZ       5.9629
       YYZ     -66.5476    XZZ     -32.3814    YZZ     -86.0780
       ZZZ    -146.6212
    Hexadecapole Moments (Debye-Ang^3)
      XXXX    -720.4661   XXXY    -264.5817   XXYY    -295.2283
      XYYY    -247.1907   YYYY   -1225.0277   XXXZ    -204.8877
      XXYZ     -86.0973   XYYZ     -61.6736   YYYZ    -330.3532
      XXZZ    -229.8285   XYZZ     -83.6933   YYZZ    -327.6120
      XZZZ    -195.4989   YZZZ    -286.7896   ZZZZ    -653.5367
 -----------------------------------------------------------------
Archival summary:
1\1\nid00566\SP\ProcedureUnspecified\BasisUnspecified\78\meili\SunSep2616:24:172021SunSep2616:24:172021\0\\#,ProcedureUnspecified,BasisUnspecified,\\0,1\C\C,1,1.39493\H,2,1.07798,1,119.954\C,2,1.39571,1,120.688,3,178.564,0\H,4,1.07416,2,117.896,1,179.421,0\C,4,1.39601,2,120.088,1,-0.180473,0\H,6,1.08142,4,120.285,2,179.451,0\C,1,1.3968,2,119.196,3,-178.216,0\H,8,1.07966,1,119.755,2,179.72,0\C,6,1.39834,4,119.637,2,-0.0379978,0\H,10,1.08134,6,119.959,4,-179.778,0\C,1,1.50124,2,120.312,3,2.2351,0\H,12,1.08863,1,107.701,2,-141.059,0\H,12,1.0919,1,109.622,2,-24.0684,0\H,12,1.1,1,114.071,2,99.5103,0\\\@

 Total job time:  28937.93s(wall), 57404.05s(cpu) 
 Sun Sep 26 16:24:21 2021

        *************************************************************
        *                                                           *
        *  Thank you very much for using Q-Chem.  Have a nice day.  *
        *                                                           *
        *************************************************************


Done Job For Fragment 0
calling putenv with: QCSCRATCH=/global/cscratch1/sd/meili 
calling putenv with: QCLOCALSCR=/tmp 
calling putenv with: QCTHREADS=32 
Creating input file /tmp/qchem26945/Frg2.input
using default PutDataFrgm: nothing
calling putenv with: QCSCRATCH=/tmp/qchem26945/ 
calling putenv with: QCLOCALSCR=/tmp/qchem26945/ 
Spawning Job For Fragment 1
                  Welcome to Q-Chem
     A Quantum Leap Into The Future Of Chemistry


 Q-Chem 5.2, Q-Chem, Inc., Pleasanton, CA (2019)

 License issued to: National Energy Research Scientific Computing Center

 Yihan Shao,  Zhengting Gan,  E. Epifanovsky,  A. T. B. Gilbert,  M. Wormit,  
 J. Kussmann,  A. W. Lange,  A. Behn,  Jia Deng,  Xintian Feng,  D. Ghosh,  
 M. Goldey,  P. R. Horn,  L. D. Jacobson,  I. Kaliman,  T. Kus,  A. Landau,  
 Jie Liu,  E. I. Proynov,  R. M. Richard,  R. P. Steele,  E. J. Sundstrom,  
 H. L. Woodcock III,  P. M. Zimmerman,  D. Zuev,  B. Albrecht,  E. Alguire,  
 S. A. Baeppler,  D. Barton,  Z. Benda,  Y. A. Bernard,  E. J. Berquist,  
 K. B. Bravaya,  H. Burton,  D. Casanova,  Chun-Min Chang,  Yunqing Chen,  
 A. Chien,  K. D. Closser,  M. P. Coons,  S. Coriani,  S. Dasgupta,  
 A. L. Dempwolff,  M. Diedenhofen,  Hainam Do,  R. G. Edgar,  Po-Tung Fang,  
 S. Faraji,  S. Fatehi,  Qingguo Feng,  K. D. Fenk,  J. Fosso-Tande,  
 J. Gayvert,  Qinghui Ge,  A. Ghysels,  G. Gidofalvi,  J. Gomes,  
 J. Gonthier,  A. Gunina,  D. Hait,  M. W. D. Hanson-Heine,  
 P. H. P. Harbach,  A. W. Hauser,  M. F. Herbst,  J. E. Herr,  
 E. G. Hohenstein,  Z. C. Holden,  Kerwin Hui,  B. C. Huynh,  T.-C. Jagau,  
 Hyunjun Ji,  B. Kaduk,  K. Khistyaev,  Jaehoon Kim,  P. Klunzinger,  K. Koh,  
 D. Kosenkov,  L. Koulias,  T. Kowalczyk,  C. M. Krauter,  A. Kunitsa,  
 Ka Un Lao,  A. Laurent,  K. V. Lawler,  Joonho Lee,  D. Lefrancois,  
 S. Lehtola,  D. S. Levine,  Yi-Pei Li,  You-Sheng Lin,  Fenglai Liu,  
 E. Livshits,  A. Luenser,  P. Manohar,  E. Mansoor,  S. F. Manzer,  
 Shan-Ping Mao,  Yuezhi Mao,  N. Mardirossian,  A. V. Marenich,  
 T. Markovich,  L. A. Martinez-Martinez,  S. A. Maurer,  N. J. Mayhall,  
 S. C. McKenzie,  J.-M. Mewes,  P. Morgante,  A. F. Morrison,  
 J. W. Mullinax,  K. Nanda,  T. S. Nguyen-Beck,  R. Olivares-Amaya,  
 J. A. Parkhill,  Zheng Pei,  T. M. Perrine,  F. Plasser,  P. Pokhilko,  
 S. Prager,  A. Prociuk,  E. Ramos,  D. R. Rehn,  F. Rob,  M. Scheurer,  
 M. Schneider,  N. Sergueev,  S. M. Sharada,  S. Sharma,  D. W. Small,  
 T. Stauch,  T. Stein,  Yu-Chuan Su,  A. J. W. Thom,  A. Tkatchenko,  
 T. Tsuchimochi,  N. M. Tubman,  L. Vogt,  M. L. Vidal,  O. Vydrov,  
 M. A. Watson,  J. Wenzel,  M. de Wergifosse,  T. A. Wesolowski,  A. White,  
 J. Witte,  A. Yamada,  Jun Yang,  K. Yao,  S. Yeganeh,  S. R. Yost,  
 Zhi-Qiang You,  A. Zech,  Igor Ying Zhang,  Xing Zhang,  Yan Zhao,  
 Ying Zhu,  B. R. Brooks,  G. K. L. Chan,  C. J. Cramer,  M. S. Gordon,  
 W. J. Hehre,  A. Klamt,  M. W. Schmidt,  C. D. Sherrill,  D. G. Truhlar,  
 A. Aspuru-Guzik,  R. Baer,  A. T. Bell,  N. A. Besley,  Jeng-Da Chai,  
 A. E. DePrince, III,  R. A. DiStasio Jr.,  A. Dreuw,  B. D. Dunietz,  
 T. R. Furlani,  Chao-Ping Hsu,  Yousung Jung,  Jing Kong,  D. S. Lambrecht,  
 WanZhen Liang,  C. Ochsenfeld,  V. A. Rassolov,  L. V. Slipchenko,  
 J. E. Subotnik,  T. Van Voorhis,  J. M. Herbert,  A. I. Krylov,  
 P. M. W. Gill,  M. Head-Gordon

 Contributors to earlier versions of Q-Chem not listed above: 
 R. D. Adamson,  B. Austin,  J. Baker,  G. J. O. Beran,  K. Brandhorst,  
 S. T. Brown,  E. F. C. Byrd,  A. K. Chakraborty,  C.-L. Cheng,  
 Siu Hung Chien,  D. M. Chipman,  D. L. Crittenden,  H. Dachsel,  
 R. J. Doerksen,  A. D. Dutoi,  L. Fusti-Molnar,  W. A. Goddard III,  
 A. Golubeva-Zadorozhnaya,  S. R. Gwaltney,  G. Hawkins,  A. Heyden,  
 S. Hirata,  G. Kedziora,  F. J. Keil,  C. Kelley,  Jihan Kim,  R. A. King,  
 R. Z. Khaliullin,  P. P. Korambath,  W. Kurlancheek,  A. M. Lee,  M. S. Lee,  
 S. V. Levchenko,  Ching Yeh Lin,  D. Liotard,  R. C. Lochan,  I. Lotan,  
 P. E. Maslen,  N. Nair,  D. P. O'Neill,  D. Neuhauser,  E. Neuscamman,  
 C. M. Oana,  R. Olson,  B. Peters,  R. Peverati,  P. A. Pieniazek,  
 Y. M. Rhee,  J. Ritchie,  M. A. Rohrdanz,  E. Rosta,  N. J. Russ,  
 H. F. Schaefer III,  N. E. Schultz,  N. Shenvi,  A. C. Simmonett,  A. Sodt,  
 D. Stuck,  K. S. Thanthiriwatte,  V. Vanovschi,  Tao Wang,  A. Warshel,  
 C. F. Williams,  Q. Wu,  X. Xu,  W. Zhang

 Please cite Q-Chem as follows:
 Y. Shao et al., Mol. Phys. 113, 184-215 (2015)
 DOI: 10.1080/00268976.2014.952696

 Q-Chem 5.2.0 for Intel X86 EM64T Linux

 Parts of Q-Chem use Armadillo 8.300.2 (Tropical Shenanigans).
 http://arma.sourceforge.net/

 Q-Chem begins on Sun Sep 26 16:24:26 2021  

Host: cori01
0

     Scratch files written to /tmp/qchem26945//Frg2//
 May1019 |scratch|qcdevops|jenkins|workspace|build_RNUM -1
Processing $rem in /global/common/cori/software/qchem/5.2/config/preferences:
	 MEM_TOTAL  96000 
NAlpha2: 48
NElect   48
Mult     1
Symmetry turned off for PCM/SM12/SMD calculation

Checking the input file for inconsistencies... 	...done.

--------------------------------------------------------------
User input:
--------------------------------------------------------------
$molecule
1 1
 6	0.2734748885	-1.2550714194	-1.4952504217
 6	0.5744748885	-0.1720714194	-2.5212504217
 6	-1.5745251115	-2.8010714194	-0.9532504217
 7	-1.0695251115	-1.8150714194	-1.6792504217
 7	-0.8645251115	-3.3420714194	0.0207495783
 7	-2.7855251115	-3.2590714194	-1.2052504217
 1	1.0184748885	-2.0450714194	-1.6082504217
 1	0.3574748885	-0.8210714194	-0.4952504217
 1	-0.1495251115	0.6359285806	-2.4202504217
 1	0.4984748885	-0.5980714194	-3.5212504217
 1	-1.6335251115	-1.4470714194	-2.4322504217
 1	0.0744748885	-3.0030714194	0.2227495783
 1	-1.1965251115	-4.1830714194	0.4677495783
 1	-3.3225251115	-2.8790714194	-1.9692504217
 1	-3.1735251115	-4.0290714194	-0.6802504217
 1	1.5867248885	0.2258835806	-2.3570034217
$end
$rem
EDA2		1
METHOD		WB97X-V
BASIS		DEF2-TZVPD
XC_GRID		000099000590
NL_GRID		1
UNRESTRICTED		FALSE
MAX_SCF_CYCLES		200
SYMMETRY		FALSE
SYM_IGNORE		TRUE
BASIS_LIN_DEP_THRESH		6
THRESH		14
SCF_CONVERGENCE		8
SCF_PRINT_FRGM		TRUE
SOLVENT_METHOD		SMD
!required keywords
JOBTYPE		SP
SYM_IGNORE		TRUE
SUBSYSTEM		TRUE
GEN_SCFMAN		TRUE
CHILD_INSTRUCTION		2
SYM_IGNORE		TRUE
SCFMI		0
RI_K 0		
PARI_K 0		
MIN_PARI_K 0		
IARI_K 0		
OCC_RI_K 0		
PURECART		1111
MEM_STATIC		2000
MEM_TOTAL		96000
GUI		0
CHILD_MP		1
CHILD_MP_ORDERS		232
FRZ_RELAX		0
FRZ_RELAX_METHOD		0
EDA_CLS_ELEC		1
EDA_CLS_DISP		0
FRZ_ORTHO_DECOMP		1
EDA2		FALSE
FRGM_METHOD		FALSE
CIS_N_ROOTS  0
LOCAL_CIS    0
CIS_RLX_DNS  1
$end
$smx
SOLVENT			WATER
$end
--------------------------------------------------------------
 ----------------------------------------------------------------
             Standard Nuclear Orientation (Angstroms)
    I     Atom           X                Y                Z
 ----------------------------------------------------------------
    1      C       0.2734748885    -1.2550714194    -1.4952504217
    2      C       0.5744748885    -0.1720714194    -2.5212504217
    3      C      -1.5745251115    -2.8010714194    -0.9532504217
    4      N      -1.0695251115    -1.8150714194    -1.6792504217
    5      N      -0.8645251115    -3.3420714194     0.0207495783
    6      N      -2.7855251115    -3.2590714194    -1.2052504217
    7      H       1.0184748885    -2.0450714194    -1.6082504217
    8      H       0.3574748885    -0.8210714194    -0.4952504217
    9      H      -0.1495251115     0.6359285806    -2.4202504217
   10      H       0.4984748885    -0.5980714194    -3.5212504217
   11      H      -1.6335251115    -1.4470714194    -2.4322504217
   12      H       0.0744748885    -3.0030714194     0.2227495783
   13      H      -1.1965251115    -4.1830714194     0.4677495783
   14      H      -3.3225251115    -2.8790714194    -1.9692504217
   15      H      -3.1735251115    -4.0290714194    -0.6802504217
   16      H       1.5867248885     0.2258835806    -2.3570034217
 ----------------------------------------------------------------
 Nuclear Repulsion Energy =         256.50190851 hartrees
 There are       24 alpha and       24 beta electrons
 Requested basis set is def2-TZVPD
 There are 128 shells and 312 basis functions

 Total QAlloc Memory Limit  96000 MB
 Mega-Array Size      1956 MB
 MEM_STATIC part      2000 MB
 
 Citation of the SMD model:
 Marenich, A.V.; Cramer, C.J.; Truhlar, D.G.
 J. Phys. Chem. B 2009, 113, 6378-6396.
 iSolventCode=           1
 Solvent: water                                                           
 
 vradii
            1           2           3           4           5           6
    1   1.8500000   1.8500000   1.8500000   1.8900000   1.8900000   1.8900000
            7           8           9          10          11          12
    1   1.2000000   1.2000000   1.2000000   1.2000000   1.2000000   1.2000000
           13          14          15          16
    1   1.2000000   1.2000000   1.2000000   1.2000000
 Changing PCM_VDW_RADII to SMD_RADIUS
 Discretize the solute cavity surface with Lebedev spheres
	Using 110 Lebedev grid points for each H atom
	Using 194 Lebedev grid points for other atoms
	Atomic van der Waals radii will be scaled by 1.20
 Remove points where switching function is < 1.0e-08
 Keep 1110 surface tesserae and discard 1154 interior tesserae
 Molecular Surface Area = 133.902 Angst**2
 A cutoff of  1.0D-14 yielded   7896 shell pairs
 There are     47570 function pairs (     59278 Cartesian)
 Smallest overlap matrix eigenvalue = 7.61E-06

 Scale SEOQF with 1.000000e-01/1.000000e-01/1.000000e-01

 Standard Electronic Orientation quadrupole field applied
 Nucleus-field energy     =     0.0000000116 hartrees
 Guess from superposition of atomic densities
 Warning:  Energy on first SCF cycle will be non-variational
 SAD guess density has 48.375862 electrons

 -----------------------------------------------------------------------
  General SCF calculation program by
  Eric Jon Sundstrom, Paul Horn, Yuezhi Mao, Dmitri Zuev, Alec White,
  David Stuck, Shaama M.S., Shane Yost, Joonho Lee, David Small,
  Daniel Levine, Susi Lehtola, Hugh Burton, Evgeny Epifanovsky
 -----------------------------------------------------------------------
 Exchange:     0.1670 Hartree-Fock + 1.0000 wB97X-V + LR-HF
 Correlation:  1.0000 wB97X-V
 Using Euler-Maclaurin-Lebedev (99,590) quadrature formula
 Nonlocal Correlation:  VV10 with C = 0.0100 and b = 6.00 and scale = 1.00000
 Grid used for NLC:  SG-1 standard quadrature
Energy prior to optimization (guess energy) = -284.036750576619
Begin Timing: Total SCF Calculation
begin iterations for algorithm: DIIS         
the SCF tolerance is set to 1.00e-08
    1    -284.0367505766      6.61e-03     00000 
    2    -284.2788624802      5.20e-03     00000 
    3    -284.5254752794      3.07e-04     00000 
    4    -284.5267514241      1.60e-04     00000 
    5    -284.5270682399      4.54e-05     00000 
    6    -284.5270957781      1.84e-05     00000 
    7    -284.5271002634      3.32e-06     00000 
    8    -284.5271005695      9.20e-07     00000 
    9    -284.5271005909      4.41e-07     00000 
   10    -284.5271005954      1.17e-07     00000 
   11    -284.5271005959      5.23e-08     00000 
   12    -284.5271005960      1.56e-08     00000 
   13    -284.5271005960      2.24e-09     00000 Convergence criterion met
Timing for Total SCF: 1248.00s (wall), 2477.50s (cpu)
(3)  G-ENP(liq) elect-nuc-pol free energy of system     -284.527100596 a.u.
(4)  G-CDS(liq) cavity-dispersion-solvent structure 
     free energy                                                2.7457 kcal/mol
(6)  G-S(liq) free energy of system                     -284.522725082 a.u.
E_pcm = -0.1065053449
E_cds = 0.0043755136
Multipole orders to be included
        2
        3
computing dipole RHS
computing quadrupole RHS
total number of RHS in solve_reponses: 8
RHS batch sizes
        8
Beginning Block Conjugate Gradient Iterations. Batch Number: 0
computing hessian-vector products by finite difference
              1      4.58e-01     00000 Conjugate Gradient Iteration
computing hessian-vector products by finite difference
              2      1.63e-01     00000 Conjugate Gradient Iteration
computing hessian-vector products by finite difference
              3      4.79e-02     00000 Conjugate Gradient Iteration
computing hessian-vector products by finite difference
              4      1.29e-02     00000 Conjugate Gradient Iteration
computing hessian-vector products by finite difference
              5      1.85e-03     00000 Conjugate Gradient Iteration
computing hessian-vector products by finite difference
              6      3.56e-04     00000 Conjugate Gradient Iteration
computing hessian-vector products by finite difference
              7      5.43e-05     00000 Conjugate Gradient Iteration
computing hessian-vector products by finite difference
              8      1.06e-05     00000 Conjugate Gradient Iteration
computing hessian-vector products by finite difference
              9      1.57e-06     00000 Conjugate Gradient Iteration
computing hessian-vector products by finite difference
             10      1.92e-07     00000 Conjugate Gradient Iteration
computing hessian-vector products by finite difference
             11      2.21e-08     00000 Conjugate Gradient Iteration
computing hessian-vector products by finite difference
             12      3.13e-09     00000 CG Converged
batch 0 complete
Done Calculating Responses
TESTING ORTHOGONALIZATION OF MULTIPOLE BASIS
Multipole virts passed orthogonality test
Virts Per Order
           72
          120
 
 --------------------------------------------------------------
 
                    Orbital Energies (a.u.)
 --------------------------------------------------------------
 
 Alpha MOs
 -- Occupied --
-14.4524 -14.4484 -14.4453 -10.4220 -10.3097 -10.2606  -1.1728  -1.0571
 -1.0412  -0.8989  -0.7827  -0.7567  -0.7187  -0.6822  -0.6147  -0.6099
 -0.6046  -0.5745  -0.5526  -0.4947  -0.4717  -0.4673  -0.3993  -0.3750
 -- Virtual --
  0.0595   0.0823   0.0874   0.1022   0.1138   0.1212   0.1275   0.1324
  0.1555   0.1639   0.1689   0.1870   0.1959   0.1981   0.2100   0.2126
  0.2178   0.2249   0.2326   0.2466   0.2572   0.2574   0.2691   0.2732
  0.2751   0.2864   0.2903   0.2977   0.3081   0.3225   0.3291   0.3346
  0.3365   0.3483   0.3499   0.3513   0.3548   0.3561   0.3728   0.3754
  0.3833   0.3877   0.3917   0.4035   0.4053   0.4086   0.4264   0.4282
  0.4349   0.4457   0.4579   0.4605   0.4743   0.4757   0.4863   0.4869
  0.4898   0.5038   0.5066   0.5102   0.5187   0.5273   0.5285   0.5358
  0.5414   0.5532   0.5593   0.5608   0.5714   0.5812   0.5865   0.6008
  0.6042   0.6172   0.6352   0.6552   0.6642   0.6725   0.6791   0.6889
  0.6918   0.7062   0.7125   0.7398   0.7472   0.7639   0.7692   0.7775
  0.7870   0.7954   0.7995   0.8104   0.8257   0.8380   0.8456   0.8532
  0.8612   0.8712   0.8911   0.9051   0.9199   0.9248   0.9333   0.9351
  0.9522   0.9954   1.0061   1.0165   1.0376   1.0536   1.0650   1.0880
  1.1002   1.1029   1.1173   1.1369   1.1703   1.1781   1.1868   1.2124
  1.2227   1.2639   1.2824   1.3135   1.3422   1.3806   1.3908   1.4108
  1.4422   1.4554   1.4642   1.5066   1.5120   1.5518   1.5763   1.5939
  1.6825   1.6854   1.7111   1.7162   1.7552   1.8221   1.8396   1.8827
  1.8866   1.8911   1.9199   1.9314   1.9406   1.9454   1.9705   1.9818
  1.9897   2.0022   2.0462   2.0631   2.0818   2.1276   2.1298   2.1482
  2.1876   2.2071   2.2294   2.2475   2.2631   2.2988   2.3150   2.3365
  2.4022   2.4153   2.4184   2.4488   2.4694   2.5209   2.5522   2.5613
  2.5873   2.5943   2.6264   2.6402   2.6559   2.6789   2.6886   2.7226
  2.7431   2.7627   2.7776   2.8304   2.8368   2.8555   2.8822   2.8995
  2.9029   2.9250   2.9504   2.9675   3.0059   3.0587   3.1145   3.1512
  3.1586   3.1737   3.1884   3.2019   3.2375   3.2531   3.2861   3.2897
  3.3079   3.3326   3.3437   3.3634   3.3948   3.4098   3.4262   3.4318
  3.4812   3.5006   3.5119   3.5537   3.5655   3.6051   3.6408   3.6484
  3.6823   3.7068   3.7316   3.8223   3.9065   3.9161   3.9445   3.9643
  4.0133   4.0714   4.0974   4.1599   4.1854   4.2763   4.3187   4.3359
  4.3465   4.3730   4.3887   4.4282   4.5611   4.5661   4.6311   4.6761
  4.6847   4.8192   4.8500   4.8670   4.8755   4.9645   4.9936   5.0226
  5.0525   5.0712   5.1257   5.1431   5.1494   5.2202   5.2228   5.2250
  5.3027   5.3722   5.4055   5.4321   5.4549   5.4797   5.5117   5.5509
  5.5953   5.6803   5.7250   5.8219   5.8701   5.9336   6.1680   6.1964
  6.4135   6.4966  22.6385  22.8671  23.6869  32.3458  32.5141  32.9208
 --------------------------------------------------------------
 
          Ground-State Mulliken Net Atomic Charges

     Atom                 Charge (a.u.)
  ----------------------------------------
      1 C                    -0.312009
      2 C                    -1.149574
      3 C                     0.384517
      4 N                    -0.084308
      5 N                    -0.283571
      6 N                    -0.302685
      7 H                     0.313668
      8 H                     0.310316
      9 H                     0.293475
     10 H                     0.299290
     11 H                     0.289282
     12 H                     0.234070
     13 H                     0.247688
     14 H                     0.248992
     15 H                     0.242620
     16 H                     0.268227
  ----------------------------------------
  Sum of atomic charges =     1.000000

 -----------------------------------------------------------------
                    Cartesian Multipole Moments
 -----------------------------------------------------------------
    Charge (ESU x 10^10)
                 4.8032
    Dipole Moment (Debye)
         X      -6.8249      Y     -13.2345      Z      -5.1749
       Tot      15.7643
    Quadrupole Moments (Debye-Ang)
        XX     -13.9179     XY      24.4781     YY       8.6178
        XZ      10.6975     YZ       6.9898     ZZ     -24.2679
    Octopole Moments (Debye-Ang^2)
       XXX      24.4343    XXY      -1.7168    XYY     -62.3885
       YYY      52.4699    XXZ      13.2906    XYZ     -24.8724
       YYZ      42.7637    XZZ       6.4717    YZZ      54.7455
       ZZZ     119.6188
    Hexadecapole Moments (Debye-Ang^3)
      XXXX    -294.2555   XXXY     -77.6266   XXYY     -19.2469
      XYYY      51.6557   YYYY    -609.0189   XXXZ      32.8236
      XXYZ      21.8719   XYYZ      33.2392   YYYZ    -217.9368
      XXZZ    -111.5707   XYZZ     -55.4458   YYZZ    -282.7457
      XZZZ     -19.4965   YZZZ    -158.2609   ZZZZ    -534.7707
 -----------------------------------------------------------------
Archival summary:
1\1\nid00566\SP\ProcedureUnspecified\BasisUnspecified\3310(1+,1)\meili\SunSep2622:38:022021SunSep2622:38:022021\0\\#,ProcedureUnspecified,BasisUnspecified,\\1,1\N\H,1,1.01021\C,1,1.3245,2,117.832\N,3,1.31901,1,120.253,2,-1.14376,0\H,4,1.0082,3,120.193,1,1.79141,0\H,4,1.00949,3,121.223,1,178.06,0\N,3,1.32116,1,120.267,2,178.215,0\H,7,1.00862,3,119.424,1,-170.302,0\H,7,1.01855,3,120.355,1,0.220407,0\C,1,1.46666,2,117.752,3,177.778,0\H,10,1.09174,1,109.608,2,-119.552,0\H,10,1.09335,1,109.673,2,120.527,0\C,10,1.5219,1,111.607,2,0.135668,0\H,13,1.08961,10,109.499,1,60.1225,0\H,13,1.08961,10,109.069,1,-59.3026,0\H,13,1.1,10,109.803,1,-179.954,0\\\@

 Total job time:  22420.95s(wall), 44461.73s(cpu) 
 Sun Sep 26 22:38:07 2021

        *************************************************************
        *                                                           *
        *  Thank you very much for using Q-Chem.  Have a nice day.  *
        *                                                           *
        *************************************************************


Done Job For Fragment 1
calling putenv with: QCSCRATCH=/global/cscratch1/sd/meili 
calling putenv with: QCLOCALSCR=/tmp 
calling putenv with: QCTHREADS=32 
Doing General SCFMI
 Exchange:     0.1670 Hartree-Fock + 1.0000 wB97X-V + LR-HF
 Correlation:  1.0000 wB97X-V
 Using Euler-Maclaurin-Lebedev (99,590) quadrature formula
 Nonlocal Correlation:  VV10 with C = 0.0100 and b = 6.00 and scale = 1.00000
 Grid used for NLC:  SG-1 standard quadrature
performing fock build before subrot guess so that all methods have access
Printing subrot_rss_gen Method Specification:
Occupied Subspace Method is 0
Virtual Subspace Method is 0
Energy of the unrelaxed supersystem initial determinant -556.005453637681
performing fock build before subrot guess so that all methods have access
Printing subrot_rss_gen Method Specification:
Occupied Subspace Method is 0
Virtual Subspace Method is 0
Energy of the unrelaxed supersystem initial determinant w/ solvent -556.115293255900
write pseudocanon occs and virts to disk
write pseudocanon orbital energies to disk
Tolerance of ortho_decomp_scf: 1.00e-06
GDM subspace size: 20
Beginning the Orthogonal Decomposition of the Initial Supersystem Wavefunction
    1    -555.9871562496      1.58e-02     ortho_decomp Preconditoned Steepest Descent
    2    -555.9882020227      4.00e-04     ortho_decomp BFGS Step
    3    -555.9882055411      3.33e-05     ortho_decomp BFGS Step
    4    -555.9882055493      1.46e-06     ortho_decomp BFGS Step
    5    -555.9882055493      5.49e-08     ortho_decomp 00000 Convergence criterion met
 Hartree-Fock
 Hartree-Fock
 Hartree-Fock
Doing General SCFMI
 Exchange:     0.1670 Hartree-Fock + 1.0000 wB97X-V + LR-HF
 Correlation:  1.0000 wB97X-V
 Using Euler-Maclaurin-Lebedev (99,590) quadrature formula
 Nonlocal Correlation:  VV10 with C = 0.0100 and b = 6.00 and scale = 1.00000
 Grid used for NLC:  SG-1 standard quadrature
performing fock build at end of subrot_r(subrot) constructor so that all methods have access
<S^2> of initial wavefunction before polarization iterations 0.0000000000
Beginning iterations for the determination of the polarized wavefunction
Energy prior to optimization (guess energy) = -556.115293255900
Begin Timing: Total SCF Calculation
begin iterations for algorithm: DIIS         
the SCF tolerance is set to 1.00e-08
    1    -556.1152932559      3.36e-05     00000 
    2    -556.1153984879      1.41e-05     00000 
    3    -556.1154115407      7.12e-06     00000 
    4    -556.1154155114      1.99e-06     00000 
    5    -556.1154159190      1.07e-06     00000 
    6    -556.1154160259      2.65e-07     00000 
    7    -556.1154160339      1.21e-07     00000 
    8    -556.1154160351      4.59e-08     00000 
    9    -556.1154160352      1.60e-08     00000 
   10    -556.1154160353      6.94e-09     00000 Convergence criterion met
write pseudocanon occs and virts to disk
write pseudocanon orbital energies to disk
Timing for Total SCF: 7504.00s (wall), 14937.71s (cpu)
<S^2> of polarized wavefunction after polarization iterations 0.0000000000
relaxing scfmi constraint to allow all rotations in the entire AO span
Doing General SCFMI
 Exchange:     0.1670 Hartree-Fock + 1.0000 wB97X-V + LR-HF
 Correlation:  1.0000 wB97X-V
 Using Euler-Maclaurin-Lebedev (99,590) quadrature formula
 Nonlocal Correlation:  VV10 with C = 0.0100 and b = 6.00 and scale = 1.00000
 Grid used for NLC:  SG-1 standard quadrature
performing fock build at end of subrot_r(subrot) constructor so that all methods have access
<S^2> of polarized wavefunction before ct-allowed iterations 0.0000000000
Beginning iterations for the determination of the CT-Allowed wavefunction
Energy prior to optimization (guess energy) = -556.115416035266
Begin Timing: Total SCF Calculation
begin iterations for algorithm: DIIS         
the SCF tolerance is set to 1.00e-08
    1    -556.1154160353      5.36e-05     00000 
    2    -556.1160180565      5.43e-06     00000 
    3    -556.1160357042      9.33e-07     00000 
    4    -556.1160363269      3.93e-07     00000 
    5    -556.1160363688      1.16e-07     00000 
    6    -556.1160363757      3.49e-08     00000 
    7    -556.1160363761      1.29e-08     00000 
    8    -556.1160363762      2.79e-09     00000 Convergence criterion met
write pseudocanon occs and virts to disk
write pseudocanon orbital energies to disk
Timing for Total SCF: 5761.00s (wall), 11474.12s (cpu)
<S^2> of ct_allowed wavefunction after ct-allowed iterations 0.0000000000

================================
        Results of EDA2         
================================
Basic EDA Quantities
--------------------
Fragment Energies (Ha):
1 -271.5803885698
2 -284.5227250823
--------------------
  E_prp (kJ/mol) = 0.0000
  E_sol (kJ/mol) = 9.0123
  E_frz (kJ/mol) = -18.4027
  E_pol (kJ/mol) = -0.3224
  E_vct (kJ/mol) = -1.6287
  E_int (kJ/mol) = -11.3415
--------------------


Initial Wavefunction Decomposition
--------------------
  --------------------
  Orthogonal Fragment Subspace Decomposition:
  --------------------
     E_elec   (ELEC)   (kJ/mol) = -23.5539
     E_pauli  (PAULI)  (kJ/mol) = 20.3306
     E_disp   (DISP)   (kJ/mol) = -15.1795
     --------------------
     Terms summing to E_pauli:
     --------------------
        E_kep_pauli       (kJ/mol) = 26.8827
        E_disp_free_pauli (kJ/mol) = -6.5520
  --------------------
  Classical Frozen Decomposition:
  --------------------
     E_cls_elec  (CLS ELEC)  (kJ/mol) = -15.5712
     E_cls_pauli (CLS PAULI) (kJ/mol) = -2.8315
    [E_mod_pauli (MOD PAULI) (kJ/mol) = 12.3480 (CLS PAULI - DISP from orthogonal decomposition) ]
  --------------------
--------------------

Simplified EDA Summary (kJ/mol)
--------------------
 PREPARATION     0.0000
 SOLVATION       9.0123
 FROZEN          -3.2232      (does not include dispersion)
[PAULI           20.3306]     (if this is negligible, then frozen describes electrostatics)
 DISPERSION      -15.1795
 POLARIZATION    -0.3224
 CHARGE TRANSFER -1.6287
 TOTAL           -11.3415     (PRP + SOL + FRZ + DISP + POL + CT)
--------------------
 
 --------------------------------------------------------------
 
                    Orbital Energies (a.u.)
 --------------------------------------------------------------
 
 Alpha MOs
 -- Occupied --
-14.4525 -14.4485 -14.4453 -10.4221 -10.3091 -10.2789 -10.2716 -10.2697
-10.2685 -10.2670 -10.2650 -10.2600 -10.2543  -1.1728  -1.0571  -1.0412
 -0.9926  -0.9030  -0.8983  -0.8747  -0.8077  -0.7826  -0.7565  -0.7260
 -0.7187  -0.7018  -0.6821  -0.6246  -0.6147  -0.6099  -0.6048  -0.5744
 -0.5688  -0.5629  -0.5531  -0.5289  -0.5251  -0.5096  -0.4944  -0.4818
 -0.4732  -0.4675  -0.4659  -0.4374  -0.4355  -0.3993  -0.3750  -0.3462
 -0.3351
 -- Virtual --
  0.0567   0.0638   0.0666   0.0710   0.0780   0.0836   0.0914   0.0990
  0.1027   0.1050   0.1118   0.1156   0.1248   0.1260   0.1290   0.1396
  0.1443   0.1512   0.1626   0.1639   0.1720   0.1780   0.1845   0.1883
  0.1911   0.1988   0.2027   0.2057   0.2090   0.2098   0.2142   0.2243
  0.2294   0.2322   0.2385   0.2392   0.2452   0.2491   0.2534   0.2620
  0.2626   0.2652   0.2698   0.2748   0.2781   0.2821   0.2827   0.2870
  0.2880   0.2910   0.2945   0.2996   0.3023   0.3097   0.3134   0.3151
  0.3213   0.3248   0.3304   0.3325   0.3351   0.3365   0.3397   0.3437
  0.3445   0.3516   0.3526   0.3553   0.3600   0.3632   0.3649   0.3702
  0.3732   0.3742   0.3790   0.3821   0.3878   0.3882   0.3928   0.3937
  0.3947   0.4004   0.4029   0.4091   0.4128   0.4146   0.4175   0.4252
  0.4275   0.4306   0.4346   0.4392   0.4437   0.4461   0.4478   0.4511
  0.4559   0.4589   0.4599   0.4653   0.4663   0.4710   0.4752   0.4769
  0.4828   0.4841   0.4902   0.4940   0.4990   0.5012   0.5045   0.5060
  0.5101   0.5140   0.5166   0.5183   0.5240   0.5255   0.5332   0.5369
  0.5427   0.5464   0.5480   0.5513   0.5528   0.5540   0.5612   0.5664
  0.5702   0.5712   0.5808   0.5824   0.5911   0.5924   0.5976   0.5998
  0.6024   0.6104   0.6157   0.6227   0.6241   0.6278   0.6353   0.6374
  0.6421   0.6528   0.6550   0.6627   0.6642   0.6713   0.6724   0.6789
  0.6843   0.6867   0.6939   0.6961   0.6996   0.7026   0.7097   0.7110
  0.7158   0.7199   0.7301   0.7331   0.7405   0.7466   0.7520   0.7584
  0.7598   0.7632   0.7674   0.7735   0.7744   0.7765   0.7855   0.7918
  0.7945   0.7966   0.7997   0.8007   0.8030   0.8090   0.8111   0.8139
  0.8204   0.8235   0.8290   0.8394   0.8427   0.8457   0.8517   0.8528
  0.8599   0.8610   0.8657   0.8715   0.8768   0.8771   0.8816   0.8927
  0.8972   0.9003   0.9034   0.9120   0.9179   0.9227   0.9331   0.9354
  0.9407   0.9454   0.9471   0.9557   0.9593   0.9662   0.9687   0.9797
  0.9865   0.9889   1.0033   1.0109   1.0240   1.0269   1.0343   1.0401
  1.0550   1.0627   1.0728   1.0749   1.0911   1.0931   1.0964   1.1086
  1.1134   1.1211   1.1292   1.1388   1.1452   1.1610   1.1686   1.1783
  1.1860   1.1879   1.2017   1.2211   1.2229   1.2360   1.2418   1.2535
  1.2615   1.2878   1.3015   1.3191   1.3230   1.3484   1.3522   1.3640
  1.3729   1.3844   1.3983   1.4030   1.4219   1.4339   1.4439   1.4554
  1.4659   1.4748   1.4783   1.4865   1.4947   1.5100   1.5193   1.5226
  1.5333   1.5411   1.5527   1.5605   1.5781   1.5935   1.6084   1.6149
  1.6275   1.6421   1.6510   1.6789   1.6888   1.6962   1.7238   1.7347
  1.7416   1.7814   1.7944   1.8031   1.8158   1.8204   1.8295   1.8406
  1.8582   1.8942   1.9023   1.9050   1.9129   1.9184   1.9321   1.9401
  1.9442   1.9474   1.9508   1.9610   1.9634   1.9770   1.9846   1.9953
  2.0007   2.0134   2.0215   2.0259   2.0406   2.0453   2.0535   2.0585
  2.0769   2.0824   2.0907   2.0930   2.1024   2.1174   2.1308   2.1361
  2.1645   2.1731   2.1875   2.1898   2.2027   2.2079   2.2271   2.2309
  2.2486   2.2556   2.2682   2.2727   2.2865   2.2970   2.3026   2.3083
  2.3191   2.3267   2.3495   2.3612   2.3726   2.4121   2.4178   2.4203
  2.4317   2.4346   2.4541   2.4765   2.4923   2.4965   2.5104   2.5317
  2.5499   2.5527   2.5712   2.5838   2.5864   2.6044   2.6220   2.6272
  2.6405   2.6427   2.6462   2.6517   2.6812   2.6833   2.6921   2.6959
  2.7026   2.7134   2.7294   2.7376   2.7490   2.7668   2.7811   2.7822
  2.8048   2.8137   2.8209   2.8347   2.8496   2.8546   2.8606   2.8701
  2.8769   2.9082   2.9110   2.9224   2.9338   2.9352   2.9464   2.9527
  2.9672   2.9783   2.9810   2.9869   2.9929   3.0014   3.0077   3.0214
  3.0353   3.0369   3.0620   3.0649   3.0881   3.0919   3.1036   3.1221
  3.1385   3.1524   3.1644   3.1743   3.1919   3.2077   3.2163   3.2273
  3.2312   3.2526   3.2639   3.2708   3.2799   3.2876   3.2955   3.3108
  3.3229   3.3262   3.3316   3.3443   3.3478   3.3601   3.3745   3.3827
  3.3871   3.3989   3.4157   3.4280   3.4295   3.4453   3.4497   3.4629
  3.4710   3.4826   3.4892   3.4947   3.4984   3.5000   3.5096   3.5194
  3.5319   3.5344   3.5451   3.5550   3.5615   3.5726   3.5768   3.5796
  3.5883   3.6006   3.6105   3.6175   3.6261   3.6355   3.6434   3.6580
  3.6764   3.6789   3.6973   3.7008   3.7146   3.7287   3.7485   3.7736
  3.7978   3.8198   3.8425   3.8571   3.9081   3.9160   3.9226   3.9382
  3.9584   3.9640   3.9701   3.9793   4.0051   4.0253   4.0583   4.0934
  4.1128   4.1246   4.1320   4.1740   4.1967   4.2229   4.2770   4.2818
  4.2959   4.3024   4.3174   4.3305   4.3352   4.3377   4.3464   4.3517
  4.3684   4.3763   4.3884   4.3933   4.4040   4.4141   4.4385   4.4414
  4.4589   4.4825   4.5400   4.5843   4.5968   4.6165   4.6414   4.6467
  4.6899   4.7137   4.7512   4.7711   4.8249   4.8445   4.8576   4.8799
  4.8866   4.8932   4.9244   4.9586   4.9768   5.0140   5.0363   5.0454
  5.0576   5.0651   5.0858   5.1301   5.1482   5.1618   5.1704   5.2304
  5.2361   5.2465   5.2808   5.3103   5.3585   5.3649   5.3783   5.4086
  5.4430   5.4616   5.4848   5.5050   5.5183   5.5360   5.5661   5.6008
  5.6717   5.6891   5.7413   5.8171   5.8300   5.8779   5.9425   6.1747
  6.2011   6.4185   6.5040  22.6523  22.6890  22.7189  22.9037  22.9340
 22.9486  23.0218  23.0905  23.4181  23.6947  32.3650  32.5469  32.9502
 --------------------------------------------------------------
 
          Ground-State Mulliken Net Atomic Charges

     Atom                 Charge (a.u.)
  ----------------------------------------
      1 C                    -1.188511
      2 C                    -0.573040
      3 C                    -0.483842
      4 C                    -0.502041
      5 C                    -0.469834
      6 C                    -0.425662
      7 C                     0.766647
      8 H                     0.403657
      9 H                     0.414240
     10 H                     0.417772
     11 H                     0.394717
     12 H                     0.394818
     13 H                     0.307588
     14 H                     0.294963
     15 H                     0.247532
     16 C                    -0.321448
     17 C                    -1.138208
     18 C                     0.374445
     19 N                    -0.084737
     20 N                    -0.271257
     21 N                    -0.298050
     22 H                     0.370795
     23 H                     0.274233
     24 H                     0.239033
     25 H                     0.311283
     26 H                     0.291711
     27 H                     0.232857
     28 H                     0.244524
     29 H                     0.251382
     30 H                     0.246019
     31 H                     0.278414
  ----------------------------------------
  Sum of atomic charges =     1.000000

 -----------------------------------------------------------------
                    Cartesian Multipole Moments
 -----------------------------------------------------------------
    Charge (ESU x 10^10)
                 4.8032
    Dipole Moment (Debye)
         X      -6.2891      Y     -13.0949      Z      -4.9826
       Tot      15.3576
    Quadrupole Moments (Debye-Ang)
        XX     -51.4044     XY      28.2282     YY     -34.6715
        XZ      12.9395     YZ       4.0691     ZZ     -63.0977
    Octopole Moments (Debye-Ang^2)
       XXX     -80.6097    XXY     -76.6525    XYY     -87.3993
       YYY    -211.7033    XXZ     -33.7421    XYZ     -18.8307
       YYZ     -23.7707    XZZ     -25.8645    YZZ     -31.1189
       ZZZ     -26.6929
    Hexadecapole Moments (Debye-Ang^3)
      XXXX   -1014.6543   XXXY    -341.5727   XXYY    -314.2493
      XYYY    -194.5180   YYYY   -1834.5685   XXXZ    -171.5749
      XXYZ     -64.0130   XYYZ     -27.9468   YYYZ    -548.4919
      XXZZ    -341.4254   XYZZ    -138.7279   YYZZ    -610.3569
      XZZZ    -214.4885   YZZZ    -445.3622   ZZZZ   -1189.7054
 -----------------------------------------------------------------
Archival summary:
1\1\nid00566\SP\ProcedureUnspecified\BasisUnspecified\31018(1+,1)\meili\MonSep2705:51:592021MonSep2705:51:592021\0\\#,ProcedureUnspecified,BasisUnspecified,\\1,1\N\H,1,1.01021\C,1,1.3245,2,117.832\N,3,1.31901,1,120.253,2,-1.14376,0\H,4,1.0082,3,120.193,1,1.79141,0\H,4,1.00949,3,121.223,1,178.06,0\N,3,1.32116,1,120.267,2,178.215,0\H,7,1.00862,3,119.424,1,-170.302,0\H,7,1.01855,3,120.355,1,0.220407,0\C,1,1.46666,2,117.752,3,177.778,0\H,10,1.09174,1,109.608,2,-119.552,0\H,10,1.09335,1,109.673,2,120.527,0\C,10,1.5219,1,111.607,2,0.135668,0\H,13,1.08961,10,109.499,1,60.1225,0\H,13,1.08961,10,109.069,1,-59.3026,0\H,13,1.1,10,109.803,1,-179.954,0\H,14,2.63026,13,134.116,10,94.3888,0\C,17,1.08134,14,95.4419,13,-51.8163,0\C,18,1.39834,17,119.959,14,-71.8843,0\H,19,1.08142,18,120.076,17,0.731387,0\C,19,1.39601,18,119.637,17,-179.778,0\H,21,1.07416,19,122.015,18,-179.623,0\C,21,1.39571,19,120.088,18,-0.0379978,0\H,23,1.07798,21,119.343,19,178.392,0\C,23,1.39493,21,120.688,19,-0.180473,0\C,25,1.3968,23,119.196,21,0.347918,0\H,26,1.07966,25,119.755,23,179.72,0\C,25,1.50124,23,120.312,21,-179.201,0\H,28,1.08863,25,107.701,23,-141.059,0\H,28,1.0919,25,109.622,23,-24.0684,0\H,28,1.1,25,114.071,23,99.5103,0\\\@

 Total job time:  77406.36s(wall), 51870.75s(cpu) 
 Mon Sep 27 05:52:03 2021

        *************************************************************
        *                                                           *
        *  Thank you very much for using Q-Chem.  Have a nice day.  *
        *                                                           *
        *************************************************************


