
Running Job 1 of 1 SSI-001ARG-013ARG-1_PCM_TZVPD.in
qchem SSI-001ARG-013ARG-1_PCM_TZVPD.in_65522.0 /tmp/qchem65522/ 0
/global/common/cori/software/qchem/5.2/exe/qcprog.exe_s SSI-001ARG-013ARG-1_PCM_TZVPD.in_65522.0 /tmp/qchem65522/
                  Welcome to Q-Chem
     A Quantum Leap Into The Future Of Chemistry


 Q-Chem 5.2, Q-Chem, Inc., Pleasanton, CA (2019)

 License issued to: National Energy Research Scientific Computing Center

 Yihan Shao,  Zhengting Gan,  E. Epifanovsky,  A. T. B. Gilbert,  M. Wormit,  
 J. Kussmann,  A. W. Lange,  A. Behn,  Jia Deng,  Xintian Feng,  D. Ghosh,  
 M. Goldey,  P. R. Horn,  L. D. Jacobson,  I. Kaliman,  T. Kus,  A. Landau,  
 Jie Liu,  E. I. Proynov,  R. M. Richard,  R. P. Steele,  E. J. Sundstrom,  
 H. L. Woodcock III,  P. M. Zimmerman,  D. Zuev,  B. Albrecht,  E. Alguire,  
 S. A. Baeppler,  D. Barton,  Z. Benda,  Y. A. Bernard,  E. J. Berquist,  
 K. B. Bravaya,  H. Burton,  D. Casanova,  Chun-Min Chang,  Yunqing Chen,  
 A. Chien,  K. D. Closser,  M. P. Coons,  S. Coriani,  S. Dasgupta,  
 A. L. Dempwolff,  M. Diedenhofen,  Hainam Do,  R. G. Edgar,  Po-Tung Fang,  
 S. Faraji,  S. Fatehi,  Qingguo Feng,  K. D. Fenk,  J. Fosso-Tande,  
 J. Gayvert,  Qinghui Ge,  A. Ghysels,  G. Gidofalvi,  J. Gomes,  
 J. Gonthier,  A. Gunina,  D. Hait,  M. W. D. Hanson-Heine,  
 P. H. P. Harbach,  A. W. Hauser,  M. F. Herbst,  J. E. Herr,  
 E. G. Hohenstein,  Z. C. Holden,  Kerwin Hui,  B. C. Huynh,  T.-C. Jagau,  
 Hyunjun Ji,  B. Kaduk,  K. Khistyaev,  Jaehoon Kim,  P. Klunzinger,  K. Koh,  
 D. Kosenkov,  L. Koulias,  T. Kowalczyk,  C. M. Krauter,  A. Kunitsa,  
 Ka Un Lao,  A. Laurent,  K. V. Lawler,  Joonho Lee,  D. Lefrancois,  
 S. Lehtola,  D. S. Levine,  Yi-Pei Li,  You-Sheng Lin,  Fenglai Liu,  
 E. Livshits,  A. Luenser,  P. Manohar,  E. Mansoor,  S. F. Manzer,  
 Shan-Ping Mao,  Yuezhi Mao,  N. Mardirossian,  A. V. Marenich,  
 T. Markovich,  L. A. Martinez-Martinez,  S. A. Maurer,  N. J. Mayhall,  
 S. C. McKenzie,  J.-M. Mewes,  P. Morgante,  A. F. Morrison,  
 J. W. Mullinax,  K. Nanda,  T. S. Nguyen-Beck,  R. Olivares-Amaya,  
 J. A. Parkhill,  Zheng Pei,  T. M. Perrine,  F. Plasser,  P. Pokhilko,  
 S. Prager,  A. Prociuk,  E. Ramos,  D. R. Rehn,  F. Rob,  M. Scheurer,  
 M. Schneider,  N. Sergueev,  S. M. Sharada,  S. Sharma,  D. W. Small,  
 T. Stauch,  T. Stein,  Yu-Chuan Su,  A. J. W. Thom,  A. Tkatchenko,  
 T. Tsuchimochi,  N. M. Tubman,  L. Vogt,  M. L. Vidal,  O. Vydrov,  
 M. A. Watson,  J. Wenzel,  M. de Wergifosse,  T. A. Wesolowski,  A. White,  
 J. Witte,  A. Yamada,  Jun Yang,  K. Yao,  S. Yeganeh,  S. R. Yost,  
 Zhi-Qiang You,  A. Zech,  Igor Ying Zhang,  Xing Zhang,  Yan Zhao,  
 Ying Zhu,  B. R. Brooks,  G. K. L. Chan,  C. J. Cramer,  M. S. Gordon,  
 W. J. Hehre,  A. Klamt,  M. W. Schmidt,  C. D. Sherrill,  D. G. Truhlar,  
 A. Aspuru-Guzik,  R. Baer,  A. T. Bell,  N. A. Besley,  Jeng-Da Chai,  
 A. E. DePrince, III,  R. A. DiStasio Jr.,  A. Dreuw,  B. D. Dunietz,  
 T. R. Furlani,  Chao-Ping Hsu,  Yousung Jung,  Jing Kong,  D. S. Lambrecht,  
 WanZhen Liang,  C. Ochsenfeld,  V. A. Rassolov,  L. V. Slipchenko,  
 J. E. Subotnik,  T. Van Voorhis,  J. M. Herbert,  A. I. Krylov,  
 P. M. W. Gill,  M. Head-Gordon

 Contributors to earlier versions of Q-Chem not listed above: 
 R. D. Adamson,  B. Austin,  J. Baker,  G. J. O. Beran,  K. Brandhorst,  
 S. T. Brown,  E. F. C. Byrd,  A. K. Chakraborty,  C.-L. Cheng,  
 Siu Hung Chien,  D. M. Chipman,  D. L. Crittenden,  H. Dachsel,  
 R. J. Doerksen,  A. D. Dutoi,  L. Fusti-Molnar,  W. A. Goddard III,  
 A. Golubeva-Zadorozhnaya,  S. R. Gwaltney,  G. Hawkins,  A. Heyden,  
 S. Hirata,  G. Kedziora,  F. J. Keil,  C. Kelley,  Jihan Kim,  R. A. King,  
 R. Z. Khaliullin,  P. P. Korambath,  W. Kurlancheek,  A. M. Lee,  M. S. Lee,  
 S. V. Levchenko,  Ching Yeh Lin,  D. Liotard,  R. C. Lochan,  I. Lotan,  
 P. E. Maslen,  N. Nair,  D. P. O'Neill,  D. Neuhauser,  E. Neuscamman,  
 C. M. Oana,  R. Olson,  B. Peters,  R. Peverati,  P. A. Pieniazek,  
 Y. M. Rhee,  J. Ritchie,  M. A. Rohrdanz,  E. Rosta,  N. J. Russ,  
 H. F. Schaefer III,  N. E. Schultz,  N. Shenvi,  A. C. Simmonett,  A. Sodt,  
 D. Stuck,  K. S. Thanthiriwatte,  V. Vanovschi,  Tao Wang,  A. Warshel,  
 C. F. Williams,  Q. Wu,  X. Xu,  W. Zhang

 Please cite Q-Chem as follows:
 Y. Shao et al., Mol. Phys. 113, 184-215 (2015)
 DOI: 10.1080/00268976.2014.952696

 Q-Chem 5.2.0 for Intel X86 EM64T Linux

 Parts of Q-Chem use Armadillo 8.300.2 (Tropical Shenanigans).
 http://arma.sourceforge.net/

 Q-Chem begins on Sun Sep 26 01:22:24 2021  

Host: cori01
0

     Scratch files written to /tmp/qchem65522//
 May1019 |scratch|qcdevops|jenkins|workspace|build_RNUM -1
Processing $rem in /global/common/cori/software/qchem/5.2/config/preferences:
	 MEM_TOTAL  96000 
NAlpha2: 88
NElect   88
Mult     1
Symmetry turned off for PCM/SM12/SMD calculation

 Q-Chem warning in module libgen/rem_setup.C, line 2803:

 Neither GIA nor STOLL is specified by user. Use STOLL as the default


Checking the input file for inconsistencies... 	...done.

--------------------------------------------------------------
User input:
--------------------------------------------------------------
$comment
SSI-001ARG-013ARG-1.pdb
$end

$molecule
2 1
--
1 1
C   -1.611990069295    1.825186715548   -0.068069945073
C   -2.471990069295    0.629186715548    0.397930054927
C   -0.610990069295    0.223186715548   -1.648069945073
N   -0.613990069295    1.409186715548   -1.060069945073
N   -1.578990069295   -0.653813284452   -1.449069945073
N    0.360009930705   -0.106813284452   -2.471069945073
H   -2.254990069295    2.602186715548   -0.482069945073
H   -1.077990069295    2.233186715548    0.791930054927
H   -1.845990069295   -0.232813284452    0.647930054927
H   -3.360990069295    0.480186715548   -0.222069945073
H    0.087009930705    2.083186715548   -1.335069945073
H   -2.514990069295   -0.295813284452   -1.386069945073
H   -1.487990069295   -1.569813284452   -1.865069945073
H    1.123009930705    0.525186715548   -2.653069945073
H    0.411009930705   -1.031813284452   -2.867069945073
H   -2.767870069295    0.629186715548    1.457390054927
--
1 1
C    0.964009930705   -2.549813284452    0.947930054927
C    1.391009930705   -0.167813284452    1.331930054927
N    1.499009930705   -1.259813284452    0.573930054927
N    0.703009930705   -0.195813284452    2.475930054927
N    1.930009930705    0.989186715548    0.944930054927
H    2.002009930705   -1.204813284452   -0.315069945073
H    0.318009930705   -1.071813284452    2.818930054927
H    0.547009930705    0.661186715548    3.004930054927
H    2.490009930705    1.005186715548    0.102930054927
H    1.786009930705    1.830186715548    1.486930054927
H    0.806009930705   -3.131813284452    0.037930054927
H   -0.008990069295   -2.461813284452    1.429930054927
H    1.667159930705   -3.102553284452    1.588290054927
$end

$rem
JOBTYPE			EDA
EDA2			1
method			wB97X-V
BASIS			def2-TZVPD
XC_GRID			000099000590
NL_GRID			1
UNRESTRICTED		FALSE
MAX_SCF_CYCLES		200
SYMMETRY		FALSE
SYM_IGNORE		TRUE
MEM_STATIC		2000
BASIS_LIN_DEP_THRESH 	6
THRESH 			14
SCF_CONVERGENCE 	8
SCF_PRINT_FRGM 		TRUE
SOLVENT_METHOD          PCM
$end

$PCM
THEORY                  CPCM
METHOD                  SWIG
SOLVER                  INVERSION
RADII                   UFF
HPOINTS                 302
HEAVYPOINTS             302
PRINTLEVEL              0
$END

$SOLVENT
DIELECTRIC              78.390000 ! water
$END
--------------------------------------------------------------
 ----------------------------------------------------------------
             Standard Nuclear Orientation (Angstroms)
    I     Atom           X                Y                Z
 ----------------------------------------------------------------
    1      C      -1.6119900693     1.8251867155    -0.0680699451
    2      C      -2.4719900693     0.6291867155     0.3979300549
    3      C      -0.6109900693     0.2231867155    -1.6480699451
    4      N      -0.6139900693     1.4091867155    -1.0600699451
    5      N      -1.5789900693    -0.6538132845    -1.4490699451
    6      N       0.3600099307    -0.1068132845    -2.4710699451
    7      H      -2.2549900693     2.6021867155    -0.4820699451
    8      H      -1.0779900693     2.2331867155     0.7919300549
    9      H      -1.8459900693    -0.2328132845     0.6479300549
   10      H      -3.3609900693     0.4801867155    -0.2220699451
   11      H       0.0870099307     2.0831867155    -1.3350699451
   12      H      -2.5149900693    -0.2958132845    -1.3860699451
   13      H      -1.4879900693    -1.5698132845    -1.8650699451
   14      H       1.1230099307     0.5251867155    -2.6530699451
   15      H       0.4110099307    -1.0318132845    -2.8670699451
   16      H      -2.7678700693     0.6291867155     1.4573900549
   17      C       0.9640099307    -2.5498132845     0.9479300549
   18      C       1.3910099307    -0.1678132845     1.3319300549
   19      N       1.4990099307    -1.2598132845     0.5739300549
   20      N       0.7030099307    -0.1958132845     2.4759300549
   21      N       1.9300099307     0.9891867155     0.9449300549
   22      H       2.0020099307    -1.2048132845    -0.3150699451
   23      H       0.3180099307    -1.0718132845     2.8189300549
   24      H       0.5470099307     0.6611867155     3.0049300549
   25      H       2.4900099307     1.0051867155     0.1029300549
   26      H       1.7860099307     1.8301867155     1.4869300549
   27      H       0.8060099307    -3.1318132845     0.0379300549
   28      H      -0.0089900693    -2.4618132845     1.4299300549
   29      H       1.6671599307    -3.1025532845     1.5882900549
 ----------------------------------------------------------------
 Nuclear Repulsion Energy =         715.94555302 hartrees
 There are       44 alpha and       44 beta electrons
 Requested basis set is def2-TZVPD
 There are 233 shells and 569 basis functions

 Total QAlloc Memory Limit  96000 MB
 Mega-Array Size      1956 MB
 MEM_STATIC part      2000 MB
 Discretize the solute cavity surface with Lebedev spheres
	Using 302 Lebedev grid points for each H atom
	Using 302 Lebedev grid points for other atoms
	Atomic van der Waals radii will be scaled by 1.20
 Remove points where switching function is < 1.0e-08
 Keep 2913 surface tesserae and discard 5845 interior tesserae
 Molecular Surface Area = 264.722 Angst**2
 A cutoff of  1.0D-14 yielded  25110 shell pairs
 There are    151992 function pairs (    189297 Cartesian)
 Smallest overlap matrix eigenvalue = 3.43E-06

 Scale SEOQF with 1.000000e-01/1.000000e-01/1.000000e-01

 Standard Electronic Orientation quadrupole field applied
 Nucleus-field energy     =    -0.0000000037 hartrees

 -----------------------------------------------------------------------
  General SCF calculation program by
  Eric Jon Sundstrom, Paul Horn, Yuezhi Mao, Dmitri Zuev, Alec White,
  David Stuck, Shaama M.S., Shane Yost, Joonho Lee, David Small,
  Daniel Levine, Susi Lehtola, Hugh Burton, Evgeny Epifanovsky
 -----------------------------------------------------------------------
================================================================
                 ALMO-EDA with the EDA2 driver                  
================================================================
 The second-generation ALMO-EDA (for DFT):                      
 P. R. Horn, Y. Mao and M. Head-Gordon, PCCP, 18, 23067 (2016)  
 Decomposition of the frozen energy:                            
 P. R. Horn, Y. Mao and M. Head-Gordon, JCP, 144, 114107 (2016) 
 FERF model for polarization:                                   
 P. R. Horn and M. Head-Gordon, JCP, 143, 114111 (2015)         
Using eda2 option set 1
Option set summary: Frozen orbital wavefunction, initial wavefunction decomposition, and nDQ polarization.
--------------------------------
Printing EDA Options
--------------------------------
eda_child_super_basis      0
fragmo_guess_mode          0
child_mp                   1
child_mp_orders            232
cls_elec                   1
cls_disp                   0
scfmi_mode                 1
scfmi_occs                 0
scfmi_virts                0
frz_relax                  0
frz_relax_method           0
dc_pen_start               0
dc_pen_conv                0
dc_pen_increment           0
dc_pen_steps               0
dc_pen_thresh_factor       0
dc_pen_pre_newton_thresh   0
frz_ortho_decomp           1
frz_ortho_decomp_conv      6
frgm_method                2
scfmi_freeze_ss            0
separate_rehyb             0
plot_diff_den              0
eda_nocv                   0
eda_vct_relax              1
disp_free_x                0
disp_free_c                0
eda_bsse                   0
eda_pct_a                  0
eda_covp                   0
--------------------------------
Attempting to make child job directory: /tmp/qchem65522//Frg1/
Attempting to make child job directory: /tmp/qchem65522//Frg2/
Creating input file /tmp/qchem65522/Frg1.input
using default PutDataFrgm: nothing
calling putenv with: QCSCRATCH=/tmp/qchem65522/ 
calling putenv with: QCLOCALSCR=/tmp/qchem65522/ 
Spawning Job For Fragment 0
                  Welcome to Q-Chem
     A Quantum Leap Into The Future Of Chemistry


 Q-Chem 5.2, Q-Chem, Inc., Pleasanton, CA (2019)

 License issued to: National Energy Research Scientific Computing Center

 Yihan Shao,  Zhengting Gan,  E. Epifanovsky,  A. T. B. Gilbert,  M. Wormit,  
 J. Kussmann,  A. W. Lange,  A. Behn,  Jia Deng,  Xintian Feng,  D. Ghosh,  
 M. Goldey,  P. R. Horn,  L. D. Jacobson,  I. Kaliman,  T. Kus,  A. Landau,  
 Jie Liu,  E. I. Proynov,  R. M. Richard,  R. P. Steele,  E. J. Sundstrom,  
 H. L. Woodcock III,  P. M. Zimmerman,  D. Zuev,  B. Albrecht,  E. Alguire,  
 S. A. Baeppler,  D. Barton,  Z. Benda,  Y. A. Bernard,  E. J. Berquist,  
 K. B. Bravaya,  H. Burton,  D. Casanova,  Chun-Min Chang,  Yunqing Chen,  
 A. Chien,  K. D. Closser,  M. P. Coons,  S. Coriani,  S. Dasgupta,  
 A. L. Dempwolff,  M. Diedenhofen,  Hainam Do,  R. G. Edgar,  Po-Tung Fang,  
 S. Faraji,  S. Fatehi,  Qingguo Feng,  K. D. Fenk,  J. Fosso-Tande,  
 J. Gayvert,  Qinghui Ge,  A. Ghysels,  G. Gidofalvi,  J. Gomes,  
 J. Gonthier,  A. Gunina,  D. Hait,  M. W. D. Hanson-Heine,  
 P. H. P. Harbach,  A. W. Hauser,  M. F. Herbst,  J. E. Herr,  
 E. G. Hohenstein,  Z. C. Holden,  Kerwin Hui,  B. C. Huynh,  T.-C. Jagau,  
 Hyunjun Ji,  B. Kaduk,  K. Khistyaev,  Jaehoon Kim,  P. Klunzinger,  K. Koh,  
 D. Kosenkov,  L. Koulias,  T. Kowalczyk,  C. M. Krauter,  A. Kunitsa,  
 Ka Un Lao,  A. Laurent,  K. V. Lawler,  Joonho Lee,  D. Lefrancois,  
 S. Lehtola,  D. S. Levine,  Yi-Pei Li,  You-Sheng Lin,  Fenglai Liu,  
 E. Livshits,  A. Luenser,  P. Manohar,  E. Mansoor,  S. F. Manzer,  
 Shan-Ping Mao,  Yuezhi Mao,  N. Mardirossian,  A. V. Marenich,  
 T. Markovich,  L. A. Martinez-Martinez,  S. A. Maurer,  N. J. Mayhall,  
 S. C. McKenzie,  J.-M. Mewes,  P. Morgante,  A. F. Morrison,  
 J. W. Mullinax,  K. Nanda,  T. S. Nguyen-Beck,  R. Olivares-Amaya,  
 J. A. Parkhill,  Zheng Pei,  T. M. Perrine,  F. Plasser,  P. Pokhilko,  
 S. Prager,  A. Prociuk,  E. Ramos,  D. R. Rehn,  F. Rob,  M. Scheurer,  
 M. Schneider,  N. Sergueev,  S. M. Sharada,  S. Sharma,  D. W. Small,  
 T. Stauch,  T. Stein,  Yu-Chuan Su,  A. J. W. Thom,  A. Tkatchenko,  
 T. Tsuchimochi,  N. M. Tubman,  L. Vogt,  M. L. Vidal,  O. Vydrov,  
 M. A. Watson,  J. Wenzel,  M. de Wergifosse,  T. A. Wesolowski,  A. White,  
 J. Witte,  A. Yamada,  Jun Yang,  K. Yao,  S. Yeganeh,  S. R. Yost,  
 Zhi-Qiang You,  A. Zech,  Igor Ying Zhang,  Xing Zhang,  Yan Zhao,  
 Ying Zhu,  B. R. Brooks,  G. K. L. Chan,  C. J. Cramer,  M. S. Gordon,  
 W. J. Hehre,  A. Klamt,  M. W. Schmidt,  C. D. Sherrill,  D. G. Truhlar,  
 A. Aspuru-Guzik,  R. Baer,  A. T. Bell,  N. A. Besley,  Jeng-Da Chai,  
 A. E. DePrince, III,  R. A. DiStasio Jr.,  A. Dreuw,  B. D. Dunietz,  
 T. R. Furlani,  Chao-Ping Hsu,  Yousung Jung,  Jing Kong,  D. S. Lambrecht,  
 WanZhen Liang,  C. Ochsenfeld,  V. A. Rassolov,  L. V. Slipchenko,  
 J. E. Subotnik,  T. Van Voorhis,  J. M. Herbert,  A. I. Krylov,  
 P. M. W. Gill,  M. Head-Gordon

 Contributors to earlier versions of Q-Chem not listed above: 
 R. D. Adamson,  B. Austin,  J. Baker,  G. J. O. Beran,  K. Brandhorst,  
 S. T. Brown,  E. F. C. Byrd,  A. K. Chakraborty,  C.-L. Cheng,  
 Siu Hung Chien,  D. M. Chipman,  D. L. Crittenden,  H. Dachsel,  
 R. J. Doerksen,  A. D. Dutoi,  L. Fusti-Molnar,  W. A. Goddard III,  
 A. Golubeva-Zadorozhnaya,  S. R. Gwaltney,  G. Hawkins,  A. Heyden,  
 S. Hirata,  G. Kedziora,  F. J. Keil,  C. Kelley,  Jihan Kim,  R. A. King,  
 R. Z. Khaliullin,  P. P. Korambath,  W. Kurlancheek,  A. M. Lee,  M. S. Lee,  
 S. V. Levchenko,  Ching Yeh Lin,  D. Liotard,  R. C. Lochan,  I. Lotan,  
 P. E. Maslen,  N. Nair,  D. P. O'Neill,  D. Neuhauser,  E. Neuscamman,  
 C. M. Oana,  R. Olson,  B. Peters,  R. Peverati,  P. A. Pieniazek,  
 Y. M. Rhee,  J. Ritchie,  M. A. Rohrdanz,  E. Rosta,  N. J. Russ,  
 H. F. Schaefer III,  N. E. Schultz,  N. Shenvi,  A. C. Simmonett,  A. Sodt,  
 D. Stuck,  K. S. Thanthiriwatte,  V. Vanovschi,  Tao Wang,  A. Warshel,  
 C. F. Williams,  Q. Wu,  X. Xu,  W. Zhang

 Please cite Q-Chem as follows:
 Y. Shao et al., Mol. Phys. 113, 184-215 (2015)
 DOI: 10.1080/00268976.2014.952696

 Q-Chem 5.2.0 for Intel X86 EM64T Linux

 Parts of Q-Chem use Armadillo 8.300.2 (Tropical Shenanigans).
 http://arma.sourceforge.net/

 Q-Chem begins on Sun Sep 26 01:22:29 2021  

Host: cori01
0

     Scratch files written to /tmp/qchem65522//Frg1//
 May1019 |scratch|qcdevops|jenkins|workspace|build_RNUM -1
Processing $rem in /global/common/cori/software/qchem/5.2/config/preferences:
	 MEM_TOTAL  96000 
NAlpha2: 48
NElect   48
Mult     1
Symmetry turned off for PCM/SM12/SMD calculation

Checking the input file for inconsistencies... 	...done.

--------------------------------------------------------------
User input:
--------------------------------------------------------------
$molecule
1 1
 6	-1.6119900693	1.8251867155	-0.0680699451
 6	-2.4719900693	0.6291867155	0.3979300549
 6	-0.6109900693	0.2231867155	-1.6480699451
 7	-0.6139900693	1.4091867155	-1.0600699451
 7	-1.5789900693	-0.6538132845	-1.4490699451
 7	0.3600099307	-0.1068132845	-2.4710699451
 1	-2.2549900693	2.6021867155	-0.4820699451
 1	-1.0779900693	2.2331867155	0.7919300549
 1	-1.8459900693	-0.2328132845	0.6479300549
 1	-3.3609900693	0.4801867155	-0.2220699451
 1	0.0870099307	2.0831867155	-1.3350699451
 1	-2.5149900693	-0.2958132845	-1.3860699451
 1	-1.4879900693	-1.5698132845	-1.8650699451
 1	1.1230099307	0.5251867155	-2.6530699451
 1	0.4110099307	-1.0318132845	-2.8670699451
 1	-2.7678700693	0.6291867155	1.4573900549
$end
$rem
EDA2		1
METHOD		WB97X-V
BASIS		DEF2-TZVPD
XC_GRID		000099000590
NL_GRID		1
UNRESTRICTED		FALSE
MAX_SCF_CYCLES		200
SYMMETRY		FALSE
SYM_IGNORE		TRUE
BASIS_LIN_DEP_THRESH		6
THRESH		14
SCF_CONVERGENCE		8
SCF_PRINT_FRGM		TRUE
SOLVENT_METHOD		PCM
!required keywords
JOBTYPE		SP
SYM_IGNORE		TRUE
SUBSYSTEM		TRUE
GEN_SCFMAN		TRUE
CHILD_INSTRUCTION		2
SYM_IGNORE		TRUE
SCFMI		0
RI_K 0		
PARI_K 0		
MIN_PARI_K 0		
IARI_K 0		
OCC_RI_K 0		
PURECART		1111
MEM_STATIC		2000
MEM_TOTAL		96000
GUI		0
CHILD_MP		1
CHILD_MP_ORDERS		232
FRZ_RELAX		0
FRZ_RELAX_METHOD		0
EDA_CLS_ELEC		1
EDA_CLS_DISP		0
FRZ_ORTHO_DECOMP		1
EDA2		FALSE
FRGM_METHOD		FALSE
CIS_N_ROOTS  0
LOCAL_CIS    0
CIS_RLX_DNS  1
$end
$pcm
THEORY                  CPCM
METHOD                  SWIG
SOLVER                  INVERSION
RADII                   UFF
HPOINTS                 302
HEAVYPOINTS             302
PRINTLEVEL              0
$end
$solvent
DIELECTRIC              78.390000 ! water
$end
--------------------------------------------------------------
 ----------------------------------------------------------------
             Standard Nuclear Orientation (Angstroms)
    I     Atom           X                Y                Z
 ----------------------------------------------------------------
    1      C      -1.6119900693     1.8251867155    -0.0680699451
    2      C      -2.4719900693     0.6291867155     0.3979300549
    3      C      -0.6109900693     0.2231867155    -1.6480699451
    4      N      -0.6139900693     1.4091867155    -1.0600699451
    5      N      -1.5789900693    -0.6538132845    -1.4490699451
    6      N       0.3600099307    -0.1068132845    -2.4710699451
    7      H      -2.2549900693     2.6021867155    -0.4820699451
    8      H      -1.0779900693     2.2331867155     0.7919300549
    9      H      -1.8459900693    -0.2328132845     0.6479300549
   10      H      -3.3609900693     0.4801867155    -0.2220699451
   11      H       0.0870099307     2.0831867155    -1.3350699451
   12      H      -2.5149900693    -0.2958132845    -1.3860699451
   13      H      -1.4879900693    -1.5698132845    -1.8650699451
   14      H       1.1230099307     0.5251867155    -2.6530699451
   15      H       0.4110099307    -1.0318132845    -2.8670699451
   16      H      -2.7678700693     0.6291867155     1.4573900549
 ----------------------------------------------------------------
 Nuclear Repulsion Energy =         266.16229549 hartrees
 There are       24 alpha and       24 beta electrons
 Requested basis set is def2-TZVPD
 There are 128 shells and 312 basis functions

 Total QAlloc Memory Limit  96000 MB
 Mega-Array Size      1956 MB
 MEM_STATIC part      2000 MB
 Discretize the solute cavity surface with Lebedev spheres
	Using 302 Lebedev grid points for each H atom
	Using 302 Lebedev grid points for other atoms
	Atomic van der Waals radii will be scaled by 1.20
 Remove points where switching function is < 1.0e-08
 Keep 1788 surface tesserae and discard 3044 interior tesserae
 Molecular Surface Area = 168.178 Angst**2
 A cutoff of  1.0D-14 yielded   8031 shell pairs
 There are     48531 function pairs (     60560 Cartesian)
 Smallest overlap matrix eigenvalue = 6.61E-06

 Scale SEOQF with 1.000000e-01/1.000000e-01/1.000000e-01

 Standard Electronic Orientation quadrupole field applied
 Nucleus-field energy     =    -0.0000000032 hartrees
 Guess from superposition of atomic densities
 Warning:  Energy on first SCF cycle will be non-variational
 SAD guess density has 48.375862 electrons

 -----------------------------------------------------------------------
  General SCF calculation program by
  Eric Jon Sundstrom, Paul Horn, Yuezhi Mao, Dmitri Zuev, Alec White,
  David Stuck, Shaama M.S., Shane Yost, Joonho Lee, David Small,
  Daniel Levine, Susi Lehtola, Hugh Burton, Evgeny Epifanovsky
 -----------------------------------------------------------------------
 Exchange:     0.1670 Hartree-Fock + 1.0000 wB97X-V + LR-HF
 Correlation:  1.0000 wB97X-V
 Using Euler-Maclaurin-Lebedev (99,590) quadrature formula
 Nonlocal Correlation:  VV10 with C = 0.0100 and b = 6.00 and scale = 1.00000
 Grid used for NLC:  SG-1 standard quadrature
Energy prior to optimization (guess energy) = -283.971653784018
Begin Timing: Total SCF Calculation
begin iterations for algorithm: DIIS         
the SCF tolerance is set to 1.00e-08
    1    -283.9716537840      6.74e-03     00000 
    2    -284.1927225759      5.33e-03     00000 
    3    -284.4520641364      2.70e-04     00000 
    4    -284.4528532270      1.68e-04     00000 
    5    -284.4531402347      3.42e-05     00000 
    6    -284.4531563515      1.13e-05     00000 
    7    -284.4531582650      3.30e-06     00000 
    8    -284.4531584884      8.34e-07     00000 
    9    -284.4531585138      3.86e-07     00000 
   10    -284.4531585165      1.33e-07     00000 
   11    -284.4531585170      4.14e-08     00000 
   12    -284.4531585171      1.26e-08     00000 
   13    -284.4531585171      3.88e-09     00000 Convergence criterion met
Timing for Total SCF: 1291.00s (wall), 2564.44s (cpu)

************** Final PCM Free Energy Summary **************
 G_electrostatic  =      -0.07978827 hartree =     -50.06789755 kcal/mol
 G_cavitation     =       0.00000000 hartree =       0.00000000 kcal/mol
 G_dispersion     =       0.00000000 hartree =       0.00000000 kcal/mol
 G_repulsion      =       0.00000000 hartree =       0.00000000 kcal/mol
 --------------------------------------------------
 Non-electrostatic Free Energy =       0.00000000 hartree =       0.00000000 kcal/mol
 Total                         =      -0.07978827 hartree =     -50.06789755 kcal/mol
 --------------------------------------------------
 SCF Energy (H0 + V/2)                       =    -284.45315852 
 Solute Internal Energy (H0)                 =    -284.37337024 
 Total Free Energy (H0 + V/2 + non-elec)     =    -284.45315852 hartree
                                             = -178497.05102533 kcal/mol
***********************************************************

E_pcm = -0.0797882739
Multipole orders to be included
        2
        3
computing dipole RHS
computing quadrupole RHS
total number of RHS in solve_reponses: 8
RHS batch sizes
        8
Beginning Block Conjugate Gradient Iterations. Batch Number: 0
computing hessian-vector products by finite difference
              1      4.45e-01     00000 Conjugate Gradient Iteration
computing hessian-vector products by finite difference
              2      1.68e-01     00000 Conjugate Gradient Iteration
computing hessian-vector products by finite difference
              3      4.46e-02     00000 Conjugate Gradient Iteration
computing hessian-vector products by finite difference
              4      1.28e-02     00000 Conjugate Gradient Iteration
computing hessian-vector products by finite difference
              5      2.46e-03     00000 Conjugate Gradient Iteration
computing hessian-vector products by finite difference
              6      4.69e-04     00000 Conjugate Gradient Iteration
computing hessian-vector products by finite difference
              7      7.34e-05     00000 Conjugate Gradient Iteration
computing hessian-vector products by finite difference
              8      1.17e-05     00000 Conjugate Gradient Iteration
computing hessian-vector products by finite difference
              9      2.44e-06     00000 Conjugate Gradient Iteration
computing hessian-vector products by finite difference
             10      3.92e-07     00000 Conjugate Gradient Iteration
computing hessian-vector products by finite difference
             11      7.51e-08     00000 Conjugate Gradient Iteration
computing hessian-vector products by finite difference
             12      1.13e-08     00000 Conjugate Gradient Iteration
computing hessian-vector products by finite difference
             13      1.62e-09     00000 CG Converged
batch 0 complete
Done Calculating Responses
TESTING ORTHOGONALIZATION OF MULTIPOLE BASIS
Multipole virts passed orthogonality test
Virts Per Order
           72
          120
 
 --------------------------------------------------------------
 
                    Orbital Energies (a.u.)
 --------------------------------------------------------------
 
 Alpha MOs
 -- Occupied --
-14.4815 -14.4724 -14.4578 -10.4455 -10.3361 -10.2812  -1.2008  -1.0851
 -1.0683  -0.9173  -0.8221  -0.7847  -0.7406  -0.7024  -0.6600  -0.6400
 -0.6148  -0.5976  -0.5797  -0.5216  -0.5093  -0.4659  -0.4037  -0.3956
 -- Virtual --
  0.0479   0.0718   0.0750   0.0788   0.1032   0.1094   0.1166   0.1204
  0.1466   0.1502   0.1613   0.1695   0.1761   0.1921   0.1985   0.2051
  0.2106   0.2192   0.2219   0.2333   0.2473   0.2559   0.2593   0.2642
  0.2677   0.2781   0.2862   0.2910   0.2996   0.3009   0.3081   0.3179
  0.3228   0.3339   0.3392   0.3469   0.3476   0.3552   0.3623   0.3709
  0.3777   0.3816   0.3861   0.3988   0.4107   0.4208   0.4250   0.4364
  0.4396   0.4506   0.4547   0.4569   0.4634   0.4676   0.4752   0.4817
  0.4830   0.4930   0.5024   0.5090   0.5200   0.5245   0.5294   0.5368
  0.5416   0.5437   0.5499   0.5668   0.5734   0.5818   0.5852   0.5977
  0.6048   0.6144   0.6172   0.6332   0.6403   0.6515   0.6539   0.6690
  0.6852   0.6976   0.7108   0.7182   0.7363   0.7479   0.7513   0.7598
  0.7682   0.7781   0.7867   0.7983   0.8081   0.8159   0.8324   0.8459
  0.8473   0.8580   0.8787   0.8840   0.8939   0.9044   0.9225   0.9411
  0.9573   0.9724   0.9889   1.0036   1.0227   1.0319   1.0670   1.0795
  1.1002   1.1006   1.1061   1.1235   1.1454   1.1511   1.1620   1.1986
  1.2160   1.2631   1.2892   1.3114   1.3348   1.3395   1.3667   1.4047
  1.4074   1.4282   1.4472   1.5122   1.5192   1.5318   1.5614   1.6316
  1.6521   1.6650   1.6933   1.7349   1.7688   1.8314   1.8547   1.8665
  1.8713   1.8746   1.8982   1.9190   1.9222   1.9293   1.9473   1.9727
  1.9837   2.0102   2.0217   2.0328   2.0675   2.0740   2.1273   2.1379
  2.1581   2.1783   2.2168   2.2445   2.2795   2.2832   2.3059   2.3417
  2.3778   2.3905   2.4209   2.4305   2.4697   2.4729   2.4840   2.5180
  2.5488   2.5652   2.5955   2.6344   2.6559   2.6612   2.7020   2.7504
  2.7543   2.7759   2.8016   2.8197   2.8600   2.8685   2.8727   2.8888
  2.9206   2.9472   2.9623   2.9900   3.0323   3.0668   3.0714   3.1081
  3.1325   3.1627   3.1701   3.2002   3.2306   3.2434   3.2459   3.2758
  3.2910   3.3003   3.3156   3.3439   3.3874   3.4196   3.4390   3.4659
  3.4886   3.4966   3.5173   3.5237   3.5597   3.5979   3.6135   3.6499
  3.6761   3.7366   3.7791   3.8215   3.8630   3.8987   3.9333   3.9702
  4.0089   4.0550   4.0792   4.0858   4.1435   4.2335   4.2555   4.2799
  4.3036   4.3363   4.4010   4.5237   4.5288   4.5868   4.6142   4.6342
  4.6729   4.7923   4.8289   4.8809   4.9109   4.9516   4.9811   4.9866
  5.0316   5.0857   5.1213   5.1410   5.1980   5.2004   5.2325   5.2446
  5.2815   5.3411   5.3899   5.4205   5.4628   5.4917   5.5185   5.5612
  5.5736   5.6415   5.7197   5.7771   5.8487   5.9143   6.1523   6.1941
  6.3410   6.4675  22.6738  22.7389  23.6594  32.3550  32.4926  32.8493
 --------------------------------------------------------------
 
          Ground-State Mulliken Net Atomic Charges

     Atom                 Charge (a.u.)
  ----------------------------------------
      1 C                    -0.206193
      2 C                    -0.946297
      3 C                     0.457113
      4 N                    -0.086562
      5 N                    -0.250243
      6 N                    -0.237352
      7 H                     0.177669
      8 H                     0.241030
      9 H                     0.317887
     10 H                     0.290682
     11 H                     0.196137
     12 H                     0.191725
     13 H                     0.198683
     14 H                     0.204602
     15 H                     0.197344
     16 H                     0.253774
  ----------------------------------------
  Sum of atomic charges =     1.000000

 -----------------------------------------------------------------
                    Cartesian Multipole Moments
 -----------------------------------------------------------------
    Charge (ESU x 10^10)
                 4.8032
    Dipole Moment (Debye)
         X      -3.3532      Y       1.4946      Z      -7.7321
       Tot       8.5593
    Quadrupole Moments (Debye-Ang)
        XX     -23.4691     XY       1.0051     YY     -24.3457
        XZ      -0.0623     YZ       2.3136     ZZ     -18.3569
    Octopole Moments (Debye-Ang^2)
       XXX      99.7818    XXY     -18.5831    XYY      36.3972
       YYY     -50.4064    XXZ      18.5542    XYZ      -5.8478
       YYZ      17.8471    XZZ      47.4622    YZZ     -29.6185
       ZZZ      70.4363
    Hexadecapole Moments (Debye-Ang^3)
      XXXX    -476.2987   XXXY      86.3532   XXYY    -126.7929
      XYYY      84.0901   YYYY    -245.0272   XXXZ       3.4171
      XXYZ       0.5213   XYYZ      -3.7160   YYYZ       3.0422
      XXZZ    -142.5305   XYZZ      42.1126   YYZZ     -94.6673
      XZZZ     -60.4121   YZZZ      32.5085   ZZZZ    -406.5985
 -----------------------------------------------------------------
Archival summary:
1\1\nid00551\SP\ProcedureUnspecified\BasisUnspecified\3310(1+,1)\meili\SunSep2608:31:422021SunSep2608:31:422021\0\\#,ProcedureUnspecified,BasisUnspecified,\\1,1\N\H,1,1.01059\C,1,1.32376,2,118.365\N,3,1.31494,1,120.3,2,6.50318,0\H,4,1.00733,3,120.994,1,1.23649,0\H,4,1.00749,3,120.917,1,175.139,0\N,3,1.32127,1,121.744,2,-172.496,0\H,7,1.00411,3,117.112,1,38.8904,0\H,7,1.01015,3,118.286,1,-175.207,0\C,1,1.46735,2,117.818,3,-177.546,0\H,10,1.09022,1,110.271,2,66.4691,0\H,10,1.09143,1,107.813,2,-52.1187,0\C,10,1.54505,1,111.286,2,-171.49,0\H,13,1.09404,10,112.756,1,-89.3679,0\H,13,1.09427,10,111.116,1,47.3645,0\H,13,1.1,10,116.117,1,143.7,0\\\@

 Total job time:  25756.89s(wall), 51092.90s(cpu) 
 Sun Sep 26 08:31:46 2021

        *************************************************************
        *                                                           *
        *  Thank you very much for using Q-Chem.  Have a nice day.  *
        *                                                           *
        *************************************************************


Done Job For Fragment 0
calling putenv with: QCSCRATCH=/global/cscratch1/sd/meili 
calling putenv with: QCLOCALSCR=/tmp 
calling putenv with: QCTHREADS=32 
Creating input file /tmp/qchem65522/Frg2.input
using default PutDataFrgm: nothing
calling putenv with: QCSCRATCH=/tmp/qchem65522/ 
calling putenv with: QCLOCALSCR=/tmp/qchem65522/ 
Spawning Job For Fragment 1
                  Welcome to Q-Chem
     A Quantum Leap Into The Future Of Chemistry


 Q-Chem 5.2, Q-Chem, Inc., Pleasanton, CA (2019)

 License issued to: National Energy Research Scientific Computing Center

 Yihan Shao,  Zhengting Gan,  E. Epifanovsky,  A. T. B. Gilbert,  M. Wormit,  
 J. Kussmann,  A. W. Lange,  A. Behn,  Jia Deng,  Xintian Feng,  D. Ghosh,  
 M. Goldey,  P. R. Horn,  L. D. Jacobson,  I. Kaliman,  T. Kus,  A. Landau,  
 Jie Liu,  E. I. Proynov,  R. M. Richard,  R. P. Steele,  E. J. Sundstrom,  
 H. L. Woodcock III,  P. M. Zimmerman,  D. Zuev,  B. Albrecht,  E. Alguire,  
 S. A. Baeppler,  D. Barton,  Z. Benda,  Y. A. Bernard,  E. J. Berquist,  
 K. B. Bravaya,  H. Burton,  D. Casanova,  Chun-Min Chang,  Yunqing Chen,  
 A. Chien,  K. D. Closser,  M. P. Coons,  S. Coriani,  S. Dasgupta,  
 A. L. Dempwolff,  M. Diedenhofen,  Hainam Do,  R. G. Edgar,  Po-Tung Fang,  
 S. Faraji,  S. Fatehi,  Qingguo Feng,  K. D. Fenk,  J. Fosso-Tande,  
 J. Gayvert,  Qinghui Ge,  A. Ghysels,  G. Gidofalvi,  J. Gomes,  
 J. Gonthier,  A. Gunina,  D. Hait,  M. W. D. Hanson-Heine,  
 P. H. P. Harbach,  A. W. Hauser,  M. F. Herbst,  J. E. Herr,  
 E. G. Hohenstein,  Z. C. Holden,  Kerwin Hui,  B. C. Huynh,  T.-C. Jagau,  
 Hyunjun Ji,  B. Kaduk,  K. Khistyaev,  Jaehoon Kim,  P. Klunzinger,  K. Koh,  
 D. Kosenkov,  L. Koulias,  T. Kowalczyk,  C. M. Krauter,  A. Kunitsa,  
 Ka Un Lao,  A. Laurent,  K. V. Lawler,  Joonho Lee,  D. Lefrancois,  
 S. Lehtola,  D. S. Levine,  Yi-Pei Li,  You-Sheng Lin,  Fenglai Liu,  
 E. Livshits,  A. Luenser,  P. Manohar,  E. Mansoor,  S. F. Manzer,  
 Shan-Ping Mao,  Yuezhi Mao,  N. Mardirossian,  A. V. Marenich,  
 T. Markovich,  L. A. Martinez-Martinez,  S. A. Maurer,  N. J. Mayhall,  
 S. C. McKenzie,  J.-M. Mewes,  P. Morgante,  A. F. Morrison,  
 J. W. Mullinax,  K. Nanda,  T. S. Nguyen-Beck,  R. Olivares-Amaya,  
 J. A. Parkhill,  Zheng Pei,  T. M. Perrine,  F. Plasser,  P. Pokhilko,  
 S. Prager,  A. Prociuk,  E. Ramos,  D. R. Rehn,  F. Rob,  M. Scheurer,  
 M. Schneider,  N. Sergueev,  S. M. Sharada,  S. Sharma,  D. W. Small,  
 T. Stauch,  T. Stein,  Yu-Chuan Su,  A. J. W. Thom,  A. Tkatchenko,  
 T. Tsuchimochi,  N. M. Tubman,  L. Vogt,  M. L. Vidal,  O. Vydrov,  
 M. A. Watson,  J. Wenzel,  M. de Wergifosse,  T. A. Wesolowski,  A. White,  
 J. Witte,  A. Yamada,  Jun Yang,  K. Yao,  S. Yeganeh,  S. R. Yost,  
 Zhi-Qiang You,  A. Zech,  Igor Ying Zhang,  Xing Zhang,  Yan Zhao,  
 Ying Zhu,  B. R. Brooks,  G. K. L. Chan,  C. J. Cramer,  M. S. Gordon,  
 W. J. Hehre,  A. Klamt,  M. W. Schmidt,  C. D. Sherrill,  D. G. Truhlar,  
 A. Aspuru-Guzik,  R. Baer,  A. T. Bell,  N. A. Besley,  Jeng-Da Chai,  
 A. E. DePrince, III,  R. A. DiStasio Jr.,  A. Dreuw,  B. D. Dunietz,  
 T. R. Furlani,  Chao-Ping Hsu,  Yousung Jung,  Jing Kong,  D. S. Lambrecht,  
 WanZhen Liang,  C. Ochsenfeld,  V. A. Rassolov,  L. V. Slipchenko,  
 J. E. Subotnik,  T. Van Voorhis,  J. M. Herbert,  A. I. Krylov,  
 P. M. W. Gill,  M. Head-Gordon

 Contributors to earlier versions of Q-Chem not listed above: 
 R. D. Adamson,  B. Austin,  J. Baker,  G. J. O. Beran,  K. Brandhorst,  
 S. T. Brown,  E. F. C. Byrd,  A. K. Chakraborty,  C.-L. Cheng,  
 Siu Hung Chien,  D. M. Chipman,  D. L. Crittenden,  H. Dachsel,  
 R. J. Doerksen,  A. D. Dutoi,  L. Fusti-Molnar,  W. A. Goddard III,  
 A. Golubeva-Zadorozhnaya,  S. R. Gwaltney,  G. Hawkins,  A. Heyden,  
 S. Hirata,  G. Kedziora,  F. J. Keil,  C. Kelley,  Jihan Kim,  R. A. King,  
 R. Z. Khaliullin,  P. P. Korambath,  W. Kurlancheek,  A. M. Lee,  M. S. Lee,  
 S. V. Levchenko,  Ching Yeh Lin,  D. Liotard,  R. C. Lochan,  I. Lotan,  
 P. E. Maslen,  N. Nair,  D. P. O'Neill,  D. Neuhauser,  E. Neuscamman,  
 C. M. Oana,  R. Olson,  B. Peters,  R. Peverati,  P. A. Pieniazek,  
 Y. M. Rhee,  J. Ritchie,  M. A. Rohrdanz,  E. Rosta,  N. J. Russ,  
 H. F. Schaefer III,  N. E. Schultz,  N. Shenvi,  A. C. Simmonett,  A. Sodt,  
 D. Stuck,  K. S. Thanthiriwatte,  V. Vanovschi,  Tao Wang,  A. Warshel,  
 C. F. Williams,  Q. Wu,  X. Xu,  W. Zhang

 Please cite Q-Chem as follows:
 Y. Shao et al., Mol. Phys. 113, 184-215 (2015)
 DOI: 10.1080/00268976.2014.952696

 Q-Chem 5.2.0 for Intel X86 EM64T Linux

 Parts of Q-Chem use Armadillo 8.300.2 (Tropical Shenanigans).
 http://arma.sourceforge.net/

 Q-Chem begins on Sun Sep 26 08:31:52 2021  

Host: cori01
0

     Scratch files written to /tmp/qchem65522//Frg2//
 May1019 |scratch|qcdevops|jenkins|workspace|build_RNUM -1
Processing $rem in /global/common/cori/software/qchem/5.2/config/preferences:
	 MEM_TOTAL  96000 
NAlpha2: 40
NElect   40
Mult     1
Symmetry turned off for PCM/SM12/SMD calculation

Checking the input file for inconsistencies... 	...done.

--------------------------------------------------------------
User input:
--------------------------------------------------------------
$molecule
1 1
 6	0.9640099307	-2.5498132845	0.9479300549
 6	1.3910099307	-0.1678132845	1.3319300549
 7	1.4990099307	-1.2598132845	0.5739300549
 7	0.7030099307	-0.1958132845	2.4759300549
 7	1.9300099307	0.9891867155	0.9449300549
 1	2.0020099307	-1.2048132845	-0.3150699451
 1	0.3180099307	-1.0718132845	2.8189300549
 1	0.5470099307	0.6611867155	3.0049300549
 1	2.4900099307	1.0051867155	0.1029300549
 1	1.7860099307	1.8301867155	1.4869300549
 1	0.8060099307	-3.1318132845	0.0379300549
 1	-0.0089900693	-2.4618132845	1.4299300549
 1	1.6671599307	-3.1025532845	1.5882900549
$end
$rem
EDA2		1
METHOD		WB97X-V
BASIS		DEF2-TZVPD
XC_GRID		000099000590
NL_GRID		1
UNRESTRICTED		FALSE
MAX_SCF_CYCLES		200
SYMMETRY		FALSE
SYM_IGNORE		TRUE
BASIS_LIN_DEP_THRESH		6
THRESH		14
SCF_CONVERGENCE		8
SCF_PRINT_FRGM		TRUE
SOLVENT_METHOD		PCM
!required keywords
JOBTYPE		SP
SYM_IGNORE		TRUE
SUBSYSTEM		TRUE
GEN_SCFMAN		TRUE
CHILD_INSTRUCTION		2
SYM_IGNORE		TRUE
SCFMI		0
RI_K 0		
PARI_K 0		
MIN_PARI_K 0		
IARI_K 0		
OCC_RI_K 0		
PURECART		1111
MEM_STATIC		2000
MEM_TOTAL		96000
GUI		0
CHILD_MP		1
CHILD_MP_ORDERS		232
FRZ_RELAX		0
FRZ_RELAX_METHOD		0
EDA_CLS_ELEC		1
EDA_CLS_DISP		0
FRZ_ORTHO_DECOMP		1
EDA2		FALSE
FRGM_METHOD		FALSE
CIS_N_ROOTS  0
LOCAL_CIS    0
CIS_RLX_DNS  1
$end
$pcm
THEORY                  CPCM
METHOD                  SWIG
SOLVER                  INVERSION
RADII                   UFF
HPOINTS                 302
HEAVYPOINTS             302
PRINTLEVEL              0
$end
$solvent
DIELECTRIC              78.390000 ! water
$end
--------------------------------------------------------------
 ----------------------------------------------------------------
             Standard Nuclear Orientation (Angstroms)
    I     Atom           X                Y                Z
 ----------------------------------------------------------------
    1      C       0.9640099307    -2.5498132845     0.9479300549
    2      C       1.3910099307    -0.1678132845     1.3319300549
    3      N       1.4990099307    -1.2598132845     0.5739300549
    4      N       0.7030099307    -0.1958132845     2.4759300549
    5      N       1.9300099307     0.9891867155     0.9449300549
    6      H       2.0020099307    -1.2048132845    -0.3150699451
    7      H       0.3180099307    -1.0718132845     2.8189300549
    8      H       0.5470099307     0.6611867155     3.0049300549
    9      H       2.4900099307     1.0051867155     0.1029300549
   10      H       1.7860099307     1.8301867155     1.4869300549
   11      H       0.8060099307    -3.1318132845     0.0379300549
   12      H      -0.0089900693    -2.4618132845     1.4299300549
   13      H       1.6671599307    -3.1025532845     1.5882900549
 ----------------------------------------------------------------
 Nuclear Repulsion Energy =         193.51421934 hartrees
 There are       20 alpha and       20 beta electrons
 Requested basis set is def2-TZVPD
 There are 105 shells and 257 basis functions

 Total QAlloc Memory Limit  96000 MB
 Mega-Array Size      1956 MB
 MEM_STATIC part      2000 MB
 Discretize the solute cavity surface with Lebedev spheres
	Using 302 Lebedev grid points for each H atom
	Using 302 Lebedev grid points for other atoms
	Atomic van der Waals radii will be scaled by 1.20
 Remove points where switching function is < 1.0e-08
 Keep 1562 surface tesserae and discard 2364 interior tesserae
 Molecular Surface Area = 152.612 Angst**2

                       Distance Matrix (Angstroms)
             C (  1)   C (  2)   N (  3)   N (  4)   N (  5)   H (  6)
   C (  2)  2.450247
   N (  3)  1.445753  1.333676
   N (  4)  2.818549  1.335239  2.320197
   N (  5)  3.668472  1.333769  2.319785  2.292098
   H (  6)  2.116988  2.039926  1.022915  3.239624  2.531091
   H (  7)  2.470312  2.044435  2.543645  1.016489  3.218407  3.560267
   H (  8)  3.836099  2.049026  3.241343  1.019130  2.502773  4.076933
   H (  9)  3.959890  2.023406  2.516773  3.204200  1.011346  2.301514
   H ( 10)  4.488943  2.042561  3.234817  2.501137  1.010832  3.536253
   H ( 11)  1.091690  3.286633  2.066865  3.817663  4.366768  2.295290
   H ( 12)  1.089402  2.689245  2.109882  2.595345  3.988025  2.944350
   H ( 13)  1.100001  2.958831  2.110188  3.188515  4.150342  2.708564
             H (  7)   H (  8)   H (  9)   H ( 10)   H ( 11)   H ( 12)
   H (  8)  1.757932
   H (  9)  4.050700  3.509300
   H ( 10)  3.514378  2.281667  1.758322
   H ( 11)  3.495097  4.822553  4.467085  5.261316
   H ( 12)  1.992072  3.541594  4.475044  4.652584  1.746651
   H ( 13)  2.731041  4.174607  4.444874  4.935213  1.773711  1.801417

 
 A cutoff of  1.0D-14 yielded   5441 shell pairs
 There are     33177 function pairs (     41513 Cartesian)
 Smallest overlap matrix eigenvalue = 1.68E-05

 Scale SEOQF with 1.000000e-01/1.000000e-01/1.000000e-01

 Standard Electronic Orientation quadrupole field applied
 Nucleus-field energy     =    -0.0000000005 hartrees
 Guess from superposition of atomic densities
 Warning:  Energy on first SCF cycle will be non-variational
 SAD guess density has 40.388232 electrons

 -----------------------------------------------------------------------
  General SCF calculation program by
  Eric Jon Sundstrom, Paul Horn, Yuezhi Mao, Dmitri Zuev, Alec White,
  David Stuck, Shaama M.S., Shane Yost, Joonho Lee, David Small,
  Daniel Levine, Susi Lehtola, Hugh Burton, Evgeny Epifanovsky
 -----------------------------------------------------------------------
 Exchange:     0.1670 Hartree-Fock + 1.0000 wB97X-V + LR-HF
 Correlation:  1.0000 wB97X-V
 Using Euler-Maclaurin-Lebedev (99,590) quadrature formula
 Nonlocal Correlation:  VV10 with C = 0.0100 and b = 6.00 and scale = 1.00000
 Grid used for NLC:  SG-1 standard quadrature
Energy prior to optimization (guess energy) = -244.726072147670
Begin Timing: Total SCF Calculation
begin iterations for algorithm: DIIS         
the SCF tolerance is set to 1.00e-08
    1    -244.7260721477      7.92e-03     00000 
    2    -244.9372000194      6.28e-03     00000 
    3    -245.1799616620      3.10e-04     00000 
    4    -245.1806013568      1.69e-04     00000 
    5    -245.1808006394      3.29e-05     00000 
    6    -245.1808084359      1.47e-05     00000 
    7    -245.1808101507      2.26e-06     00000 
    8    -245.1808102207      7.69e-07     00000 
    9    -245.1808102302      3.07e-07     00000 
   10    -245.1808102318      9.26e-08     00000 
   11    -245.1808102320      4.59e-08     00000 
   12    -245.1808102320      9.37e-09     00000 Convergence criterion met
Timing for Total SCF: 741.00s (wall), 1469.57s (cpu)

************** Final PCM Free Energy Summary **************
 G_electrostatic  =      -0.08143295 hartree =     -51.09994674 kcal/mol
 G_cavitation     =       0.00000000 hartree =       0.00000000 kcal/mol
 G_dispersion     =       0.00000000 hartree =       0.00000000 kcal/mol
 G_repulsion      =       0.00000000 hartree =       0.00000000 kcal/mol
 --------------------------------------------------
 Non-electrostatic Free Energy =       0.00000000 hartree =       0.00000000 kcal/mol
 Total                         =      -0.08143295 hartree =     -51.09994674 kcal/mol
 --------------------------------------------------
 SCF Energy (H0 + V/2)                       =    -245.18081023 
 Solute Internal Energy (H0)                 =    -245.09937728 
 Total Free Energy (H0 + V/2 + non-elec)     =    -245.18081023 hartree
                                             = -153853.28052804 kcal/mol
***********************************************************

E_pcm = -0.0814329490
Multipole orders to be included
        2
        3
computing dipole RHS
computing quadrupole RHS
total number of RHS in solve_reponses: 8
RHS batch sizes
        8
Beginning Block Conjugate Gradient Iterations. Batch Number: 0
computing hessian-vector products by finite difference
              1      4.56e-01     00000 Conjugate Gradient Iteration
computing hessian-vector products by finite difference
              2      1.72e-01     00000 Conjugate Gradient Iteration
computing hessian-vector products by finite difference
              3      4.93e-02     00000 Conjugate Gradient Iteration
computing hessian-vector products by finite difference
              4      1.36e-02     00000 Conjugate Gradient Iteration
computing hessian-vector products by finite difference
              5      1.94e-03     00000 Conjugate Gradient Iteration
computing hessian-vector products by finite difference
              6      3.12e-04     00000 Conjugate Gradient Iteration
computing hessian-vector products by finite difference
              7      4.06e-05     00000 Conjugate Gradient Iteration
computing hessian-vector products by finite difference
              8      5.65e-06     00000 Conjugate Gradient Iteration
computing hessian-vector products by finite difference
              9      8.40e-07     00000 Conjugate Gradient Iteration
computing hessian-vector products by finite difference
             10      1.46e-07     00000 Conjugate Gradient Iteration
computing hessian-vector products by finite difference
             11      3.15e-08     00000 Conjugate Gradient Iteration
computing hessian-vector products by finite difference
             12      4.77e-09     00000 CG Converged
batch 0 complete
Done Calculating Responses
TESTING ORTHOGONALIZATION OF MULTIPOLE BASIS
Multipole virts passed orthogonality test
Virts Per Order
           60
          100
 
 --------------------------------------------------------------
 
                    Orbital Energies (a.u.)
 --------------------------------------------------------------
 
 Alpha MOs
 -- Occupied --
-14.4861 -14.4790 -14.4759 -10.4546 -10.3287  -1.1955  -1.0842  -1.0654
 -0.8795  -0.7919  -0.7498  -0.7144  -0.6470  -0.6390  -0.6205  -0.5989
 -0.5503  -0.5307  -0.4240  -0.4024
 -- Virtual --
  0.0482   0.0749   0.0751   0.0855   0.1114   0.1151   0.1238   0.1417
  0.1595   0.1635   0.1787   0.1869   0.1922   0.1939   0.2109   0.2203
  0.2322   0.2334   0.2395   0.2583   0.2627   0.2725   0.2808   0.2893
  0.2965   0.3052   0.3060   0.3137   0.3243   0.3307   0.3411   0.3488
  0.3539   0.3592   0.3630   0.3800   0.3972   0.3983   0.4024   0.4165
  0.4289   0.4364   0.4487   0.4497   0.4593   0.4642   0.4752   0.4847
  0.4878   0.4949   0.5008   0.5028   0.5115   0.5199   0.5320   0.5368
  0.5455   0.5550   0.5690   0.5737   0.5943   0.6047   0.6213   0.6362
  0.6397   0.6616   0.6655   0.6870   0.7033   0.7177   0.7313   0.7473
  0.7767   0.7778   0.7976   0.8075   0.8139   0.8187   0.8375   0.8465
  0.8632   0.8670   0.8826   0.9007   0.9180   0.9564   0.9671   0.9755
  1.0152   1.0452   1.0579   1.0725   1.0856   1.0999   1.1117   1.1245
  1.1276   1.1527   1.1931   1.2403   1.2492   1.3112   1.3408   1.3861
  1.4020   1.4257   1.4396   1.4708   1.5267   1.5425   1.6049   1.6342
  1.6539   1.6862   1.7344   1.7670   1.8139   1.8344   1.8514   1.8644
  1.8930   1.8993   1.9103   1.9458   1.9725   1.9908   2.0046   2.0342
  2.0824   2.0940   2.1491   2.1734   2.1864   2.2181   2.2445   2.2687
  2.2993   2.3246   2.3575   2.3874   2.4119   2.4512   2.4609   2.4924
  2.5279   2.5527   2.6033   2.6113   2.6226   2.6516   2.6691   2.7002
  2.7619   2.7849   2.8206   2.8615   2.8671   2.8775   2.9133   2.9352
  3.0280   3.0914   3.1026   3.1214   3.1471   3.1741   3.1972   3.2248
  3.2360   3.2644   3.2772   3.2899   3.3449   3.3777   3.3922   3.4090
  3.4426   3.4700   3.5162   3.5588   3.5698   3.6251   3.6436   3.7263
  3.7838   3.8450   3.9159   3.9436   4.0358   4.1087   4.1353   4.2086
  4.2486   4.2817   4.2996   4.3317   4.3663   4.4549   4.5478   4.5788
  4.6314   4.8186   4.8385   4.8464   4.9007   4.9641   4.9804   5.0246
  5.0858   5.0955   5.1135   5.1398   5.1612   5.1851   5.2388   5.3283
  5.3538   5.3733   5.3922   5.4129   5.4273   5.4637   5.5506   5.6104
  5.6618   5.7379   5.7590   5.8716   6.1042   6.1286   6.3401   6.3890
 22.6631  23.5206  32.3041  32.4169  32.7728
 --------------------------------------------------------------
 
          Ground-State Mulliken Net Atomic Charges

     Atom                 Charge (a.u.)
  ----------------------------------------
      1 C                    -0.810905
      2 C                     0.550113
      3 N                    -0.064699
      4 N                    -0.256488
      5 N                    -0.269936
      6 H                     0.251046
      7 H                     0.168489
      8 H                     0.203721
      9 H                     0.203828
     10 H                     0.200234
     11 H                     0.254487
     12 H                     0.296133
     13 H                     0.273978
  ----------------------------------------
  Sum of atomic charges =     1.000000

 -----------------------------------------------------------------
                    Cartesian Multipole Moments
 -----------------------------------------------------------------
    Charge (ESU x 10^10)
                 4.8032
    Dipole Moment (Debye)
         X       6.4944      Y      -1.4860      Z       6.1530
       Tot       9.0689
    Quadrupole Moments (Debye-Ang)
        XX     -18.6808     XY       1.0123     YY     -14.4505
        XZ       1.7814     YZ       0.8272     ZZ     -12.2805
    Octopole Moments (Debye-Ang^2)
       XXX     -93.0199    XXY      25.0724    XYY     -19.3507
       YYY      47.5698    XXZ     -41.1536    XYZ       4.9226
       YYZ     -19.4804    XZZ     -31.8768    YZZ      22.0778
       ZZZ     -65.9441
    Hexadecapole Moments (Debye-Ang^3)
      XXXX    -327.2705   XXXY      62.8597   XXYY    -102.2691
      XYYY      44.5859   YYYY    -344.3109   XXXZ    -138.4315
      XXYZ      25.2010   XYYZ     -23.5250   YYYZ      53.9324
      XXZZ    -131.4408   XYZZ      24.9521   YYZZ     -99.3418
      XZZZ    -114.4517   YZZZ      64.6505   ZZZZ    -278.2002
 -----------------------------------------------------------------
Archival summary:
1\1\nid00551\SP\ProcedureUnspecified\BasisUnspecified\328(1+,1)\meili\SunSep2612:34:072021SunSep2612:34:072021\0\\#,ProcedureUnspecified,BasisUnspecified,\\1,1\C\N,1,1.33368\H,2,1.02291,1,119.324\N,1,1.33377,2,120.84,3,-0.0340261,0\H,4,1.01083,1,120.569,2,175.303,0\H,4,1.01135,1,118.624,2,-5.1247,0\N,1,1.33524,2,120.764,3,177.756,0\H,7,1.01649,1,120.155,2,5.04226,0\H,7,1.01913,1,120.395,2,-174.017,0\C,2,1.44575,1,123.613,3,178.641,0\H,10,1.0894,2,111.894,1,39.4879,0\H,10,1.09169,2,108.277,1,156.455,0\H,10,1.1,2,111.248,1,-84.9525,0\\\@

 Total job time:  14539.85s(wall), 28824.02s(cpu) 
 Sun Sep 26 12:34:12 2021

        *************************************************************
        *                                                           *
        *  Thank you very much for using Q-Chem.  Have a nice day.  *
        *                                                           *
        *************************************************************


Done Job For Fragment 1
calling putenv with: QCSCRATCH=/global/cscratch1/sd/meili 
calling putenv with: QCLOCALSCR=/tmp 
calling putenv with: QCTHREADS=32 
Doing General SCFMI
 Exchange:     0.1670 Hartree-Fock + 1.0000 wB97X-V + LR-HF
 Correlation:  1.0000 wB97X-V
 Using Euler-Maclaurin-Lebedev (99,590) quadrature formula
 Nonlocal Correlation:  VV10 with C = 0.0100 and b = 6.00 and scale = 1.00000
 Grid used for NLC:  SG-1 standard quadrature
performing fock build before subrot guess so that all methods have access
Printing subrot_rss_gen Method Specification:
Occupied Subspace Method is 0
Virtual Subspace Method is 0
Energy of the unrelaxed supersystem initial determinant -529.365366504766
performing fock build before subrot guess so that all methods have access
Printing subrot_rss_gen Method Specification:
Occupied Subspace Method is 0
Virtual Subspace Method is 0
Energy of the unrelaxed supersystem initial determinant w/ solvent -529.631379168964
write pseudocanon occs and virts to disk
write pseudocanon orbital energies to disk
Tolerance of ortho_decomp_scf: 1.00e-06
GDM subspace size: 20
Beginning the Orthogonal Decomposition of the Initial Supersystem Wavefunction
    1    -529.4555407807      2.25e-02     ortho_decomp Preconditoned Steepest Descent
    2    -529.4569278847      5.04e-04     ortho_decomp BFGS Step
    3    -529.4569313524      3.16e-05     ortho_decomp BFGS Step
    4    -529.4569313562      1.02e-06     ortho_decomp BFGS Step
    5    -529.4569313563      2.63e-08     ortho_decomp 00000 Convergence criterion met
 Hartree-Fock
 Hartree-Fock
 Hartree-Fock
Doing General SCFMI
 Exchange:     0.1670 Hartree-Fock + 1.0000 wB97X-V + LR-HF
 Correlation:  1.0000 wB97X-V
 Using Euler-Maclaurin-Lebedev (99,590) quadrature formula
 Nonlocal Correlation:  VV10 with C = 0.0100 and b = 6.00 and scale = 1.00000
 Grid used for NLC:  SG-1 standard quadrature
performing fock build at end of subrot_r(subrot) constructor so that all methods have access
<S^2> of initial wavefunction before polarization iterations 0.0000000000
Beginning iterations for the determination of the polarized wavefunction
Energy prior to optimization (guess energy) = -529.631379168964
Begin Timing: Total SCF Calculation
begin iterations for algorithm: DIIS         
the SCF tolerance is set to 1.00e-08
    1    -529.6313791690      1.50e-04     00000 
    2    -529.6329307058      7.27e-05     00000 
    3    -529.6331467478      2.16e-05     00000 
    4    -529.6331814197      1.06e-05     00000 
    5    -529.6331892796      3.80e-06     00000 
    6    -529.6331907038      1.83e-06     00000 
    7    -529.6331909071      5.11e-07     00000 
    8    -529.6331909300      1.81e-07     00000 
    9    -529.6331909319      6.86e-08     00000 
   10    -529.6331909322      1.93e-08     00000 
   11    -529.6331909322      8.78e-09     00000 Convergence criterion met
write pseudocanon occs and virts to disk
write pseudocanon orbital energies to disk
Timing for Total SCF: 7140.00s (wall), 14198.80s (cpu)
<S^2> of polarized wavefunction after polarization iterations 0.0000000000
relaxing scfmi constraint to allow all rotations in the entire AO span
Doing General SCFMI
 Exchange:     0.1670 Hartree-Fock + 1.0000 wB97X-V + LR-HF
 Correlation:  1.0000 wB97X-V
 Using Euler-Maclaurin-Lebedev (99,590) quadrature formula
 Nonlocal Correlation:  VV10 with C = 0.0100 and b = 6.00 and scale = 1.00000
 Grid used for NLC:  SG-1 standard quadrature
performing fock build at end of subrot_r(subrot) constructor so that all methods have access
<S^2> of polarized wavefunction before ct-allowed iterations 0.0000000000
Beginning iterations for the determination of the CT-Allowed wavefunction
Energy prior to optimization (guess energy) = -529.633190932193
Begin Timing: Total SCF Calculation
begin iterations for algorithm: DIIS         
the SCF tolerance is set to 1.00e-08
    1    -529.6331909322      8.33e-05     00000 
    2    -529.6340556703      7.06e-06     00000 
    3    -529.6340769159      1.28e-06     00000 
    4    -529.6340777227      7.36e-07     00000 
    5    -529.6340778087      1.67e-07     00000 
    6    -529.6340778173      6.76e-08     00000 
    7    -529.6340778183      1.80e-08     00000 
    8    -529.6340778184      5.91e-09     00000 Convergence criterion met
write pseudocanon occs and virts to disk
write pseudocanon orbital energies to disk
Timing for Total SCF: 5082.00s (wall), 10107.39s (cpu)
<S^2> of ct_allowed wavefunction after ct-allowed iterations 0.0000000000

================================
        Results of EDA2         
================================
Basic EDA Quantities
--------------------
Fragment Energies (Ha):
1 -284.4531585171
2 -245.1808102320
--------------------
  E_prp (kJ/mol) = -0.0000
  E_sol (kJ/mol) = -275.1332
  E_frz (kJ/mol) = 281.9322
  E_pol (kJ/mol) = -4.7568
  E_vct (kJ/mol) = -2.3285
  E_int (kJ/mol) = -0.2864
--------------------


Initial Wavefunction Decomposition
--------------------
  --------------------
  Orthogonal Fragment Subspace Decomposition:
  --------------------
     E_elec   (ELEC)   (kJ/mol) = 273.0127
     E_pauli  (PAULI)  (kJ/mol) = 32.1453
     E_disp   (DISP)   (kJ/mol) = -23.2258
     --------------------
     Terms summing to E_pauli:
     --------------------
        E_kep_pauli       (kJ/mol) = 41.5258
        E_disp_free_pauli (kJ/mol) = -9.3805
  --------------------
  Classical Frozen Decomposition:
  --------------------
     E_cls_elec  (CLS ELEC)  (kJ/mol) = 287.5146
     E_cls_pauli (CLS PAULI) (kJ/mol) = -5.5824
    [E_mod_pauli (MOD PAULI) (kJ/mol) = 17.6434 (CLS PAULI - DISP from orthogonal decomposition) ]
  --------------------
--------------------

Simplified EDA Summary (kJ/mol)
--------------------
 PREPARATION     -0.0000
 SOLVATION       -275.1332
 FROZEN          305.1580      (does not include dispersion)
[PAULI           32.1453]     (if this is negligible, then frozen describes electrostatics)
 DISPERSION      -23.2258
 POLARIZATION    -4.7568
 CHARGE TRANSFER -2.3285
 TOTAL           -0.2864     (PRP + SOL + FRZ + DISP + POL + CT)
--------------------
 
 --------------------------------------------------------------
 
                    Orbital Energies (a.u.)
 --------------------------------------------------------------
 
 Alpha MOs
 -- Occupied --
-14.4973 -14.4915 -14.4890 -14.4868 -14.4831 -14.4664 -10.4654 -10.4554
-10.3443 -10.3358 -10.2886  -1.2115  -1.2062  -1.0963  -1.0939  -1.0781
 -1.0757  -0.9257  -0.8884  -0.8308  -0.8019  -0.7935  -0.7602  -0.7500
 -0.7243  -0.7117  -0.6707  -0.6573  -0.6501  -0.6485  -0.6346  -0.6205
 -0.6081  -0.6064  -0.5889  -0.5591  -0.5383  -0.5294  -0.5173  -0.4747
 -0.4351  -0.4168  -0.4112  -0.4030
 -- Virtual --
  0.0365   0.0525   0.0587   0.0607   0.0616   0.0757   0.0869   0.0916
  0.0934   0.0996   0.1020   0.1201   0.1257   0.1314   0.1327   0.1391
  0.1394   0.1483   0.1521   0.1625   0.1688   0.1716   0.1803   0.1841
  0.1886   0.1960   0.1989   0.2059   0.2143   0.2175   0.2226   0.2290
  0.2322   0.2334   0.2414   0.2451   0.2470   0.2521   0.2589   0.2607
  0.2674   0.2722   0.2775   0.2836   0.2870   0.2876   0.2910   0.2981
  0.3003   0.3018   0.3079   0.3159   0.3179   0.3203   0.3237   0.3324
  0.3373   0.3384   0.3401   0.3436   0.3445   0.3500   0.3518   0.3562
  0.3567   0.3612   0.3648   0.3666   0.3778   0.3835   0.3879   0.3925
  0.3967   0.4049   0.4053   0.4064   0.4127   0.4170   0.4235   0.4261
  0.4312   0.4378   0.4393   0.4442   0.4474   0.4550   0.4593   0.4629
  0.4657   0.4682   0.4724   0.4742   0.4775   0.4794   0.4873   0.4883
  0.4945   0.4962   0.4989   0.5031   0.5063   0.5112   0.5161   0.5187
  0.5225   0.5234   0.5326   0.5333   0.5370   0.5443   0.5469   0.5544
  0.5604   0.5652   0.5659   0.5731   0.5830   0.5866   0.5918   0.5957
  0.6021   0.6059   0.6070   0.6124   0.6198   0.6265   0.6289   0.6336
  0.6422   0.6507   0.6571   0.6602   0.6636   0.6715   0.6757   0.6808
  0.6873   0.6916   0.6954   0.7058   0.7073   0.7112   0.7161   0.7226
  0.7259   0.7296   0.7355   0.7483   0.7506   0.7570   0.7611   0.7642
  0.7682   0.7718   0.7745   0.7783   0.7956   0.7979   0.8026   0.8087
  0.8154   0.8203   0.8290   0.8337   0.8375   0.8416   0.8473   0.8609
  0.8653   0.8698   0.8771   0.8785   0.8841   0.8904   0.8984   0.9039
  0.9123   0.9166   0.9252   0.9307   0.9379   0.9487   0.9573   0.9616
  0.9716   0.9878   0.9925   0.9956   1.0024   1.0101   1.0216   1.0339
  1.0401   1.0481   1.0528   1.0585   1.0656   1.0766   1.0831   1.0908
  1.1002   1.1021   1.1127   1.1153   1.1238   1.1377   1.1508   1.1536
  1.1715   1.1799   1.1817   1.1971   1.2132   1.2287   1.2306   1.2497
  1.2592   1.2665   1.2770   1.2972   1.3150   1.3313   1.3545   1.3587
  1.3712   1.3854   1.3869   1.3972   1.4229   1.4489   1.4540   1.4644
  1.4737   1.4803   1.4954   1.5104   1.5198   1.5410   1.5664   1.5761
  1.5778   1.5868   1.6028   1.6109   1.6390   1.6524   1.6620   1.6725
  1.6905   1.7058   1.7168   1.7270   1.7570   1.7739   1.7956   1.8038
  1.8050   1.8533   1.8733   1.8749   1.8850   1.8924   1.8979   1.9119
  1.9160   1.9207   1.9282   1.9358   1.9442   1.9557   1.9698   1.9765
  1.9812   1.9846   2.0031   2.0065   2.0219   2.0454   2.0516   2.0646
  2.0670   2.0822   2.0929   2.1144   2.1319   2.1477   2.1564   2.1875
  2.1941   2.1993   2.2122   2.2233   2.2414   2.2455   2.2549   2.2772
  2.2812   2.2991   2.3071   2.3163   2.3192   2.3500   2.3535   2.3583
  2.3772   2.3892   2.4071   2.4144   2.4310   2.4491   2.4534   2.4619
  2.4670   2.4899   2.5077   2.5167   2.5202   2.5499   2.5635   2.5859
  2.5881   2.6268   2.6310   2.6470   2.6557   2.6663   2.6730   2.6929
  2.6989   2.7219   2.7348   2.7393   2.7441   2.7514   2.7727   2.7890
  2.8017   2.8184   2.8400   2.8475   2.8555   2.8619   2.8770   2.8897
  2.9117   2.9255   2.9305   2.9495   2.9643   2.9716   3.0041   3.0061
  3.0235   3.0521   3.0674   3.0701   3.0903   3.1010   3.1146   3.1182
  3.1326   3.1586   3.1655   3.1763   3.1861   3.1947   3.2076   3.2161
  3.2296   3.2433   3.2542   3.2590   3.2711   3.2730   3.2896   3.2937
  3.2977   3.3056   3.3230   3.3282   3.3416   3.3563   3.3735   3.3817
  3.3930   3.4082   3.4269   3.4307   3.4406   3.4521   3.4656   3.4830
  3.4933   3.5063   3.5184   3.5272   3.5359   3.5575   3.5636   3.5751
  3.5975   3.6098   3.6415   3.6512   3.6687   3.6752   3.6904   3.7046
  3.7536   3.7665   3.8020   3.8134   3.8415   3.8589   3.8771   3.9073
  3.9455   3.9495   3.9524   3.9834   4.0457   4.0505   4.0863   4.1031
  4.1164   4.1470   4.1672   4.1721   4.2252   4.2424   4.2756   4.2799
  4.2917   4.3008   4.3191   4.3314   4.3388   4.3444   4.4021   4.4193
  4.4655   4.5371   4.5480   4.5688   4.5944   4.6011   4.6258   4.6494
  4.6579   4.6830   4.8128   4.8441   4.8588   4.8614   4.8740   4.9099
  4.9241   4.9350   4.9692   4.9858   4.9937   4.9973   5.0103   5.0536
  5.0711   5.0934   5.1144   5.1229   5.1323   5.1397   5.1587   5.1684
  5.1837   5.2064   5.2267   5.2421   5.2583   5.2594   5.2831   5.3043
  5.3412   5.3450   5.3724   5.3797   5.3960   5.4163   5.4312   5.4471
  5.4562   5.4807   5.5077   5.5173   5.5370   5.5669   5.5782   5.5834
  5.6317   5.6572   5.6792   5.7202   5.7567   5.7693   5.7946   5.8596
  5.8805   5.9279   6.1188   6.1263   6.1564   6.1958   6.3460   6.3556
  6.3919   6.4670  22.7008  22.7420  22.7945  23.5362  23.6791  32.4772
 32.4986  32.5411  32.6095  32.8213  32.8981
 --------------------------------------------------------------
 
          Ground-State Mulliken Net Atomic Charges

     Atom                 Charge (a.u.)
  ----------------------------------------
      1 C                    -0.192402
      2 C                    -0.829474
      3 C                     0.332090
      4 N                    -0.099403
      5 N                    -0.205515
      6 N                    -0.244541
      7 H                     0.216095
      8 H                     0.243348
      9 H                     0.178292
     10 H                     0.324194
     11 H                     0.229276
     12 H                     0.158000
     13 H                     0.206215
     14 H                     0.248683
     15 H                     0.211133
     16 H                     0.238623
     17 C                    -0.903361
     18 C                     0.408690
     19 N                    -0.054026
     20 N                    -0.242717
     21 N                    -0.255162
     22 H                     0.288251
     23 H                     0.188033
     24 H                     0.224981
     25 H                     0.218503
     26 H                     0.220472
     27 H                     0.284716
     28 H                     0.337052
     29 H                     0.269956
  ----------------------------------------
  Sum of atomic charges =     2.000000

 -----------------------------------------------------------------
                    Cartesian Multipole Moments
 -----------------------------------------------------------------
    Charge (ESU x 10^10)
                 9.6064
    Dipole Moment (Debye)
         X       2.9728      Y      -0.0303      Z      -1.5275
       Tot       3.3424
    Quadrupole Moments (Debye-Ang)
        XX     -40.6039     XY       1.4785     YY     -37.7323
        XZ       2.5515     YZ       2.8060     ZZ     -29.1399
    Octopole Moments (Debye-Ang^2)
       XXX       5.1108    XXY       7.0251    XYY      17.0670
       YYY      -3.8811    XXZ     -21.7761    XYZ      -1.2359
       YYZ      -1.1311    XZZ      15.8471    YZZ      -7.9586
       ZZZ       4.4302
    Hexadecapole Moments (Debye-Ang^3)
      XXXX    -787.4584   XXXY     146.1884   XXYY    -224.0308
      XYYY     123.8227   YYYY    -576.9424   XXXZ    -131.8036
      XXYZ      25.6354   XYYZ     -25.2133   YYYZ      53.8594
      XXZZ    -269.7840   XYZZ      66.4411   YYZZ    -190.6030
      XZZZ    -171.0659   YZZZ      95.9118   ZZZZ    -667.6153
 -----------------------------------------------------------------
Archival summary:
1\1\nid00551\SP\ProcedureUnspecified\BasisUnspecified\6518(2+,1)\meili\SunSep2618:51:152021SunSep2618:51:152021\0\\#,ProcedureUnspecified,BasisUnspecified,\\2,1\N\H,1,1.01059\C,1,1.32376,2,118.365\N,3,1.31494,1,120.3,2,6.50318,0\H,4,1.00733,3,120.994,1,1.23649,0\H,4,1.00749,3,120.917,1,175.139,0\N,3,1.32127,1,121.744,2,-172.496,0\H,7,1.00411,3,117.112,1,38.8904,0\H,7,1.01015,3,118.286,1,-175.207,0\C,1,1.46735,2,117.818,3,-177.546,0\H,10,1.09022,1,110.271,2,66.4691,0\H,10,1.09143,1,107.813,2,-52.1187,0\C,10,1.54505,1,111.286,2,-171.49,0\H,13,1.09404,10,112.756,1,-89.3679,0\H,13,1.09427,10,111.116,1,47.3645,0\H,13,1.1,10,116.117,1,143.7,0\H,4,2.92406,3,92.7181,1,89.0871,0\N,17,1.02291,4,112.635,3,8.49705,0\C,18,1.33368,17,119.324,4,-81.2545,0\N,19,1.33377,18,120.84,17,-0.0340261,0\H,20,1.01083,19,120.569,18,175.303,0\H,20,1.01135,19,118.624,18,-5.1247,0\N,19,1.33524,18,120.764,17,177.756,0\H,23,1.01649,19,120.155,18,5.04226,0\H,23,1.01913,19,120.395,18,-174.017,0\C,18,1.44575,17,117.05,4,100.016,0\H,26,1.0894,18,111.894,17,-141.842,0\H,26,1.09169,18,108.277,17,-24.8751,0\H,26,1.1,18,111.248,17,93.7172,0\\\@

 Total job time:  62936.95s(wall), 45048.24s(cpu) 
 Sun Sep 26 18:51:21 2021

        *************************************************************
        *                                                           *
        *  Thank you very much for using Q-Chem.  Have a nice day.  *
        *                                                           *
        *************************************************************


