
Running Job 1 of 1 SSI-103GLU-108TRP-1_PCM_TZVPD.in
qchem SSI-103GLU-108TRP-1_PCM_TZVPD.in_41622.0 /tmp/qchem41622/ 0
/global/common/cori/software/qchem/5.2/exe/qcprog.exe_s SSI-103GLU-108TRP-1_PCM_TZVPD.in_41622.0 /tmp/qchem41622/
                  Welcome to Q-Chem
     A Quantum Leap Into The Future Of Chemistry


 Q-Chem 5.2, Q-Chem, Inc., Pleasanton, CA (2019)

 License issued to: National Energy Research Scientific Computing Center

 Yihan Shao,  Zhengting Gan,  E. Epifanovsky,  A. T. B. Gilbert,  M. Wormit,  
 J. Kussmann,  A. W. Lange,  A. Behn,  Jia Deng,  Xintian Feng,  D. Ghosh,  
 M. Goldey,  P. R. Horn,  L. D. Jacobson,  I. Kaliman,  T. Kus,  A. Landau,  
 Jie Liu,  E. I. Proynov,  R. M. Richard,  R. P. Steele,  E. J. Sundstrom,  
 H. L. Woodcock III,  P. M. Zimmerman,  D. Zuev,  B. Albrecht,  E. Alguire,  
 S. A. Baeppler,  D. Barton,  Z. Benda,  Y. A. Bernard,  E. J. Berquist,  
 K. B. Bravaya,  H. Burton,  D. Casanova,  Chun-Min Chang,  Yunqing Chen,  
 A. Chien,  K. D. Closser,  M. P. Coons,  S. Coriani,  S. Dasgupta,  
 A. L. Dempwolff,  M. Diedenhofen,  Hainam Do,  R. G. Edgar,  Po-Tung Fang,  
 S. Faraji,  S. Fatehi,  Qingguo Feng,  K. D. Fenk,  J. Fosso-Tande,  
 J. Gayvert,  Qinghui Ge,  A. Ghysels,  G. Gidofalvi,  J. Gomes,  
 J. Gonthier,  A. Gunina,  D. Hait,  M. W. D. Hanson-Heine,  
 P. H. P. Harbach,  A. W. Hauser,  M. F. Herbst,  J. E. Herr,  
 E. G. Hohenstein,  Z. C. Holden,  Kerwin Hui,  B. C. Huynh,  T.-C. Jagau,  
 Hyunjun Ji,  B. Kaduk,  K. Khistyaev,  Jaehoon Kim,  P. Klunzinger,  K. Koh,  
 D. Kosenkov,  L. Koulias,  T. Kowalczyk,  C. M. Krauter,  A. Kunitsa,  
 Ka Un Lao,  A. Laurent,  K. V. Lawler,  Joonho Lee,  D. Lefrancois,  
 S. Lehtola,  D. S. Levine,  Yi-Pei Li,  You-Sheng Lin,  Fenglai Liu,  
 E. Livshits,  A. Luenser,  P. Manohar,  E. Mansoor,  S. F. Manzer,  
 Shan-Ping Mao,  Yuezhi Mao,  N. Mardirossian,  A. V. Marenich,  
 T. Markovich,  L. A. Martinez-Martinez,  S. A. Maurer,  N. J. Mayhall,  
 S. C. McKenzie,  J.-M. Mewes,  P. Morgante,  A. F. Morrison,  
 J. W. Mullinax,  K. Nanda,  T. S. Nguyen-Beck,  R. Olivares-Amaya,  
 J. A. Parkhill,  Zheng Pei,  T. M. Perrine,  F. Plasser,  P. Pokhilko,  
 S. Prager,  A. Prociuk,  E. Ramos,  D. R. Rehn,  F. Rob,  M. Scheurer,  
 M. Schneider,  N. Sergueev,  S. M. Sharada,  S. Sharma,  D. W. Small,  
 T. Stauch,  T. Stein,  Yu-Chuan Su,  A. J. W. Thom,  A. Tkatchenko,  
 T. Tsuchimochi,  N. M. Tubman,  L. Vogt,  M. L. Vidal,  O. Vydrov,  
 M. A. Watson,  J. Wenzel,  M. de Wergifosse,  T. A. Wesolowski,  A. White,  
 J. Witte,  A. Yamada,  Jun Yang,  K. Yao,  S. Yeganeh,  S. R. Yost,  
 Zhi-Qiang You,  A. Zech,  Igor Ying Zhang,  Xing Zhang,  Yan Zhao,  
 Ying Zhu,  B. R. Brooks,  G. K. L. Chan,  C. J. Cramer,  M. S. Gordon,  
 W. J. Hehre,  A. Klamt,  M. W. Schmidt,  C. D. Sherrill,  D. G. Truhlar,  
 A. Aspuru-Guzik,  R. Baer,  A. T. Bell,  N. A. Besley,  Jeng-Da Chai,  
 A. E. DePrince, III,  R. A. DiStasio Jr.,  A. Dreuw,  B. D. Dunietz,  
 T. R. Furlani,  Chao-Ping Hsu,  Yousung Jung,  Jing Kong,  D. S. Lambrecht,  
 WanZhen Liang,  C. Ochsenfeld,  V. A. Rassolov,  L. V. Slipchenko,  
 J. E. Subotnik,  T. Van Voorhis,  J. M. Herbert,  A. I. Krylov,  
 P. M. W. Gill,  M. Head-Gordon

 Contributors to earlier versions of Q-Chem not listed above: 
 R. D. Adamson,  B. Austin,  J. Baker,  G. J. O. Beran,  K. Brandhorst,  
 S. T. Brown,  E. F. C. Byrd,  A. K. Chakraborty,  C.-L. Cheng,  
 Siu Hung Chien,  D. M. Chipman,  D. L. Crittenden,  H. Dachsel,  
 R. J. Doerksen,  A. D. Dutoi,  L. Fusti-Molnar,  W. A. Goddard III,  
 A. Golubeva-Zadorozhnaya,  S. R. Gwaltney,  G. Hawkins,  A. Heyden,  
 S. Hirata,  G. Kedziora,  F. J. Keil,  C. Kelley,  Jihan Kim,  R. A. King,  
 R. Z. Khaliullin,  P. P. Korambath,  W. Kurlancheek,  A. M. Lee,  M. S. Lee,  
 S. V. Levchenko,  Ching Yeh Lin,  D. Liotard,  R. C. Lochan,  I. Lotan,  
 P. E. Maslen,  N. Nair,  D. P. O'Neill,  D. Neuhauser,  E. Neuscamman,  
 C. M. Oana,  R. Olson,  B. Peters,  R. Peverati,  P. A. Pieniazek,  
 Y. M. Rhee,  J. Ritchie,  M. A. Rohrdanz,  E. Rosta,  N. J. Russ,  
 H. F. Schaefer III,  N. E. Schultz,  N. Shenvi,  A. C. Simmonett,  A. Sodt,  
 D. Stuck,  K. S. Thanthiriwatte,  V. Vanovschi,  Tao Wang,  A. Warshel,  
 C. F. Williams,  Q. Wu,  X. Xu,  W. Zhang

 Please cite Q-Chem as follows:
 Y. Shao et al., Mol. Phys. 113, 184-215 (2015)
 DOI: 10.1080/00268976.2014.952696

 Q-Chem 5.2.0 for Intel X86 EM64T Linux

 Parts of Q-Chem use Armadillo 8.300.2 (Tropical Shenanigans).
 http://arma.sourceforge.net/

 Q-Chem begins on Sun Sep 26 13:09:09 2021  

Host: cori01
0

     Scratch files written to /tmp/qchem41622//
 May1019 |scratch|qcdevops|jenkins|workspace|build_RNUM -1
Processing $rem in /global/common/cori/software/qchem/5.2/config/preferences:
	 MEM_TOTAL  96000 
NAlpha2: 102
NElect   102
Mult     1
Symmetry turned off for PCM/SM12/SMD calculation

 Q-Chem warning in module libgen/rem_setup.C, line 2803:

 Neither GIA nor STOLL is specified by user. Use STOLL as the default


Checking the input file for inconsistencies... 	...done.

--------------------------------------------------------------
User input:
--------------------------------------------------------------
$comment
SSI-103GLU-108TRP-1.pdb
$end

$molecule
-1 1
--
-1 1
C   -1.456343793961    4.029744566509   -0.948699195458
C   -1.157343793961    3.566744566509    0.472300804542
O   -1.108343793961    2.350744566509    0.723300804542
O   -0.892343793961    4.401744566509    1.374300804542
H   -0.559343793961    4.487744566509   -1.375699195458
H   -2.240343793961    4.780744566509   -0.928699195458
H   -1.776603793961    3.209394566509   -1.607839195458
--
0 1
C   -0.839343793961   -4.150255433491    0.446300804542
C   -1.503343793961   -1.681255433491    0.566300804542
C    0.345656206039   -0.673255433491   -0.192699195458
C   -0.616343793961   -2.685255433491    0.319300804542
C    0.576656206039   -2.063255433491   -0.174699195458
C    1.316656206039    0.227744566509   -0.598699195458
C    2.536656206039   -0.279255433491   -1.009699195458
C    1.830656206039   -2.544255433491   -0.577699195458
C    2.785656206039   -1.652255433491   -1.005699195458
N   -0.929343793961   -0.476255433491    0.264300804542
H   -1.353343793961    0.440744566509    0.427300804542
H   -2.513343793961   -1.820255433491    0.934300804542
H    1.121656206039    1.288744566509   -0.587699195458
H   -1.436343793961   -4.345255433491    1.338300804542
H    0.128656206039   -4.624255433491    0.608300804542
H    3.318656206039    0.394744566509   -1.330699195458
H    2.044656206039   -3.599255433491   -0.521699195458
H    3.759656206039   -2.018255433491   -1.294699195458
H   -1.303743793961   -4.623267433491   -0.431529195458
$end

$rem
JOBTYPE			EDA
EDA2			1
method			wB97X-V
BASIS			def2-TZVPD
XC_GRID			000099000590
NL_GRID			1
UNRESTRICTED		FALSE
MAX_SCF_CYCLES		200
SYMMETRY		FALSE
SYM_IGNORE		TRUE
MEM_STATIC		2000
BASIS_LIN_DEP_THRESH 	6
THRESH 			14
SCF_CONVERGENCE 	8
SCF_PRINT_FRGM 		TRUE
SOLVENT_METHOD          PCM
$end

$PCM
THEORY                  CPCM
METHOD                  SWIG
SOLVER                  INVERSION
RADII                   UFF
HPOINTS                 302
HEAVYPOINTS             302
PRINTLEVEL              0
$END

$SOLVENT
DIELECTRIC              78.390000 ! water
$END
--------------------------------------------------------------
 ----------------------------------------------------------------
             Standard Nuclear Orientation (Angstroms)
    I     Atom           X                Y                Z
 ----------------------------------------------------------------
    1      C      -1.4563437940     4.0297445665    -0.9486991955
    2      C      -1.1573437940     3.5667445665     0.4723008045
    3      O      -1.1083437940     2.3507445665     0.7233008045
    4      O      -0.8923437940     4.4017445665     1.3743008045
    5      H      -0.5593437940     4.4877445665    -1.3756991955
    6      H      -2.2403437940     4.7807445665    -0.9286991955
    7      H      -1.7766037940     3.2093945665    -1.6078391955
    8      C      -0.8393437940    -4.1502554335     0.4463008045
    9      C      -1.5033437940    -1.6812554335     0.5663008045
   10      C       0.3456562060    -0.6732554335    -0.1926991955
   11      C      -0.6163437940    -2.6852554335     0.3193008045
   12      C       0.5766562060    -2.0632554335    -0.1746991955
   13      C       1.3166562060     0.2277445665    -0.5986991955
   14      C       2.5366562060    -0.2792554335    -1.0096991955
   15      C       1.8306562060    -2.5442554335    -0.5776991955
   16      C       2.7856562060    -1.6522554335    -1.0056991955
   17      N      -0.9293437940    -0.4762554335     0.2643008045
   18      H      -1.3533437940     0.4407445665     0.4273008045
   19      H      -2.5133437940    -1.8202554335     0.9343008045
   20      H       1.1216562060     1.2887445665    -0.5876991955
   21      H      -1.4363437940    -4.3452554335     1.3383008045
   22      H       0.1286562060    -4.6242554335     0.6083008045
   23      H       3.3186562060     0.3947445665    -1.3306991955
   24      H       2.0446562060    -3.5992554335    -0.5216991955
   25      H       3.7596562060    -2.0182554335    -1.2946991955
   26      H      -1.3037437940    -4.6232674335    -0.4315291955
 ----------------------------------------------------------------
 Nuclear Repulsion Energy =         808.70925836 hartrees
 There are       51 alpha and       51 beta electrons
 Requested basis set is def2-TZVPD
 There are 244 shells and 632 basis functions

 Total QAlloc Memory Limit  96000 MB
 Mega-Array Size      1956 MB
 MEM_STATIC part      2000 MB
 Discretize the solute cavity surface with Lebedev spheres
	Using 302 Lebedev grid points for each H atom
	Using 302 Lebedev grid points for other atoms
	Atomic van der Waals radii will be scaled by 1.20
 Remove points where switching function is < 1.0e-08
 Keep 3021 surface tesserae and discard 4831 interior tesserae
 Molecular Surface Area = 303.351 Angst**2
 A cutoff of  1.0D-14 yielded  25333 shell pairs
 There are    170737 function pairs (    217591 Cartesian)
 Smallest overlap matrix eigenvalue = 3.88E-07
 Linear dependence detected in AO basis
 Tighter screening thresholds may be required for diffuse basis sets
 Use S2THRESH > 14 and THRESH = 14 in case of SCF convergence issues
 Number of orthogonalized atomic orbitals = 628
 Maximum deviation from orthogonality = 1.710E-10

 Scale SEOQF with 1.000000e-01/1.000000e-01/1.000000e-01

 Standard Electronic Orientation quadrupole field applied
 Nucleus-field energy     =     0.0000000562 hartrees

 -----------------------------------------------------------------------
  General SCF calculation program by
  Eric Jon Sundstrom, Paul Horn, Yuezhi Mao, Dmitri Zuev, Alec White,
  David Stuck, Shaama M.S., Shane Yost, Joonho Lee, David Small,
  Daniel Levine, Susi Lehtola, Hugh Burton, Evgeny Epifanovsky
 -----------------------------------------------------------------------
================================================================
                 ALMO-EDA with the EDA2 driver                  
================================================================
 The second-generation ALMO-EDA (for DFT):                      
 P. R. Horn, Y. Mao and M. Head-Gordon, PCCP, 18, 23067 (2016)  
 Decomposition of the frozen energy:                            
 P. R. Horn, Y. Mao and M. Head-Gordon, JCP, 144, 114107 (2016) 
 FERF model for polarization:                                   
 P. R. Horn and M. Head-Gordon, JCP, 143, 114111 (2015)         
Using eda2 option set 1
Option set summary: Frozen orbital wavefunction, initial wavefunction decomposition, and nDQ polarization.
--------------------------------
Printing EDA Options
--------------------------------
eda_child_super_basis      0
fragmo_guess_mode          0
child_mp                   1
child_mp_orders            232
cls_elec                   1
cls_disp                   0
scfmi_mode                 1
scfmi_occs                 0
scfmi_virts                0
frz_relax                  0
frz_relax_method           0
dc_pen_start               0
dc_pen_conv                0
dc_pen_increment           0
dc_pen_steps               0
dc_pen_thresh_factor       0
dc_pen_pre_newton_thresh   0
frz_ortho_decomp           1
frz_ortho_decomp_conv      6
frgm_method                2
scfmi_freeze_ss            0
separate_rehyb             0
plot_diff_den              0
eda_nocv                   0
eda_vct_relax              1
disp_free_x                0
disp_free_c                0
eda_bsse                   0
eda_pct_a                  0
eda_covp                   0
--------------------------------
Attempting to make child job directory: /tmp/qchem41622//Frg1/
Attempting to make child job directory: /tmp/qchem41622//Frg2/
Creating input file /tmp/qchem41622/Frg1.input
using default PutDataFrgm: nothing
calling putenv with: QCSCRATCH=/tmp/qchem41622/ 
calling putenv with: QCLOCALSCR=/tmp/qchem41622/ 
Spawning Job For Fragment 0
                  Welcome to Q-Chem
     A Quantum Leap Into The Future Of Chemistry


 Q-Chem 5.2, Q-Chem, Inc., Pleasanton, CA (2019)

 License issued to: National Energy Research Scientific Computing Center

 Yihan Shao,  Zhengting Gan,  E. Epifanovsky,  A. T. B. Gilbert,  M. Wormit,  
 J. Kussmann,  A. W. Lange,  A. Behn,  Jia Deng,  Xintian Feng,  D. Ghosh,  
 M. Goldey,  P. R. Horn,  L. D. Jacobson,  I. Kaliman,  T. Kus,  A. Landau,  
 Jie Liu,  E. I. Proynov,  R. M. Richard,  R. P. Steele,  E. J. Sundstrom,  
 H. L. Woodcock III,  P. M. Zimmerman,  D. Zuev,  B. Albrecht,  E. Alguire,  
 S. A. Baeppler,  D. Barton,  Z. Benda,  Y. A. Bernard,  E. J. Berquist,  
 K. B. Bravaya,  H. Burton,  D. Casanova,  Chun-Min Chang,  Yunqing Chen,  
 A. Chien,  K. D. Closser,  M. P. Coons,  S. Coriani,  S. Dasgupta,  
 A. L. Dempwolff,  M. Diedenhofen,  Hainam Do,  R. G. Edgar,  Po-Tung Fang,  
 S. Faraji,  S. Fatehi,  Qingguo Feng,  K. D. Fenk,  J. Fosso-Tande,  
 J. Gayvert,  Qinghui Ge,  A. Ghysels,  G. Gidofalvi,  J. Gomes,  
 J. Gonthier,  A. Gunina,  D. Hait,  M. W. D. Hanson-Heine,  
 P. H. P. Harbach,  A. W. Hauser,  M. F. Herbst,  J. E. Herr,  
 E. G. Hohenstein,  Z. C. Holden,  Kerwin Hui,  B. C. Huynh,  T.-C. Jagau,  
 Hyunjun Ji,  B. Kaduk,  K. Khistyaev,  Jaehoon Kim,  P. Klunzinger,  K. Koh,  
 D. Kosenkov,  L. Koulias,  T. Kowalczyk,  C. M. Krauter,  A. Kunitsa,  
 Ka Un Lao,  A. Laurent,  K. V. Lawler,  Joonho Lee,  D. Lefrancois,  
 S. Lehtola,  D. S. Levine,  Yi-Pei Li,  You-Sheng Lin,  Fenglai Liu,  
 E. Livshits,  A. Luenser,  P. Manohar,  E. Mansoor,  S. F. Manzer,  
 Shan-Ping Mao,  Yuezhi Mao,  N. Mardirossian,  A. V. Marenich,  
 T. Markovich,  L. A. Martinez-Martinez,  S. A. Maurer,  N. J. Mayhall,  
 S. C. McKenzie,  J.-M. Mewes,  P. Morgante,  A. F. Morrison,  
 J. W. Mullinax,  K. Nanda,  T. S. Nguyen-Beck,  R. Olivares-Amaya,  
 J. A. Parkhill,  Zheng Pei,  T. M. Perrine,  F. Plasser,  P. Pokhilko,  
 S. Prager,  A. Prociuk,  E. Ramos,  D. R. Rehn,  F. Rob,  M. Scheurer,  
 M. Schneider,  N. Sergueev,  S. M. Sharada,  S. Sharma,  D. W. Small,  
 T. Stauch,  T. Stein,  Yu-Chuan Su,  A. J. W. Thom,  A. Tkatchenko,  
 T. Tsuchimochi,  N. M. Tubman,  L. Vogt,  M. L. Vidal,  O. Vydrov,  
 M. A. Watson,  J. Wenzel,  M. de Wergifosse,  T. A. Wesolowski,  A. White,  
 J. Witte,  A. Yamada,  Jun Yang,  K. Yao,  S. Yeganeh,  S. R. Yost,  
 Zhi-Qiang You,  A. Zech,  Igor Ying Zhang,  Xing Zhang,  Yan Zhao,  
 Ying Zhu,  B. R. Brooks,  G. K. L. Chan,  C. J. Cramer,  M. S. Gordon,  
 W. J. Hehre,  A. Klamt,  M. W. Schmidt,  C. D. Sherrill,  D. G. Truhlar,  
 A. Aspuru-Guzik,  R. Baer,  A. T. Bell,  N. A. Besley,  Jeng-Da Chai,  
 A. E. DePrince, III,  R. A. DiStasio Jr.,  A. Dreuw,  B. D. Dunietz,  
 T. R. Furlani,  Chao-Ping Hsu,  Yousung Jung,  Jing Kong,  D. S. Lambrecht,  
 WanZhen Liang,  C. Ochsenfeld,  V. A. Rassolov,  L. V. Slipchenko,  
 J. E. Subotnik,  T. Van Voorhis,  J. M. Herbert,  A. I. Krylov,  
 P. M. W. Gill,  M. Head-Gordon

 Contributors to earlier versions of Q-Chem not listed above: 
 R. D. Adamson,  B. Austin,  J. Baker,  G. J. O. Beran,  K. Brandhorst,  
 S. T. Brown,  E. F. C. Byrd,  A. K. Chakraborty,  C.-L. Cheng,  
 Siu Hung Chien,  D. M. Chipman,  D. L. Crittenden,  H. Dachsel,  
 R. J. Doerksen,  A. D. Dutoi,  L. Fusti-Molnar,  W. A. Goddard III,  
 A. Golubeva-Zadorozhnaya,  S. R. Gwaltney,  G. Hawkins,  A. Heyden,  
 S. Hirata,  G. Kedziora,  F. J. Keil,  C. Kelley,  Jihan Kim,  R. A. King,  
 R. Z. Khaliullin,  P. P. Korambath,  W. Kurlancheek,  A. M. Lee,  M. S. Lee,  
 S. V. Levchenko,  Ching Yeh Lin,  D. Liotard,  R. C. Lochan,  I. Lotan,  
 P. E. Maslen,  N. Nair,  D. P. O'Neill,  D. Neuhauser,  E. Neuscamman,  
 C. M. Oana,  R. Olson,  B. Peters,  R. Peverati,  P. A. Pieniazek,  
 Y. M. Rhee,  J. Ritchie,  M. A. Rohrdanz,  E. Rosta,  N. J. Russ,  
 H. F. Schaefer III,  N. E. Schultz,  N. Shenvi,  A. C. Simmonett,  A. Sodt,  
 D. Stuck,  K. S. Thanthiriwatte,  V. Vanovschi,  Tao Wang,  A. Warshel,  
 C. F. Williams,  Q. Wu,  X. Xu,  W. Zhang

 Please cite Q-Chem as follows:
 Y. Shao et al., Mol. Phys. 113, 184-215 (2015)
 DOI: 10.1080/00268976.2014.952696

 Q-Chem 5.2.0 for Intel X86 EM64T Linux

 Parts of Q-Chem use Armadillo 8.300.2 (Tropical Shenanigans).
 http://arma.sourceforge.net/

 Q-Chem begins on Sun Sep 26 13:09:16 2021  

Host: cori01
0

     Scratch files written to /tmp/qchem41622//Frg1//
 May1019 |scratch|qcdevops|jenkins|workspace|build_RNUM -1
Processing $rem in /global/common/cori/software/qchem/5.2/config/preferences:
	 MEM_TOTAL  96000 
NAlpha2: 32
NElect   32
Mult     1
Symmetry turned off for PCM/SM12/SMD calculation

Checking the input file for inconsistencies... 	...done.

--------------------------------------------------------------
User input:
--------------------------------------------------------------
$molecule
-1 1
 6	-1.4563437940	4.0297445665	-0.9486991955
 6	-1.1573437940	3.5667445665	0.4723008045
 8	-1.1083437940	2.3507445665	0.7233008045
 8	-0.8923437940	4.4017445665	1.3743008045
 1	-0.5593437940	4.4877445665	-1.3756991955
 1	-2.2403437940	4.7807445665	-0.9286991955
 1	-1.7766037940	3.2093945665	-1.6078391955
$end
$rem
EDA2		1
METHOD		WB97X-V
BASIS		DEF2-TZVPD
XC_GRID		000099000590
NL_GRID		1
UNRESTRICTED		FALSE
MAX_SCF_CYCLES		200
SYMMETRY		FALSE
SYM_IGNORE		TRUE
BASIS_LIN_DEP_THRESH		6
THRESH		14
SCF_CONVERGENCE		8
SCF_PRINT_FRGM		TRUE
SOLVENT_METHOD		PCM
!required keywords
JOBTYPE		SP
SYM_IGNORE		TRUE
SUBSYSTEM		TRUE
GEN_SCFMAN		TRUE
CHILD_INSTRUCTION		2
SYM_IGNORE		TRUE
SCFMI		0
RI_K 0		
PARI_K 0		
MIN_PARI_K 0		
IARI_K 0		
OCC_RI_K 0		
PURECART		1111
MEM_STATIC		2000
MEM_TOTAL		96000
GUI		0
CHILD_MP		1
CHILD_MP_ORDERS		232
FRZ_RELAX		0
FRZ_RELAX_METHOD		0
EDA_CLS_ELEC		1
EDA_CLS_DISP		0
FRZ_ORTHO_DECOMP		1
EDA2		FALSE
FRGM_METHOD		FALSE
CIS_N_ROOTS  0
LOCAL_CIS    0
CIS_RLX_DNS  1
$end
$pcm
THEORY                  CPCM
METHOD                  SWIG
SOLVER                  INVERSION
RADII                   UFF
HPOINTS                 302
HEAVYPOINTS             302
PRINTLEVEL              0
$end
$solvent
DIELECTRIC              78.390000 ! water
$end
--------------------------------------------------------------
 ----------------------------------------------------------------
             Standard Nuclear Orientation (Angstroms)
    I     Atom           X                Y                Z
 ----------------------------------------------------------------
    1      C      -1.4563437940     4.0297445665    -0.9486991955
    2      C      -1.1573437940     3.5667445665     0.4723008045
    3      O      -1.1083437940     2.3507445665     0.7233008045
    4      O      -0.8923437940     4.4017445665     1.3743008045
    5      H      -0.5593437940     4.4877445665    -1.3756991955
    6      H      -2.2403437940     4.7807445665    -0.9286991955
    7      H      -1.7766037940     3.2093945665    -1.6078391955
 ----------------------------------------------------------------
 Nuclear Repulsion Energy =         112.66366656 hartrees
 There are       16 alpha and       16 beta electrons
 Requested basis set is def2-TZVPD
 There are 69 shells and 181 basis functions

 Total QAlloc Memory Limit  96000 MB
 Mega-Array Size      1956 MB
 MEM_STATIC part      2000 MB
 Discretize the solute cavity surface with Lebedev spheres
	Using 302 Lebedev grid points for each H atom
	Using 302 Lebedev grid points for other atoms
	Atomic van der Waals radii will be scaled by 1.20
 Remove points where switching function is < 1.0e-08
 Keep 1022 surface tesserae and discard 1092 interior tesserae
 Molecular Surface Area = 120.184 Angst**2

                       Distance Matrix (Angstroms)
             C (  1)   C (  2)   O (  3)   O (  4)   H (  5)   H (  6)
   C (  2)  1.524143
   O (  3)  2.394938  1.242601
   O (  4)  2.419258  1.257400  2.162651
   H (  5)  1.093939  2.149639  3.045320  2.771423
   H (  6)  1.085844  2.146971  3.148877  2.695284  1.763921
   H (  7)  1.100003  2.199583  2.572560  3.331182  1.780390  1.773535

 
 A cutoff of  1.0D-14 yielded   2393 shell pairs
 There are     16705 function pairs (     21503 Cartesian)
 Smallest overlap matrix eigenvalue = 1.63E-05

 Scale SEOQF with 1.000000e-01/1.000000e-01/1.000000e-01

 Standard Electronic Orientation quadrupole field applied
 Nucleus-field energy     =     0.0000000287 hartrees
 Guess from superposition of atomic densities
 Warning:  Energy on first SCF cycle will be non-variational
 SAD guess density has 30.625312 electrons

 -----------------------------------------------------------------------
  General SCF calculation program by
  Eric Jon Sundstrom, Paul Horn, Yuezhi Mao, Dmitri Zuev, Alec White,
  David Stuck, Shaama M.S., Shane Yost, Joonho Lee, David Small,
  Daniel Levine, Susi Lehtola, Hugh Burton, Evgeny Epifanovsky
 -----------------------------------------------------------------------
 Exchange:     0.1670 Hartree-Fock + 1.0000 wB97X-V + LR-HF
 Correlation:  1.0000 wB97X-V
 Using Euler-Maclaurin-Lebedev (99,590) quadrature formula
 Nonlocal Correlation:  VV10 with C = 0.0100 and b = 6.00 and scale = 1.00000
 Grid used for NLC:  SG-1 standard quadrature
Energy prior to optimization (guess energy) = -227.750870626338
Begin Timing: Total SCF Calculation
begin iterations for algorithm: DIIS         
the SCF tolerance is set to 1.00e-08
    1    -227.7508706263      1.67e-02     00000 
    2    -225.4901654523      2.59e-02     00000 
    3    -228.5736217241      4.15e-03     00000 
    4    -228.6335362472      1.38e-03     00000 
    5    -228.6397802863      1.99e-04     00000 
    6    -228.6400262289      9.84e-05     00000 
    7    -228.6400519411      6.04e-05     00000 
    8    -228.6400640333      1.52e-05     00000 
    9    -228.6400655214      3.11e-06     00000 
   10    -228.6400656374      4.18e-07     00000 
   11    -228.6400656403      1.44e-07     00000 
   12    -228.6400656406      4.30e-08     00000 
   13    -228.6400656406      1.98e-08     00000 
   14    -228.6400656406      3.22e-09     00000 Convergence criterion met
Timing for Total SCF: 295.00s (wall), 578.99s (cpu)

************** Final PCM Free Energy Summary **************
 G_electrostatic  =      -0.10284052 hartree =     -64.53340183 kcal/mol
 G_cavitation     =       0.00000000 hartree =       0.00000000 kcal/mol
 G_dispersion     =       0.00000000 hartree =       0.00000000 kcal/mol
 G_repulsion      =       0.00000000 hartree =       0.00000000 kcal/mol
 --------------------------------------------------
 Non-electrostatic Free Energy =       0.00000000 hartree =       0.00000000 kcal/mol
 Total                         =      -0.10284052 hartree =     -64.53340183 kcal/mol
 --------------------------------------------------
 SCF Energy (H0 + V/2)                       =    -228.64006564 
 Solute Internal Energy (H0)                 =    -228.53722512 
 Total Free Energy (H0 + V/2 + non-elec)     =    -228.64006564 hartree
                                             = -143473.80663955 kcal/mol
***********************************************************

E_pcm = -0.1028405224
Multipole orders to be included
        2
        3
computing dipole RHS
computing quadrupole RHS
total number of RHS in solve_reponses: 8
RHS batch sizes
        8
Beginning Block Conjugate Gradient Iterations. Batch Number: 0
computing hessian-vector products by finite difference
              1      7.18e-01     00000 Conjugate Gradient Iteration
computing hessian-vector products by finite difference
              2      2.61e-01     00000 Conjugate Gradient Iteration
computing hessian-vector products by finite difference
              3      7.13e-02     00000 Conjugate Gradient Iteration
computing hessian-vector products by finite difference
              4      1.93e-02     00000 Conjugate Gradient Iteration
computing hessian-vector products by finite difference
              5      3.31e-03     00000 Conjugate Gradient Iteration
computing hessian-vector products by finite difference
              6      7.72e-04     00000 Conjugate Gradient Iteration
computing hessian-vector products by finite difference
              7      1.25e-04     00000 Conjugate Gradient Iteration
computing hessian-vector products by finite difference
              8      1.49e-05     00000 Conjugate Gradient Iteration
computing hessian-vector products by finite difference
              9      2.32e-06     00000 Conjugate Gradient Iteration
computing hessian-vector products by finite difference
             10      2.69e-07     00000 Conjugate Gradient Iteration
computing hessian-vector products by finite difference
             11      8.97e-08     00000 Conjugate Gradient Iteration
computing hessian-vector products by finite difference
             12      1.46e-08     00000 Conjugate Gradient Iteration
computing hessian-vector products by finite difference
             13      1.68e-09     00000 CG Converged
batch 0 complete
Done Calculating Responses
TESTING ORTHOGONALIZATION OF MULTIPOLE BASIS
Multipole virts passed orthogonality test
Virts Per Order
        48
        80
 
 --------------------------------------------------------------
 
                    Orbital Energies (a.u.)
 --------------------------------------------------------------
 
 Alpha MOs
 -- Occupied --
-19.1199 -19.1182 -10.3241 -10.2425  -1.1338  -1.0262  -0.8313  -0.5933
 -0.5298  -0.5171  -0.5160  -0.4615  -0.4445  -0.3294  -0.3261  -0.3030
 -- Virtual --
  0.0634   0.0952   0.0954   0.1053   0.1301   0.1402   0.1433   0.1458
  0.1691   0.1895   0.1979   0.2238   0.2291   0.2360   0.2651   0.2677
  0.2988   0.3127   0.3347   0.3482   0.3525   0.3610   0.3699   0.3839
  0.3919   0.4004   0.4257   0.4259   0.4340   0.4600   0.4747   0.4782
  0.4920   0.4977   0.5056   0.5217   0.5576   0.5810   0.6052   0.6143
  0.6222   0.6404   0.6441   0.6668   0.6762   0.6767   0.6955   0.7148
  0.7195   0.7388   0.7758   0.7996   0.8105   0.8192   0.8448   0.8630
  0.8689   0.9831   0.9901   0.9970   1.0065   1.0520   1.0558   1.1332
  1.1740   1.2035   1.2589   1.2901   1.2961   1.3151   1.3438   1.3616
  1.4599   1.5655   1.6077   1.7370   1.8239   1.8666   1.8695   1.9310
  1.9333   1.9587   1.9632   1.9712   2.0176   2.1189   2.1335   2.1615
  2.2098   2.2276   2.3316   2.3543   2.4164   2.4389   2.4924   2.5111
  2.5872   2.5993   2.6139   2.6737   2.8045   2.8109   2.8725   2.9419
  2.9591   3.0113   3.0378   3.1786   3.2088   3.2478   3.2901   3.3139
  3.3356   3.3448   3.3950   3.4158   3.4266   3.5494   3.5647   3.5850
  3.6195   3.6693   3.7083   3.7523   3.7804   3.8903   3.9545   4.0441
  4.0819   4.2047   4.3435   4.5558   4.6131   4.6692   4.8143   4.8307
  4.9927   5.3367   5.3604   5.3710   5.3780   5.4846   5.7068   5.8171
  5.8263   6.0665   6.2088   6.3627   6.3747   6.6061   6.6334   6.7449
  6.7531   6.7662   6.9544   6.9921   7.0378   7.2643   7.3124   7.4069
  7.4178  22.5879  23.7419  44.2253  44.3494
 --------------------------------------------------------------
 
          Ground-State Mulliken Net Atomic Charges

     Atom                 Charge (a.u.)
  ----------------------------------------
      1 C                    -0.406800
      2 C                     0.299183
      3 O                    -0.665663
      4 O                    -0.692585
      5 H                     0.141642
      6 H                     0.160041
      7 H                     0.164182
  ----------------------------------------
  Sum of atomic charges =    -1.000000

 -----------------------------------------------------------------
                    Cartesian Multipole Moments
 -----------------------------------------------------------------
    Charge (ESU x 10^10)
                -4.8032
    Dipole Moment (Debye)
         X       4.4050      Y     -15.7761      Z      -6.7127
       Tot      17.7017
    Quadrupole Moments (Debye-Ang)
        XX     -29.5865     XY      13.4501     YY     -86.9075
        XZ       5.9553     YZ     -25.1868     ZZ     -35.2813
    Octopole Moments (Debye-Ang^2)
       XXX      93.3498    XXY    -103.0300    XYY      79.9843
       YYY    -545.6275    XXZ     -13.9511    XYZ      21.3884
       YYZ    -111.3365    XZZ      38.9633    YZZ    -131.0325
       ZZZ     -37.9661
    Hexadecapole Moments (Debye-Ang^3)
      XXXX    -255.9218   XXXY     330.6703   XXYY    -434.0434
      XYYY     541.1142   YYYY   -3390.8210   XXXZ      18.2810
      XXYZ     -47.4935   XYYZ      90.2709   YYYZ    -528.4948
      XXZZ     -82.6040   XYZZ     145.0113   YYZZ    -549.6906
      XZZZ      24.0342   YZZZ    -133.5230   ZZZZ    -212.9153
 -----------------------------------------------------------------
Archival summary:
1\1\nid00572\SP\ProcedureUnspecified\BasisUnspecified\223(1-,1)\meili\SunSep2614:33:052021SunSep2614:33:052021\0\\#,ProcedureUnspecified,BasisUnspecified,\\-1,1\C\O,1,1.2426\O,1,1.2574,2,119.778\C,1,1.52414,2,119.56,3,176.33,0\H,4,1.08584,1,109.546,2,130.883,0\H,4,1.09394,1,109.283,2,-110.93,0\H,4,1.1,1,112.907,2,9.90128,0\\\@

 Total job time:  5029.55s(wall), 9872.05s(cpu) 
 Sun Sep 26 14:33:05 2021

        *************************************************************
        *                                                           *
        *  Thank you very much for using Q-Chem.  Have a nice day.  *
        *                                                           *
        *************************************************************


Done Job For Fragment 0
calling putenv with: QCSCRATCH=/global/cscratch1/sd/meili 
calling putenv with: QCLOCALSCR=/tmp 
calling putenv with: QCTHREADS=32 
Creating input file /tmp/qchem41622/Frg2.input
using default PutDataFrgm: nothing
calling putenv with: QCSCRATCH=/tmp/qchem41622/ 
calling putenv with: QCLOCALSCR=/tmp/qchem41622/ 
Spawning Job For Fragment 1
                  Welcome to Q-Chem
     A Quantum Leap Into The Future Of Chemistry


 Q-Chem 5.2, Q-Chem, Inc., Pleasanton, CA (2019)

 License issued to: National Energy Research Scientific Computing Center

 Yihan Shao,  Zhengting Gan,  E. Epifanovsky,  A. T. B. Gilbert,  M. Wormit,  
 J. Kussmann,  A. W. Lange,  A. Behn,  Jia Deng,  Xintian Feng,  D. Ghosh,  
 M. Goldey,  P. R. Horn,  L. D. Jacobson,  I. Kaliman,  T. Kus,  A. Landau,  
 Jie Liu,  E. I. Proynov,  R. M. Richard,  R. P. Steele,  E. J. Sundstrom,  
 H. L. Woodcock III,  P. M. Zimmerman,  D. Zuev,  B. Albrecht,  E. Alguire,  
 S. A. Baeppler,  D. Barton,  Z. Benda,  Y. A. Bernard,  E. J. Berquist,  
 K. B. Bravaya,  H. Burton,  D. Casanova,  Chun-Min Chang,  Yunqing Chen,  
 A. Chien,  K. D. Closser,  M. P. Coons,  S. Coriani,  S. Dasgupta,  
 A. L. Dempwolff,  M. Diedenhofen,  Hainam Do,  R. G. Edgar,  Po-Tung Fang,  
 S. Faraji,  S. Fatehi,  Qingguo Feng,  K. D. Fenk,  J. Fosso-Tande,  
 J. Gayvert,  Qinghui Ge,  A. Ghysels,  G. Gidofalvi,  J. Gomes,  
 J. Gonthier,  A. Gunina,  D. Hait,  M. W. D. Hanson-Heine,  
 P. H. P. Harbach,  A. W. Hauser,  M. F. Herbst,  J. E. Herr,  
 E. G. Hohenstein,  Z. C. Holden,  Kerwin Hui,  B. C. Huynh,  T.-C. Jagau,  
 Hyunjun Ji,  B. Kaduk,  K. Khistyaev,  Jaehoon Kim,  P. Klunzinger,  K. Koh,  
 D. Kosenkov,  L. Koulias,  T. Kowalczyk,  C. M. Krauter,  A. Kunitsa,  
 Ka Un Lao,  A. Laurent,  K. V. Lawler,  Joonho Lee,  D. Lefrancois,  
 S. Lehtola,  D. S. Levine,  Yi-Pei Li,  You-Sheng Lin,  Fenglai Liu,  
 E. Livshits,  A. Luenser,  P. Manohar,  E. Mansoor,  S. F. Manzer,  
 Shan-Ping Mao,  Yuezhi Mao,  N. Mardirossian,  A. V. Marenich,  
 T. Markovich,  L. A. Martinez-Martinez,  S. A. Maurer,  N. J. Mayhall,  
 S. C. McKenzie,  J.-M. Mewes,  P. Morgante,  A. F. Morrison,  
 J. W. Mullinax,  K. Nanda,  T. S. Nguyen-Beck,  R. Olivares-Amaya,  
 J. A. Parkhill,  Zheng Pei,  T. M. Perrine,  F. Plasser,  P. Pokhilko,  
 S. Prager,  A. Prociuk,  E. Ramos,  D. R. Rehn,  F. Rob,  M. Scheurer,  
 M. Schneider,  N. Sergueev,  S. M. Sharada,  S. Sharma,  D. W. Small,  
 T. Stauch,  T. Stein,  Yu-Chuan Su,  A. J. W. Thom,  A. Tkatchenko,  
 T. Tsuchimochi,  N. M. Tubman,  L. Vogt,  M. L. Vidal,  O. Vydrov,  
 M. A. Watson,  J. Wenzel,  M. de Wergifosse,  T. A. Wesolowski,  A. White,  
 J. Witte,  A. Yamada,  Jun Yang,  K. Yao,  S. Yeganeh,  S. R. Yost,  
 Zhi-Qiang You,  A. Zech,  Igor Ying Zhang,  Xing Zhang,  Yan Zhao,  
 Ying Zhu,  B. R. Brooks,  G. K. L. Chan,  C. J. Cramer,  M. S. Gordon,  
 W. J. Hehre,  A. Klamt,  M. W. Schmidt,  C. D. Sherrill,  D. G. Truhlar,  
 A. Aspuru-Guzik,  R. Baer,  A. T. Bell,  N. A. Besley,  Jeng-Da Chai,  
 A. E. DePrince, III,  R. A. DiStasio Jr.,  A. Dreuw,  B. D. Dunietz,  
 T. R. Furlani,  Chao-Ping Hsu,  Yousung Jung,  Jing Kong,  D. S. Lambrecht,  
 WanZhen Liang,  C. Ochsenfeld,  V. A. Rassolov,  L. V. Slipchenko,  
 J. E. Subotnik,  T. Van Voorhis,  J. M. Herbert,  A. I. Krylov,  
 P. M. W. Gill,  M. Head-Gordon

 Contributors to earlier versions of Q-Chem not listed above: 
 R. D. Adamson,  B. Austin,  J. Baker,  G. J. O. Beran,  K. Brandhorst,  
 S. T. Brown,  E. F. C. Byrd,  A. K. Chakraborty,  C.-L. Cheng,  
 Siu Hung Chien,  D. M. Chipman,  D. L. Crittenden,  H. Dachsel,  
 R. J. Doerksen,  A. D. Dutoi,  L. Fusti-Molnar,  W. A. Goddard III,  
 A. Golubeva-Zadorozhnaya,  S. R. Gwaltney,  G. Hawkins,  A. Heyden,  
 S. Hirata,  G. Kedziora,  F. J. Keil,  C. Kelley,  Jihan Kim,  R. A. King,  
 R. Z. Khaliullin,  P. P. Korambath,  W. Kurlancheek,  A. M. Lee,  M. S. Lee,  
 S. V. Levchenko,  Ching Yeh Lin,  D. Liotard,  R. C. Lochan,  I. Lotan,  
 P. E. Maslen,  N. Nair,  D. P. O'Neill,  D. Neuhauser,  E. Neuscamman,  
 C. M. Oana,  R. Olson,  B. Peters,  R. Peverati,  P. A. Pieniazek,  
 Y. M. Rhee,  J. Ritchie,  M. A. Rohrdanz,  E. Rosta,  N. J. Russ,  
 H. F. Schaefer III,  N. E. Schultz,  N. Shenvi,  A. C. Simmonett,  A. Sodt,  
 D. Stuck,  K. S. Thanthiriwatte,  V. Vanovschi,  Tao Wang,  A. Warshel,  
 C. F. Williams,  Q. Wu,  X. Xu,  W. Zhang

 Please cite Q-Chem as follows:
 Y. Shao et al., Mol. Phys. 113, 184-215 (2015)
 DOI: 10.1080/00268976.2014.952696

 Q-Chem 5.2.0 for Intel X86 EM64T Linux

 Parts of Q-Chem use Armadillo 8.300.2 (Tropical Shenanigans).
 http://arma.sourceforge.net/

 Q-Chem begins on Sun Sep 26 14:33:07 2021  

Host: cori01
0

     Scratch files written to /tmp/qchem41622//Frg2//
 May1019 |scratch|qcdevops|jenkins|workspace|build_RNUM -1
Processing $rem in /global/common/cori/software/qchem/5.2/config/preferences:
	 MEM_TOTAL  96000 
NAlpha2: 70
NElect   70
Mult     1
Symmetry turned off for PCM/SM12/SMD calculation

Checking the input file for inconsistencies... 	...done.

--------------------------------------------------------------
User input:
--------------------------------------------------------------
$molecule
0 1
 6	-0.8393437940	-4.1502554335	0.4463008045
 6	-1.5033437940	-1.6812554335	0.5663008045
 6	0.3456562060	-0.6732554335	-0.1926991955
 6	-0.6163437940	-2.6852554335	0.3193008045
 6	0.5766562060	-2.0632554335	-0.1746991955
 6	1.3166562060	0.2277445665	-0.5986991955
 6	2.5366562060	-0.2792554335	-1.0096991955
 6	1.8306562060	-2.5442554335	-0.5776991955
 6	2.7856562060	-1.6522554335	-1.0056991955
 7	-0.9293437940	-0.4762554335	0.2643008045
 1	-1.3533437940	0.4407445665	0.4273008045
 1	-2.5133437940	-1.8202554335	0.9343008045
 1	1.1216562060	1.2887445665	-0.5876991955
 1	-1.4363437940	-4.3452554335	1.3383008045
 1	0.1286562060	-4.6242554335	0.6083008045
 1	3.3186562060	0.3947445665	-1.3306991955
 1	2.0446562060	-3.5992554335	-0.5216991955
 1	3.7596562060	-2.0182554335	-1.2946991955
 1	-1.3037437940	-4.6232674335	-0.4315291955
$end
$rem
EDA2		1
METHOD		WB97X-V
BASIS		DEF2-TZVPD
XC_GRID		000099000590
NL_GRID		1
UNRESTRICTED		FALSE
MAX_SCF_CYCLES		200
SYMMETRY		FALSE
SYM_IGNORE		TRUE
BASIS_LIN_DEP_THRESH		6
THRESH		14
SCF_CONVERGENCE		8
SCF_PRINT_FRGM		TRUE
SOLVENT_METHOD		PCM
!required keywords
JOBTYPE		SP
SYM_IGNORE		TRUE
SUBSYSTEM		TRUE
GEN_SCFMAN		TRUE
CHILD_INSTRUCTION		2
SYM_IGNORE		TRUE
SCFMI		0
RI_K 0		
PARI_K 0		
MIN_PARI_K 0		
IARI_K 0		
OCC_RI_K 0		
PURECART		1111
MEM_STATIC		2000
MEM_TOTAL		96000
GUI		0
CHILD_MP		1
CHILD_MP_ORDERS		232
FRZ_RELAX		0
FRZ_RELAX_METHOD		0
EDA_CLS_ELEC		1
EDA_CLS_DISP		0
FRZ_ORTHO_DECOMP		1
EDA2		FALSE
FRGM_METHOD		FALSE
CIS_N_ROOTS  0
LOCAL_CIS    0
CIS_RLX_DNS  1
$end
$pcm
THEORY                  CPCM
METHOD                  SWIG
SOLVER                  INVERSION
RADII                   UFF
HPOINTS                 302
HEAVYPOINTS             302
PRINTLEVEL              0
$end
$solvent
DIELECTRIC              78.390000 ! water
$end
--------------------------------------------------------------
 ----------------------------------------------------------------
             Standard Nuclear Orientation (Angstroms)
    I     Atom           X                Y                Z
 ----------------------------------------------------------------
    1      C      -0.8393437940    -4.1502554335     0.4463008045
    2      C      -1.5033437940    -1.6812554335     0.5663008045
    3      C       0.3456562060    -0.6732554335    -0.1926991955
    4      C      -0.6163437940    -2.6852554335     0.3193008045
    5      C       0.5766562060    -2.0632554335    -0.1746991955
    6      C       1.3166562060     0.2277445665    -0.5986991955
    7      C       2.5366562060    -0.2792554335    -1.0096991955
    8      C       1.8306562060    -2.5442554335    -0.5776991955
    9      C       2.7856562060    -1.6522554335    -1.0056991955
   10      N      -0.9293437940    -0.4762554335     0.2643008045
   11      H      -1.3533437940     0.4407445665     0.4273008045
   12      H      -2.5133437940    -1.8202554335     0.9343008045
   13      H       1.1216562060     1.2887445665    -0.5876991955
   14      H      -1.4363437940    -4.3452554335     1.3383008045
   15      H       0.1286562060    -4.6242554335     0.6083008045
   16      H       3.3186562060     0.3947445665    -1.3306991955
   17      H       2.0446562060    -3.5992554335    -0.5216991955
   18      H       3.7596562060    -2.0182554335    -1.2946991955
   19      H      -1.3037437940    -4.6232674335    -0.4315291955
 ----------------------------------------------------------------
 Nuclear Repulsion Energy =         486.64437574 hartrees
 There are       35 alpha and       35 beta electrons
 Requested basis set is def2-TZVPD
 There are 175 shells and 451 basis functions

 Total QAlloc Memory Limit  96000 MB
 Mega-Array Size      1956 MB
 MEM_STATIC part      2000 MB
 Discretize the solute cavity surface with Lebedev spheres
	Using 302 Lebedev grid points for each H atom
	Using 302 Lebedev grid points for other atoms
	Atomic van der Waals radii will be scaled by 1.20
 Remove points where switching function is < 1.0e-08
 Keep 2188 surface tesserae and discard 3550 interior tesserae
 Molecular Surface Area = 214.394 Angst**2
 A cutoff of  1.0D-14 yielded  14480 shell pairs
 There are     98310 function pairs (    126491 Cartesian)
 Smallest overlap matrix eigenvalue = 4.88E-07
 Linear dependence detected in AO basis
 Tighter screening thresholds may be required for diffuse basis sets
 Use S2THRESH > 14 and THRESH = 14 in case of SCF convergence issues
 Number of orthogonalized atomic orbitals = 448
 Maximum deviation from orthogonality = 1.808E-10

 Scale SEOQF with 1.000000e-01/1.000000e-01/1.000000e-01

 Standard Electronic Orientation quadrupole field applied
 Nucleus-field energy     =     0.0000000274 hartrees
 Guess from superposition of atomic densities
 Warning:  Energy on first SCF cycle will be non-variational
 SAD guess density has 69.692991 electrons

 -----------------------------------------------------------------------
  General SCF calculation program by
  Eric Jon Sundstrom, Paul Horn, Yuezhi Mao, Dmitri Zuev, Alec White,
  David Stuck, Shaama M.S., Shane Yost, Joonho Lee, David Small,
  Daniel Levine, Susi Lehtola, Hugh Burton, Evgeny Epifanovsky
 -----------------------------------------------------------------------
 Exchange:     0.1670 Hartree-Fock + 1.0000 wB97X-V + LR-HF
 Correlation:  1.0000 wB97X-V
 Using Euler-Maclaurin-Lebedev (99,590) quadrature formula
 Nonlocal Correlation:  VV10 with C = 0.0100 and b = 6.00 and scale = 1.00000
 Grid used for NLC:  SG-1 standard quadrature
Energy prior to optimization (guess energy) = -402.924954425379
Begin Timing: Total SCF Calculation
begin iterations for algorithm: DIIS         
the SCF tolerance is set to 1.00e-08
    1    -402.9249544254      3.30e-03     00000 
    2    -402.9598568530      3.10e-03     00000 
    3    -403.1643584223      3.72e-04     00000 
    4    -403.1675588994      1.55e-04     00000 
    5    -403.1682054305      2.69e-05     00000 
    6    -403.1682298608      1.53e-05     00000 
    7    -403.1682373805      3.01e-06     00000 
    8    -403.1682383476      1.74e-06     00000 
    9    -403.1682385620      7.02e-07     00000 
   10    -403.1682386435      2.68e-07     00000 
   11    -403.1682386540      9.35e-08     00000 
   12    -403.1682386548      4.07e-08     00000 
   13    -403.1682386549      1.16e-08     00000 
   14    -403.1682386549      5.29e-09     00000 Convergence criterion met
Timing for Total SCF: 4337.00s (wall), 8620.87s (cpu)

************** Final PCM Free Energy Summary **************
 G_electrostatic  =      -0.00631529 hartree =      -3.96290268 kcal/mol
 G_cavitation     =       0.00000000 hartree =       0.00000000 kcal/mol
 G_dispersion     =       0.00000000 hartree =       0.00000000 kcal/mol
 G_repulsion      =       0.00000000 hartree =       0.00000000 kcal/mol
 --------------------------------------------------
 Non-electrostatic Free Energy =       0.00000000 hartree =       0.00000000 kcal/mol
 Total                         =      -0.00631529 hartree =      -3.96290268 kcal/mol
 --------------------------------------------------
 SCF Energy (H0 + V/2)                       =    -403.16823865 
 Solute Internal Energy (H0)                 =    -403.16192337 
 Total Free Energy (H0 + V/2 + non-elec)     =    -403.16823865 hartree
                                             = -252991.88816237 kcal/mol
***********************************************************

E_pcm = -0.0063152874
Multipole orders to be included
        2
        3
computing dipole RHS
computing quadrupole RHS
total number of RHS in solve_reponses: 8
RHS batch sizes
        8
Beginning Block Conjugate Gradient Iterations. Batch Number: 0
computing hessian-vector products by finite difference
              1      6.09e-01     00000 Conjugate Gradient Iteration
computing hessian-vector products by finite difference
              2      2.06e-01     00000 Conjugate Gradient Iteration
computing hessian-vector products by finite difference
              3      6.22e-02     00000 Conjugate Gradient Iteration
computing hessian-vector products by finite difference
              4      2.19e-02     00000 Conjugate Gradient Iteration
computing hessian-vector products by finite difference
              5      7.05e-03     00000 Conjugate Gradient Iteration
computing hessian-vector products by finite difference
              6      2.06e-03     00000 Conjugate Gradient Iteration
computing hessian-vector products by finite difference
              7      4.97e-04     00000 Conjugate Gradient Iteration
computing hessian-vector products by finite difference
              8      1.03e-04     00000 Conjugate Gradient Iteration
computing hessian-vector products by finite difference
              9      1.79e-05     00000 Conjugate Gradient Iteration
computing hessian-vector products by finite difference
             10      3.29e-06     00000 Conjugate Gradient Iteration
computing hessian-vector products by finite difference
             11      6.00e-07     00000 Conjugate Gradient Iteration
computing hessian-vector products by finite difference
             12      1.05e-07     00000 Conjugate Gradient Iteration
computing hessian-vector products by finite difference
             13      1.82e-08     00000 Conjugate Gradient Iteration
computing hessian-vector products by finite difference
             14      4.50e-09     00000 CG Converged
batch 0 complete
Done Calculating Responses
TESTING ORTHOGONALIZATION OF MULTIPOLE BASIS
Multipole virts passed orthogonality test
Virts Per Order
          105
          175
 
 --------------------------------------------------------------
 
                    Orbital Energies (a.u.)
 --------------------------------------------------------------
 
 Alpha MOs
 -- Occupied --
-14.4510 -10.2997 -10.2957 -10.2715 -10.2687 -10.2676 -10.2644 -10.2619
-10.2608 -10.2600  -1.1186  -0.9824  -0.9327  -0.8719  -0.8621  -0.8190
 -0.7477  -0.7149  -0.6790  -0.6526  -0.6003  -0.5860  -0.5569  -0.5517
 -0.5405  -0.5184  -0.5146  -0.4956  -0.4798  -0.4551  -0.4522  -0.4333
 -0.3784  -0.3183  -0.2914
 -- Virtual --
  0.0537   0.0597   0.0747   0.0764   0.0929   0.0973   0.0990   0.1052
  0.1256   0.1298   0.1342   0.1453   0.1557   0.1643   0.1728   0.1773
  0.1853   0.1915   0.1978   0.2077   0.2133   0.2194   0.2264   0.2447
  0.2460   0.2522   0.2563   0.2598   0.2653   0.2735   0.2746   0.2762
  0.2791   0.2844   0.2887   0.2919   0.3032   0.3045   0.3124   0.3225
  0.3227   0.3274   0.3339   0.3385   0.3398   0.3409   0.3462   0.3515
  0.3580   0.3654   0.3727   0.3761   0.3780   0.3868   0.3908   0.3924
  0.3978   0.4055   0.4108   0.4134   0.4189   0.4206   0.4254   0.4375
  0.4389   0.4460   0.4500   0.4558   0.4582   0.4594   0.4664   0.4695
  0.4815   0.4923   0.4977   0.4986   0.5002   0.5128   0.5177   0.5232
  0.5290   0.5341   0.5401   0.5442   0.5463   0.5514   0.5552   0.5646
  0.5709   0.5764   0.5867   0.5906   0.5993   0.6099   0.6209   0.6237
  0.6298   0.6395   0.6440   0.6482   0.6538   0.6759   0.6788   0.6798
  0.6898   0.6916   0.6969   0.7039   0.7102   0.7190   0.7235   0.7329
  0.7352   0.7457   0.7498   0.7531   0.7619   0.7648   0.7725   0.7749
  0.7798   0.7881   0.7923   0.7946   0.8002   0.8014   0.8106   0.8163
  0.8233   0.8284   0.8324   0.8382   0.8442   0.8507   0.8578   0.8616
  0.8682   0.8742   0.8881   0.8893   0.9022   0.9076   0.9156   0.9304
  0.9434   0.9502   0.9600   0.9811   0.9907   1.0006   1.0083   1.0126
  1.0396   1.0420   1.0513   1.0642   1.0700   1.0810   1.0893   1.1006
  1.1186   1.1263   1.1397   1.1447   1.1680   1.1826   1.1953   1.2207
  1.2328   1.2417   1.2616   1.2718   1.3039   1.3048   1.3427   1.3533
  1.3838   1.3962   1.3986   1.4150   1.4287   1.4510   1.4550   1.4692
  1.5158   1.5522   1.5602   1.5665   1.5785   1.5842   1.6122   1.6142
  1.6465   1.6615   1.6953   1.7040   1.7205   1.7414   1.7461   1.7721
  1.7949   1.8234   1.8417   1.8519   1.8642   1.8710   1.8854   1.8908
  1.9011   1.9194   1.9410   1.9451   1.9545   1.9664   1.9694   1.9813
  1.9951   1.9992   2.0068   2.0239   2.0344   2.0557   2.0638   2.0740
  2.0928   2.1224   2.1393   2.1739   2.1853   2.1972   2.2092   2.2220
  2.2576   2.2843   2.2990   2.3180   2.3197   2.3612   2.3660   2.3767
  2.4126   2.4345   2.4449   2.4580   2.4916   2.5043   2.5151   2.5509
  2.5539   2.5745   2.5968   2.6153   2.6262   2.6495   2.6701   2.6813
  2.6942   2.7196   2.7521   2.7572   2.7681   2.7876   2.8074   2.8145
  2.8187   2.8326   2.8496   2.8684   2.8788   2.8942   2.8981   2.9142
  2.9367   2.9476   2.9621   2.9791   2.9851   3.0115   3.0291   3.0339
  3.0378   3.0663   3.0878   3.0925   3.1016   3.1357   3.1521   3.1652
  3.1722   3.1875   3.2050   3.2229   3.2354   3.2537   3.2627   3.2671
  3.2871   3.2984   3.3119   3.3211   3.3549   3.3641   3.3789   3.3913
  3.4068   3.4174   3.4285   3.4385   3.4439   3.4518   3.4668   3.4797
  3.4932   3.5061   3.5135   3.5227   3.5324   3.5372   3.5597   3.5744
  3.5817   3.5920   3.6132   3.6326   3.6469   3.6570   3.6641   3.6843
  3.7026   3.7217   3.7228   3.7293   3.7551   3.7685   3.7874   3.7976
  3.8129   3.8573   3.8859   3.9318   3.9372   3.9511   3.9905   4.0254
  4.0559   4.0780   4.1090   4.1573   4.1721   4.2016   4.2245   4.2356
  4.2555   4.2696   4.2898   4.3006   4.3242   4.3649   4.3700   4.3757
  4.4185   4.4248   4.4423   4.4696   4.4886   4.5425   4.5675   4.5950
  4.6384   4.6459   4.6727   4.7726   4.7927   4.8244   4.8490   4.9236
  4.9402   4.9663   4.9829   4.9878   5.0226   5.0736   5.0756   5.1131
  5.1481   5.1625   5.2070   5.2271   5.2658   5.4001   5.4153   5.4600
  5.5183   5.5603   5.5919   5.6573   5.7150   5.8044   5.8301   5.9483
  5.9764   6.2647   6.3551  22.6678  22.7526  22.9412  22.9622  22.9975
 23.2267  23.2688  23.4912  23.8227  32.8384
 --------------------------------------------------------------
 
          Ground-State Mulliken Net Atomic Charges

     Atom                 Charge (a.u.)
  ----------------------------------------
      1 C                    -0.977671
      2 C                    -0.826395
      3 C                    -0.181356
      4 C                     0.858832
      5 C                     0.415941
      6 C                    -0.576271
      7 C                    -0.356217
      8 C                    -0.465722
      9 C                    -0.550688
     10 N                     0.155332
     11 H                     0.201006
     12 H                     0.256346
     13 H                     0.343366
     14 H                     0.264920
     15 H                     0.264013
     16 H                     0.334884
     17 H                     0.296553
     18 H                     0.344884
     19 H                     0.198244
  ----------------------------------------
  Sum of atomic charges =     0.000000

 -----------------------------------------------------------------
                    Cartesian Multipole Moments
 -----------------------------------------------------------------
    Charge (ESU x 10^10)
                -0.0000
    Dipole Moment (Debye)
         X      -2.1588      Y       1.3482      Z       0.8759
       Tot       2.6917
    Quadrupole Moments (Debye-Ang)
        XX     -54.6417     XY       0.8609     YY     -54.8355
        XZ      -3.2965     YZ      -1.1437     ZZ     -63.3592
    Octopole Moments (Debye-Ang^2)
       XXX     -98.0962    XXY      93.5315    XYY     -30.9157
       YYY     278.0889    XXZ       8.9288    XYZ       2.2939
       YYZ      12.6035    XZZ     -36.9080    YZZ     103.6335
       ZZZ      39.1997
    Hexadecapole Moments (Debye-Ang^3)
      XXXX    -938.3403   XXXY      40.0611   XXYY    -429.8408
      XYYY      25.6577   YYYY   -1672.2880   XXXZ     128.0594
      XXYZ       1.8724   XYYZ      48.8941   YYYZ       9.5228
      XXZZ    -201.8902   XYZZ      23.6212   YYZZ    -336.0810
      XZZZ     188.3612   YZZZ       4.2427   ZZZZ    -231.5615
 -----------------------------------------------------------------
Archival summary:
1\1\nid00572\SP\ProcedureUnspecified\BasisUnspecified\199\meili\MonSep2711:40:042021MonSep2711:40:042021\0\\#,ProcedureUnspecified,BasisUnspecified,\\0,1\C\C,1,1.40224\H,2,1.07794,1,119.89\C,2,1.37509,1,119.21,3,-178.209,0\H,4,1.07989,2,119.33,1,178.588,0\C,4,1.3954,2,121.013,1,1.74821,0\H,6,1.08113,4,119.025,2,178.564,0\C,6,1.38361,4,121.134,2,-0.776913,0\H,8,1.07883,6,121.519,4,179.232,0\C,8,1.38545,6,117.822,4,-0.500609,0\N,10,1.36868,8,131.081,6,179.617,0\H,11,1.02334,10,124.62,8,-3.70108,0\C,11,1.36847,10,109.736,8,-178.961,0\H,13,1.0839,11,125.359,10,-179.031,0\C,13,1.36228,11,109.624,10,0.268247,0\C,15,1.48731,13,127.795,11,-176.951,0\H,16,1.08993,15,107.933,13,-155.322,0\H,16,1.09092,15,109.144,13,-39.7662,0\H,16,1.1,15,114.754,13,84.4113,0\\\@

 Total job time:  76018.87s(wall), 151132.18s(cpu) 
 Mon Sep 27 11:40:06 2021

        *************************************************************
        *                                                           *
        *  Thank you very much for using Q-Chem.  Have a nice day.  *
        *                                                           *
        *************************************************************


Done Job For Fragment 1
calling putenv with: QCSCRATCH=/global/cscratch1/sd/meili 
calling putenv with: QCLOCALSCR=/tmp 
calling putenv with: QCTHREADS=32 
Doing General SCFMI
 Exchange:     0.1670 Hartree-Fock + 1.0000 wB97X-V + LR-HF
 Correlation:  1.0000 wB97X-V
 Using Euler-Maclaurin-Lebedev (99,590) quadrature formula
 Nonlocal Correlation:  VV10 with C = 0.0100 and b = 6.00 and scale = 1.00000
 Grid used for NLC:  SG-1 standard quadrature
performing fock build before subrot guess so that all methods have access
Printing subrot_rss_gen Method Specification:
Occupied Subspace Method is 0
Virtual Subspace Method is 0
Energy of the unrelaxed supersystem initial determinant -631.719805679320
performing fock build before subrot guess so that all methods have access
Printing subrot_rss_gen Method Specification:
Occupied Subspace Method is 0
Virtual Subspace Method is 0
Energy of the unrelaxed supersystem initial determinant w/ solvent -631.813792882422
write pseudocanon occs and virts to disk
write pseudocanon orbital energies to disk
Tolerance of ortho_decomp_scf: 1.00e-06
GDM subspace size: 20
Beginning the Orthogonal Decomposition of the Initial Supersystem Wavefunction
    1    -631.6495515047      6.28e-02     ortho_decomp Preconditoned Steepest Descent
    2    -631.6595554726      1.51e-03     ortho_decomp BFGS Step
    3    -631.6595898569      1.36e-04     ortho_decomp BFGS Step
    4    -631.6595899408      5.88e-06     ortho_decomp BFGS Step
    5    -631.6595899411      1.95e-07     ortho_decomp 00000 Convergence criterion met
 Hartree-Fock
 Hartree-Fock
 Hartree-Fock
Doing General SCFMI
 Exchange:     0.1670 Hartree-Fock + 1.0000 wB97X-V + LR-HF
 Correlation:  1.0000 wB97X-V
 Using Euler-Maclaurin-Lebedev (99,590) quadrature formula
 Nonlocal Correlation:  VV10 with C = 0.0100 and b = 6.00 and scale = 1.00000
 Grid used for NLC:  SG-1 standard quadrature
performing fock build at end of subrot_r(subrot) constructor so that all methods have access
<S^2> of initial wavefunction before polarization iterations 0.0000000000
Beginning iterations for the determination of the polarized wavefunction
Energy prior to optimization (guess energy) = -631.813792882422
Begin Timing: Total SCF Calculation
begin iterations for algorithm: DIIS         
the SCF tolerance is set to 1.00e-08
    1    -631.8137928824      1.39e-04     00000 
    2    -631.8161438020      6.74e-05     00000 
    3    -631.8164391669      4.36e-05     00000 
    4    -631.8165769891      1.21e-05     00000 
    5    -631.8165926286      6.43e-06     00000 
    6    -631.8165969900      2.92e-06     00000 
    7    -631.8165979401      1.25e-06     00000 
    8    -631.8165981144      3.36e-07     00000 
    9    -631.8165981311      1.59e-07     00000 
   10    -631.8165981335      5.17e-08     00000 
   11    -631.8165981339      2.08e-08     00000 
   12    -631.8165981340      1.04e-08     00000 
   13    -631.8165981340      3.65e-09     00000 Convergence criterion met
write pseudocanon occs and virts to disk
write pseudocanon orbital energies to disk
Timing for Total SCF: 9505.00s (wall), 18919.68s (cpu)
<S^2> of polarized wavefunction after polarization iterations 0.0000000000
relaxing scfmi constraint to allow all rotations in the entire AO span
Doing General SCFMI
 Exchange:     0.1670 Hartree-Fock + 1.0000 wB97X-V + LR-HF
 Correlation:  1.0000 wB97X-V
 Using Euler-Maclaurin-Lebedev (99,590) quadrature formula
 Nonlocal Correlation:  VV10 with C = 0.0100 and b = 6.00 and scale = 1.00000
 Grid used for NLC:  SG-1 standard quadrature
performing fock build at end of subrot_r(subrot) constructor so that all methods have access
<S^2> of polarized wavefunction before ct-allowed iterations 0.0000000000
Beginning iterations for the determination of the CT-Allowed wavefunction
Energy prior to optimization (guess energy) = -631.816598133984
Begin Timing: Total SCF Calculation
begin iterations for algorithm: DIIS         
the SCF tolerance is set to 1.00e-08
    1    -631.8165981340      1.16e-04     00000 
    2    -631.8195736033      1.74e-05     00000 
    3    -631.8196852980      8.66e-06     00000 
    4    -631.8196950218      4.31e-06     00000 
    5    -631.8196982225      9.96e-07     00000 
    6    -631.8196984029      3.74e-07     00000 
    7    -631.8196984444      1.33e-07     00000 
    8    -631.8196984501      3.46e-08     00000 
    9    -631.8196984508      1.25e-08     00000 
   10    -631.8196984509      6.31e-09     00000 Convergence criterion met
write pseudocanon occs and virts to disk
write pseudocanon orbital energies to disk
Timing for Total SCF: 7153.00s (wall), 14224.70s (cpu)
<S^2> of ct_allowed wavefunction after ct-allowed iterations 0.0000000000

================================
        Results of EDA2         
================================
Basic EDA Quantities
--------------------
Fragment Energies (Ha):
1 -228.6400656406
2 -403.1682386549
--------------------
  E_prp (kJ/mol) = 0.0000
  E_sol (kJ/mol) = 39.8256
  E_frz (kJ/mol) = -54.2361
  E_pol (kJ/mol) = -7.3653
  E_vct (kJ/mol) = -8.1400
  E_int (kJ/mol) = -29.9157
--------------------


Initial Wavefunction Decomposition
--------------------
  --------------------
  Orthogonal Fragment Subspace Decomposition:
  --------------------
     E_elec   (ELEC)   (kJ/mol) = -122.4070
     E_pauli  (PAULI)  (kJ/mol) = 84.6559
     E_disp   (DISP)   (kJ/mol) = -16.4851
     --------------------
     Terms summing to E_pauli:
     --------------------
        E_kep_pauli       (kJ/mol) = 103.8622
        E_disp_free_pauli (kJ/mol) = -19.2063
  --------------------
  Classical Frozen Decomposition:
  --------------------
     E_cls_elec  (CLS ELEC)  (kJ/mol) = -83.9850
     E_cls_pauli (CLS PAULI) (kJ/mol) = 29.7489
    [E_mod_pauli (MOD PAULI) (kJ/mol) = 46.2339 (CLS PAULI - DISP from orthogonal decomposition) ]
  --------------------
--------------------

Simplified EDA Summary (kJ/mol)
--------------------
 PREPARATION     0.0000
 SOLVATION       39.8256
 FROZEN          -37.7510      (does not include dispersion)
[PAULI           84.6559]     (if this is negligible, then frozen describes electrostatics)
 DISPERSION      -16.4851
 POLARIZATION    -7.3653
 CHARGE TRANSFER -8.1400
 TOTAL           -29.9157     (PRP + SOL + FRZ + DISP + POL + CT)
--------------------
 
 --------------------------------------------------------------
 
                    Orbital Energies (a.u.)
 --------------------------------------------------------------
 
 Alpha MOs
 -- Occupied --
-19.1285 -19.1230 -14.4302 -10.3310 -10.2895 -10.2865 -10.2629 -10.2623
-10.2608 -10.2568 -10.2566 -10.2563 -10.2516 -10.2452  -1.1410  -1.1044
 -1.0335  -0.9747  -0.9237  -0.8639  -0.8549  -0.8345  -0.8102  -0.7391
 -0.7063  -0.6707  -0.6432  -0.5984  -0.5915  -0.5793  -0.5483  -0.5464
 -0.5365  -0.5307  -0.5216  -0.5201  -0.5112  -0.5085  -0.4880  -0.4743
 -0.4646  -0.4497  -0.4470  -0.4457  -0.4249  -0.3711  -0.3358  -0.3330
 -0.3107  -0.3098  -0.2828
 -- Virtual --
  0.0567   0.0594   0.0683   0.0743   0.0869   0.0904   0.0946   0.0994
  0.1006   0.1139   0.1161   0.1245   0.1279   0.1305   0.1379   0.1454
  0.1468   0.1544   0.1575   0.1613   0.1645   0.1826   0.1878   0.1906
  0.1941   0.1978   0.2056   0.2062   0.2125   0.2146   0.2168   0.2263
  0.2343   0.2437   0.2462   0.2498   0.2536   0.2574   0.2634   0.2646
  0.2726   0.2760   0.2798   0.2810   0.2848   0.2902   0.2947   0.3002
  0.3037   0.3066   0.3105   0.3161   0.3197   0.3228   0.3268   0.3290
  0.3331   0.3361   0.3378   0.3447   0.3465   0.3523   0.3533   0.3565
  0.3583   0.3653   0.3672   0.3693   0.3722   0.3766   0.3821   0.3835
  0.3871   0.3921   0.3952   0.3983   0.4020   0.4030   0.4053   0.4087
  0.4177   0.4233   0.4242   0.4283   0.4313   0.4339   0.4353   0.4432
  0.4456   0.4534   0.4547   0.4604   0.4630   0.4669   0.4701   0.4757
  0.4789   0.4796   0.4880   0.4934   0.4944   0.4993   0.5017   0.5063
  0.5134   0.5148   0.5207   0.5270   0.5300   0.5326   0.5342   0.5385
  0.5449   0.5516   0.5573   0.5638   0.5689   0.5733   0.5759   0.5814
  0.5855   0.5916   0.5954   0.6021   0.6058   0.6077   0.6139   0.6164
  0.6197   0.6241   0.6361   0.6436   0.6458   0.6473   0.6559   0.6591
  0.6699   0.6719   0.6761   0.6809   0.6860   0.6888   0.6942   0.7001
  0.7013   0.7099   0.7100   0.7178   0.7263   0.7320   0.7375   0.7416
  0.7424   0.7464   0.7474   0.7520   0.7544   0.7610   0.7689   0.7729
  0.7801   0.7838   0.7852   0.7899   0.7933   0.7959   0.7977   0.7999
  0.8039   0.8080   0.8104   0.8129   0.8180   0.8215   0.8275   0.8317
  0.8360   0.8421   0.8440   0.8489   0.8550   0.8605   0.8641   0.8732
  0.8788   0.8825   0.8870   0.8965   0.9010   0.9078   0.9101   0.9120
  0.9161   0.9311   0.9420   0.9496   0.9556   0.9663   0.9744   0.9857
  0.9957   0.9977   1.0116   1.0177   1.0245   1.0276   1.0333   1.0498
  1.0619   1.0696   1.0719   1.0753   1.0800   1.0939   1.1039   1.1089
  1.1171   1.1227   1.1295   1.1373   1.1478   1.1546   1.1679   1.1776
  1.1816   1.1853   1.2063   1.2201   1.2315   1.2376   1.2492   1.2540
  1.2616   1.2683   1.2918   1.2993   1.3098   1.3183   1.3357   1.3535
  1.3574   1.3605   1.3724   1.3781   1.3878   1.4077   1.4144   1.4214
  1.4358   1.4428   1.4459   1.4544   1.4721   1.4954   1.5031   1.5181
  1.5396   1.5708   1.5791   1.5909   1.5993   1.6151   1.6384   1.6464
  1.6531   1.6718   1.6833   1.6887   1.7049   1.7269   1.7509   1.7605
  1.7647   1.7703   1.7887   1.8153   1.8494   1.8587   1.8756   1.8881
  1.8924   1.8985   1.9069   1.9090   1.9203   1.9238   1.9484   1.9511
  1.9533   1.9652   1.9708   1.9806   1.9825   1.9875   1.9930   2.0021
  2.0082   2.0137   2.0167   2.0225   2.0297   2.0394   2.0566   2.0741
  2.0779   2.0898   2.0989   2.1050   2.1337   2.1398   2.1446   2.1571
  2.1794   2.1920   2.2029   2.2101   2.2217   2.2263   2.2503   2.2667
  2.2834   2.2941   2.3129   2.3208   2.3374   2.3489   2.3634   2.3783
  2.3898   2.4056   2.4237   2.4406   2.4449   2.4704   2.4778   2.4860
  2.5126   2.5279   2.5314   2.5357   2.5509   2.5708   2.5934   2.5999
  2.6100   2.6123   2.6262   2.6339   2.6519   2.6585   2.6647   2.6800
  2.6939   2.6979   2.7119   2.7304   2.7396   2.7735   2.7818   2.7980
  2.8082   2.8164   2.8224   2.8358   2.8422   2.8473   2.8554   2.8648
  2.8872   2.8886   2.9063   2.9193   2.9318   2.9397   2.9542   2.9568
  2.9639   2.9787   2.9936   3.0007   3.0131   3.0238   3.0453   3.0510
  3.0540   3.0620   3.0869   3.0985   3.1110   3.1211   3.1472   3.1628
  3.1713   3.1787   3.1860   3.1996   3.2052   3.2260   3.2370   3.2425
  3.2524   3.2690   3.2763   3.2900   3.2996   3.3036   3.3088   3.3255
  3.3454   3.3483   3.3523   3.3630   3.3676   3.3763   3.3885   3.3991
  3.4150   3.4290   3.4304   3.4317   3.4395   3.4483   3.4560   3.4631
  3.4642   3.4801   3.4897   3.5009   3.5053   3.5270   3.5322   3.5365
  3.5511   3.5607   3.5705   3.5867   3.5928   3.6000   3.6051   3.6208
  3.6276   3.6451   3.6558   3.6655   3.6711   3.6793   3.6902   3.7083
  3.7136   3.7181   3.7328   3.7395   3.7443   3.7639   3.7797   3.7824
  3.7852   3.8055   3.8222   3.8277   3.8370   3.8666   3.9076   3.9203
  3.9417   3.9514   3.9571   3.9706   4.0034   4.0569   4.0689   4.0799
  4.0933   4.0993   4.1244   4.1749   4.1834   4.2233   4.2397   4.2422
  4.2614   4.2701   4.2975   4.3130   4.3181   4.3378   4.3694   4.3796
  4.3821   4.3865   4.4371   4.4411   4.4624   4.4833   4.4983   4.5565
  4.5770   4.5903   4.6098   4.6383   4.6570   4.6623   4.6911   4.6925
  4.7848   4.8075   4.8362   4.8411   4.8617   4.9162   4.9507   4.9646
  4.9995   5.0019   5.0086   5.0211   5.0388   5.0885   5.1024   5.1356
  5.1575   5.1806   5.2308   5.2441   5.2849   5.3313   5.3583   5.3715
  5.3791   5.4182   5.4338   5.4823   5.5254   5.5348   5.5752   5.6234
  5.6778   5.7071   5.7435   5.8188   5.8222   5.8516   5.8842   5.9791
  5.9911   6.0992   6.2295   6.3095   6.3692   6.3823   6.4352   6.6569
  6.6692   6.7675   6.7789   6.8071   6.9713   7.0254   7.0584   7.2716
  7.3438   7.4245   7.4759  22.6194  22.6751  22.7824  22.9551  22.9795
 23.0110  23.2534  23.2890  23.5067  23.7875  23.8417  32.9569  44.3582
 44.4184
 --------------------------------------------------------------
 
          Ground-State Mulliken Net Atomic Charges

     Atom                 Charge (a.u.)
  ----------------------------------------
      1 C                    -0.495539
      2 C                     0.267974
      3 O                    -0.652128
      4 O                    -0.700983
      5 H                     0.159010
      6 H                     0.207556
      7 H                     0.168348
      8 C                    -1.081188
      9 C                    -0.496258
     10 C                    -0.267242
     11 C                     0.664688
     12 C                     0.328430
     13 C                    -0.367317
     14 C                    -0.479580
     15 C                    -0.496880
     16 C                    -0.510717
     17 N                     0.271099
     18 H                     0.132141
     19 H                     0.270872
     20 H                     0.368942
     21 H                     0.263402
     22 H                     0.261382
     23 H                     0.337350
     24 H                     0.301023
     25 H                     0.348931
     26 H                     0.196684
  ----------------------------------------
  Sum of atomic charges =    -1.000000

 -----------------------------------------------------------------
                    Cartesian Multipole Moments
 -----------------------------------------------------------------
    Charge (ESU x 10^10)
                -4.8032
    Dipole Moment (Debye)
         X       1.7888      Y     -13.0856      Z      -5.6367
       Tot      14.3599
    Quadrupole Moments (Debye-Ang)
        XX     -85.5292     XY      13.8393     YY    -141.6000
        XZ       3.1166     YZ     -26.0171     ZZ     -98.7817
    Octopole Moments (Debye-Ang^2)
       XXX      -9.1615    XXY      -5.5194    XYY      46.2340
       YYY    -246.7754    XXZ      -3.8284    XYZ      22.8776
       YYZ     -97.4616    XZZ       0.9423    YZZ     -24.7910
       ZZZ       2.1626
    Hexadecapole Moments (Debye-Ang^3)
      XXXX   -1211.0752   XXXY     370.7348   XXYY    -866.7513
      XYYY     553.0354   YYYY   -5044.7445   XXXZ     151.4802
      XXYZ     -46.2050   XYYZ     140.5548   YYYZ    -511.3190
      XXZZ    -286.9934   XYZZ     167.2741   YYZZ    -882.5528
      XZZZ     214.1893   YZZZ    -127.7507   ZZZZ    -444.9303
 -----------------------------------------------------------------
Archival summary:
1\1\nid00572\SP\ProcedureUnspecified\BasisUnspecified\211112(1-,1)\meili\MonSep2719:27:512021MonSep2719:27:512021\0\\#,ProcedureUnspecified,BasisUnspecified,\\-1,1\N\H,1,1.02334\C,1,1.36847,2,125.458\H,3,1.0839,1,125.359,2,5.75764,0\C,3,1.36228,1,109.624,2,-174.943,0\C,1,1.36868,2,124.62,3,-174.52,0\C,6,1.38545,1,131.081,2,-3.70108,0\H,7,1.07883,6,120.658,1,-0.118236,0\C,7,1.38361,6,117.822,1,179.617,0\H,9,1.08113,7,119.838,6,-179.836,0\C,9,1.3954,7,121.134,6,-0.500609,0\H,11,1.07989,9,119.582,7,-177.609,0\C,11,1.37509,9,121.013,7,-0.776913,0\H,13,1.07794,11,120.875,9,-176.443,0\C,13,1.40224,11,119.21,9,1.74821,0\C,5,1.48731,3,127.795,1,-176.951,0\H,16,1.08993,5,107.933,3,-155.322,0\H,16,1.09092,5,109.144,3,-39.7662,0\H,16,1.1,5,114.754,3,84.4113,0\O,2,1.94827,1,148.275,3,155.271,0\C,20,1.2426,2,157.477,1,111.971,0\O,21,1.2574,20,119.778,2,170.333,0\C,21,1.52414,20,119.56,2,-13.3373,0\H,23,1.08584,21,109.546,20,130.883,0\H,23,1.09394,21,109.283,20,-110.93,0\H,23,1.1,21,112.907,20,9.90128,0\\\@

 Total job time:  109123.99s(wall), 55899.05s(cpu) 
 Mon Sep 27 19:27:53 2021

        *************************************************************
        *                                                           *
        *  Thank you very much for using Q-Chem.  Have a nice day.  *
        *                                                           *
        *************************************************************


