
Running Job 1 of 1 SSI-016ARG-047PHE-1_SMD_TZVPD.in
qchem SSI-016ARG-047PHE-1_SMD_TZVPD.in_56418.0 /tmp/qchem56418/ 0
/global/common/cori/software/qchem/5.2/exe/qcprog.exe_s SSI-016ARG-047PHE-1_SMD_TZVPD.in_56418.0 /tmp/qchem56418/
                  Welcome to Q-Chem
     A Quantum Leap Into The Future Of Chemistry


 Q-Chem 5.2, Q-Chem, Inc., Pleasanton, CA (2019)

 License issued to: National Energy Research Scientific Computing Center

 Yihan Shao,  Zhengting Gan,  E. Epifanovsky,  A. T. B. Gilbert,  M. Wormit,  
 J. Kussmann,  A. W. Lange,  A. Behn,  Jia Deng,  Xintian Feng,  D. Ghosh,  
 M. Goldey,  P. R. Horn,  L. D. Jacobson,  I. Kaliman,  T. Kus,  A. Landau,  
 Jie Liu,  E. I. Proynov,  R. M. Richard,  R. P. Steele,  E. J. Sundstrom,  
 H. L. Woodcock III,  P. M. Zimmerman,  D. Zuev,  B. Albrecht,  E. Alguire,  
 S. A. Baeppler,  D. Barton,  Z. Benda,  Y. A. Bernard,  E. J. Berquist,  
 K. B. Bravaya,  H. Burton,  D. Casanova,  Chun-Min Chang,  Yunqing Chen,  
 A. Chien,  K. D. Closser,  M. P. Coons,  S. Coriani,  S. Dasgupta,  
 A. L. Dempwolff,  M. Diedenhofen,  Hainam Do,  R. G. Edgar,  Po-Tung Fang,  
 S. Faraji,  S. Fatehi,  Qingguo Feng,  K. D. Fenk,  J. Fosso-Tande,  
 J. Gayvert,  Qinghui Ge,  A. Ghysels,  G. Gidofalvi,  J. Gomes,  
 J. Gonthier,  A. Gunina,  D. Hait,  M. W. D. Hanson-Heine,  
 P. H. P. Harbach,  A. W. Hauser,  M. F. Herbst,  J. E. Herr,  
 E. G. Hohenstein,  Z. C. Holden,  Kerwin Hui,  B. C. Huynh,  T.-C. Jagau,  
 Hyunjun Ji,  B. Kaduk,  K. Khistyaev,  Jaehoon Kim,  P. Klunzinger,  K. Koh,  
 D. Kosenkov,  L. Koulias,  T. Kowalczyk,  C. M. Krauter,  A. Kunitsa,  
 Ka Un Lao,  A. Laurent,  K. V. Lawler,  Joonho Lee,  D. Lefrancois,  
 S. Lehtola,  D. S. Levine,  Yi-Pei Li,  You-Sheng Lin,  Fenglai Liu,  
 E. Livshits,  A. Luenser,  P. Manohar,  E. Mansoor,  S. F. Manzer,  
 Shan-Ping Mao,  Yuezhi Mao,  N. Mardirossian,  A. V. Marenich,  
 T. Markovich,  L. A. Martinez-Martinez,  S. A. Maurer,  N. J. Mayhall,  
 S. C. McKenzie,  J.-M. Mewes,  P. Morgante,  A. F. Morrison,  
 J. W. Mullinax,  K. Nanda,  T. S. Nguyen-Beck,  R. Olivares-Amaya,  
 J. A. Parkhill,  Zheng Pei,  T. M. Perrine,  F. Plasser,  P. Pokhilko,  
 S. Prager,  A. Prociuk,  E. Ramos,  D. R. Rehn,  F. Rob,  M. Scheurer,  
 M. Schneider,  N. Sergueev,  S. M. Sharada,  S. Sharma,  D. W. Small,  
 T. Stauch,  T. Stein,  Yu-Chuan Su,  A. J. W. Thom,  A. Tkatchenko,  
 T. Tsuchimochi,  N. M. Tubman,  L. Vogt,  M. L. Vidal,  O. Vydrov,  
 M. A. Watson,  J. Wenzel,  M. de Wergifosse,  T. A. Wesolowski,  A. White,  
 J. Witte,  A. Yamada,  Jun Yang,  K. Yao,  S. Yeganeh,  S. R. Yost,  
 Zhi-Qiang You,  A. Zech,  Igor Ying Zhang,  Xing Zhang,  Yan Zhao,  
 Ying Zhu,  B. R. Brooks,  G. K. L. Chan,  C. J. Cramer,  M. S. Gordon,  
 W. J. Hehre,  A. Klamt,  M. W. Schmidt,  C. D. Sherrill,  D. G. Truhlar,  
 A. Aspuru-Guzik,  R. Baer,  A. T. Bell,  N. A. Besley,  Jeng-Da Chai,  
 A. E. DePrince, III,  R. A. DiStasio Jr.,  A. Dreuw,  B. D. Dunietz,  
 T. R. Furlani,  Chao-Ping Hsu,  Yousung Jung,  Jing Kong,  D. S. Lambrecht,  
 WanZhen Liang,  C. Ochsenfeld,  V. A. Rassolov,  L. V. Slipchenko,  
 J. E. Subotnik,  T. Van Voorhis,  J. M. Herbert,  A. I. Krylov,  
 P. M. W. Gill,  M. Head-Gordon

 Contributors to earlier versions of Q-Chem not listed above: 
 R. D. Adamson,  B. Austin,  J. Baker,  G. J. O. Beran,  K. Brandhorst,  
 S. T. Brown,  E. F. C. Byrd,  A. K. Chakraborty,  C.-L. Cheng,  
 Siu Hung Chien,  D. M. Chipman,  D. L. Crittenden,  H. Dachsel,  
 R. J. Doerksen,  A. D. Dutoi,  L. Fusti-Molnar,  W. A. Goddard III,  
 A. Golubeva-Zadorozhnaya,  S. R. Gwaltney,  G. Hawkins,  A. Heyden,  
 S. Hirata,  G. Kedziora,  F. J. Keil,  C. Kelley,  Jihan Kim,  R. A. King,  
 R. Z. Khaliullin,  P. P. Korambath,  W. Kurlancheek,  A. M. Lee,  M. S. Lee,  
 S. V. Levchenko,  Ching Yeh Lin,  D. Liotard,  R. C. Lochan,  I. Lotan,  
 P. E. Maslen,  N. Nair,  D. P. O'Neill,  D. Neuhauser,  E. Neuscamman,  
 C. M. Oana,  R. Olson,  B. Peters,  R. Peverati,  P. A. Pieniazek,  
 Y. M. Rhee,  J. Ritchie,  M. A. Rohrdanz,  E. Rosta,  N. J. Russ,  
 H. F. Schaefer III,  N. E. Schultz,  N. Shenvi,  A. C. Simmonett,  A. Sodt,  
 D. Stuck,  K. S. Thanthiriwatte,  V. Vanovschi,  Tao Wang,  A. Warshel,  
 C. F. Williams,  Q. Wu,  X. Xu,  W. Zhang

 Please cite Q-Chem as follows:
 Y. Shao et al., Mol. Phys. 113, 184-215 (2015)
 DOI: 10.1080/00268976.2014.952696

 Q-Chem 5.2.0 for Intel X86 EM64T Linux

 Parts of Q-Chem use Armadillo 8.300.2 (Tropical Shenanigans).
 http://arma.sourceforge.net/

 Q-Chem begins on Sun Sep 26 03:18:06 2021  

Host: cori01
0

     Scratch files written to /tmp/qchem56418//
 May1019 |scratch|qcdevops|jenkins|workspace|build_RNUM -1
Processing $rem in /global/common/cori/software/qchem/5.2/config/preferences:
	 MEM_TOTAL  96000 
NAlpha2: 90
NElect   90
Mult     1
Symmetry turned off for PCM/SM12/SMD calculation

 Q-Chem warning in module libgen/rem_setup.C, line 2803:

 Neither GIA nor STOLL is specified by user. Use STOLL as the default


Checking the input file for inconsistencies... 	...done.

--------------------------------------------------------------
User input:
--------------------------------------------------------------
$comment
SSI-016ARG-047PHE-1.pdb
$end

$molecule
1 1
--
1 1
C   -2.093496959249    2.714119892214    1.436928284632
C   -0.529496959249    1.283119892214    2.712928284632
N   -0.796496959249    2.399119892214    2.053928284632
N   -1.451496959249    0.350119892214    2.847928284632
N    0.665503040751    1.096119892214    3.236928284632
H   -0.069496959249    3.098119892214    2.003928284632
H   -2.369496959249    0.508119892214    2.466928284632
H   -1.259496959249   -0.507880107786    3.339928284632
H    1.358503040751    1.827119892214    3.166928284632
H    0.769503040751    0.382119892214    3.935928284632
H   -2.817496959249    2.937119892214    2.222928284632
H   -2.458496959249    1.866119892214    0.852928284632
H   -2.023366959249    3.587447892214    0.771808284632
--
0 1
C    1.101503040751   -0.065880107786   -4.066071715368
C    0.333503040751   -0.769880107786   -0.429071715368
C    0.362503040751   -2.156880107786   -0.403071715368
C    0.573503040751   -0.093880107786   -1.618071715368
C    0.834503040751   -0.797880107786   -2.788071715368
C    0.630503040751   -2.866880107786   -1.566071715368
C    0.873503040751   -2.186880107786   -2.754071715368
H    0.122503040751   -0.215880107786    0.472928284632
H    0.169503040751   -2.685880107786    0.520928284632
H    0.541503040751    0.985119892214   -1.632071715368
H    0.648503040751   -3.948880107786   -1.548071715368
H    0.466503040751    0.821119892214   -4.124071715368
H    0.822503040751   -0.725880107786   -4.878071715368
H    1.086503040751   -2.747880107786   -3.654071715368
H    2.156083040751    0.221798892214   -4.188951715368
$end

$rem
JOBTYPE			EDA
EDA2			1
method			wB97X-V
BASIS			def2-TZVPD
XC_GRID			000099000590
NL_GRID			1
UNRESTRICTED		FALSE
MAX_SCF_CYCLES		200
SYMMETRY		FALSE
SYM_IGNORE		TRUE
MEM_STATIC		2000
BASIS_LIN_DEP_THRESH 	6
THRESH 			14
SCF_CONVERGENCE 	8
SCF_PRINT_FRGM 		TRUE
SOLVENT_METHOD          SMD
$end

$SMX
SOLVENT			WATER
$END
--------------------------------------------------------------
 ----------------------------------------------------------------
             Standard Nuclear Orientation (Angstroms)
    I     Atom           X                Y                Z
 ----------------------------------------------------------------
    1      C      -2.0934969592     2.7141198922     1.4369282846
    2      C      -0.5294969592     1.2831198922     2.7129282846
    3      N      -0.7964969592     2.3991198922     2.0539282846
    4      N      -1.4514969592     0.3501198922     2.8479282846
    5      N       0.6655030408     1.0961198922     3.2369282846
    6      H      -0.0694969592     3.0981198922     2.0039282846
    7      H      -2.3694969592     0.5081198922     2.4669282846
    8      H      -1.2594969592    -0.5078801078     3.3399282846
    9      H       1.3585030408     1.8271198922     3.1669282846
   10      H       0.7695030408     0.3821198922     3.9359282846
   11      H      -2.8174969592     2.9371198922     2.2229282846
   12      H      -2.4584969592     1.8661198922     0.8529282846
   13      H      -2.0233669592     3.5874478922     0.7718082846
   14      C       1.1015030408    -0.0658801078    -4.0660717154
   15      C       0.3335030408    -0.7698801078    -0.4290717154
   16      C       0.3625030408    -2.1568801078    -0.4030717154
   17      C       0.5735030408    -0.0938801078    -1.6180717154
   18      C       0.8345030408    -0.7978801078    -2.7880717154
   19      C       0.6305030408    -2.8668801078    -1.5660717154
   20      C       0.8735030408    -2.1868801078    -2.7540717154
   21      H       0.1225030408    -0.2158801078     0.4729282846
   22      H       0.1695030408    -2.6858801078     0.5209282846
   23      H       0.5415030408     0.9851198922    -1.6320717154
   24      H       0.6485030408    -3.9488801078    -1.5480717154
   25      H       0.4665030408     0.8211198922    -4.1240717154
   26      H       0.8225030408    -0.7258801078    -4.8780717154
   27      H       1.0865030408    -2.7478801078    -3.6540717154
   28      H       2.1560830408     0.2217988922    -4.1889517154
 ----------------------------------------------------------------
 Nuclear Repulsion Energy =         657.57723000 hartrees
 There are       45 alpha and       45 beta electrons
 Requested basis set is def2-TZVPD
 There are 236 shells and 588 basis functions

 Total QAlloc Memory Limit  96000 MB
 Mega-Array Size      1956 MB
 MEM_STATIC part      2000 MB
 
 Citation of the SMD model:
 Marenich, A.V.; Cramer, C.J.; Truhlar, D.G.
 J. Phys. Chem. B 2009, 113, 6378-6396.
 iSolventCode=           1
 Solvent: water                                                           
 
 vradii
            1           2           3           4           5           6
    1   1.8500000   1.8500000   1.8900000   1.8900000   1.8900000   1.2000000
            7           8           9          10          11          12
    1   1.2000000   1.2000000   1.2000000   1.2000000   1.2000000   1.2000000
           13          14          15          16          17          18
    1   1.2000000   1.8500000   1.8500000   1.8500000   1.8500000   1.8500000
           19          20          21          22          23          24
    1   1.8500000   1.8500000   1.2000000   1.2000000   1.2000000   1.2000000
           25          26          27          28
    1   1.2000000   1.2000000   1.2000000   1.2000000
 Changing PCM_VDW_RADII to SMD_RADIUS
 Discretize the solute cavity surface with Lebedev spheres
	Using 110 Lebedev grid points for each H atom
	Using 194 Lebedev grid points for other atoms
	Atomic van der Waals radii will be scaled by 1.20
 Remove points where switching function is < 1.0e-08
 Keep 1991 surface tesserae and discard 2097 interior tesserae
 Molecular Surface Area = 242.041 Angst**2
 A cutoff of  1.0D-14 yielded  23644 shell pairs
 There are    146670 function pairs (    183292 Cartesian)
 Smallest overlap matrix eigenvalue = 4.70E-07
 Linear dependence detected in AO basis
 Tighter screening thresholds may be required for diffuse basis sets
 Use S2THRESH > 14 and THRESH = 14 in case of SCF convergence issues
 Number of orthogonalized atomic orbitals = 586
 Maximum deviation from orthogonality = 1.317E-10

 Scale SEOQF with 1.000000e-01/1.000000e-01/1.000000e-01

 Standard Electronic Orientation quadrupole field applied
 Nucleus-field energy     =    -0.0000000367 hartrees

 -----------------------------------------------------------------------
  General SCF calculation program by
  Eric Jon Sundstrom, Paul Horn, Yuezhi Mao, Dmitri Zuev, Alec White,
  David Stuck, Shaama M.S., Shane Yost, Joonho Lee, David Small,
  Daniel Levine, Susi Lehtola, Hugh Burton, Evgeny Epifanovsky
 -----------------------------------------------------------------------
================================================================
                 ALMO-EDA with the EDA2 driver                  
================================================================
 The second-generation ALMO-EDA (for DFT):                      
 P. R. Horn, Y. Mao and M. Head-Gordon, PCCP, 18, 23067 (2016)  
 Decomposition of the frozen energy:                            
 P. R. Horn, Y. Mao and M. Head-Gordon, JCP, 144, 114107 (2016) 
 FERF model for polarization:                                   
 P. R. Horn and M. Head-Gordon, JCP, 143, 114111 (2015)         
Using eda2 option set 1
Option set summary: Frozen orbital wavefunction, initial wavefunction decomposition, and nDQ polarization.
--------------------------------
Printing EDA Options
--------------------------------
eda_child_super_basis      0
fragmo_guess_mode          0
child_mp                   1
child_mp_orders            232
cls_elec                   1
cls_disp                   0
scfmi_mode                 1
scfmi_occs                 0
scfmi_virts                0
frz_relax                  0
frz_relax_method           0
dc_pen_start               0
dc_pen_conv                0
dc_pen_increment           0
dc_pen_steps               0
dc_pen_thresh_factor       0
dc_pen_pre_newton_thresh   0
frz_ortho_decomp           1
frz_ortho_decomp_conv      6
frgm_method                2
scfmi_freeze_ss            0
separate_rehyb             0
plot_diff_den              0
eda_nocv                   0
eda_vct_relax              1
disp_free_x                0
disp_free_c                0
eda_bsse                   0
eda_pct_a                  0
eda_covp                   0
--------------------------------
Attempting to make child job directory: /tmp/qchem56418//Frg1/
Attempting to make child job directory: /tmp/qchem56418//Frg2/
Creating input file /tmp/qchem56418/Frg1.input
using default PutDataFrgm: nothing
calling putenv with: QCSCRATCH=/tmp/qchem56418/ 
calling putenv with: QCLOCALSCR=/tmp/qchem56418/ 
Spawning Job For Fragment 0
                  Welcome to Q-Chem
     A Quantum Leap Into The Future Of Chemistry


 Q-Chem 5.2, Q-Chem, Inc., Pleasanton, CA (2019)

 License issued to: National Energy Research Scientific Computing Center

 Yihan Shao,  Zhengting Gan,  E. Epifanovsky,  A. T. B. Gilbert,  M. Wormit,  
 J. Kussmann,  A. W. Lange,  A. Behn,  Jia Deng,  Xintian Feng,  D. Ghosh,  
 M. Goldey,  P. R. Horn,  L. D. Jacobson,  I. Kaliman,  T. Kus,  A. Landau,  
 Jie Liu,  E. I. Proynov,  R. M. Richard,  R. P. Steele,  E. J. Sundstrom,  
 H. L. Woodcock III,  P. M. Zimmerman,  D. Zuev,  B. Albrecht,  E. Alguire,  
 S. A. Baeppler,  D. Barton,  Z. Benda,  Y. A. Bernard,  E. J. Berquist,  
 K. B. Bravaya,  H. Burton,  D. Casanova,  Chun-Min Chang,  Yunqing Chen,  
 A. Chien,  K. D. Closser,  M. P. Coons,  S. Coriani,  S. Dasgupta,  
 A. L. Dempwolff,  M. Diedenhofen,  Hainam Do,  R. G. Edgar,  Po-Tung Fang,  
 S. Faraji,  S. Fatehi,  Qingguo Feng,  K. D. Fenk,  J. Fosso-Tande,  
 J. Gayvert,  Qinghui Ge,  A. Ghysels,  G. Gidofalvi,  J. Gomes,  
 J. Gonthier,  A. Gunina,  D. Hait,  M. W. D. Hanson-Heine,  
 P. H. P. Harbach,  A. W. Hauser,  M. F. Herbst,  J. E. Herr,  
 E. G. Hohenstein,  Z. C. Holden,  Kerwin Hui,  B. C. Huynh,  T.-C. Jagau,  
 Hyunjun Ji,  B. Kaduk,  K. Khistyaev,  Jaehoon Kim,  P. Klunzinger,  K. Koh,  
 D. Kosenkov,  L. Koulias,  T. Kowalczyk,  C. M. Krauter,  A. Kunitsa,  
 Ka Un Lao,  A. Laurent,  K. V. Lawler,  Joonho Lee,  D. Lefrancois,  
 S. Lehtola,  D. S. Levine,  Yi-Pei Li,  You-Sheng Lin,  Fenglai Liu,  
 E. Livshits,  A. Luenser,  P. Manohar,  E. Mansoor,  S. F. Manzer,  
 Shan-Ping Mao,  Yuezhi Mao,  N. Mardirossian,  A. V. Marenich,  
 T. Markovich,  L. A. Martinez-Martinez,  S. A. Maurer,  N. J. Mayhall,  
 S. C. McKenzie,  J.-M. Mewes,  P. Morgante,  A. F. Morrison,  
 J. W. Mullinax,  K. Nanda,  T. S. Nguyen-Beck,  R. Olivares-Amaya,  
 J. A. Parkhill,  Zheng Pei,  T. M. Perrine,  F. Plasser,  P. Pokhilko,  
 S. Prager,  A. Prociuk,  E. Ramos,  D. R. Rehn,  F. Rob,  M. Scheurer,  
 M. Schneider,  N. Sergueev,  S. M. Sharada,  S. Sharma,  D. W. Small,  
 T. Stauch,  T. Stein,  Yu-Chuan Su,  A. J. W. Thom,  A. Tkatchenko,  
 T. Tsuchimochi,  N. M. Tubman,  L. Vogt,  M. L. Vidal,  O. Vydrov,  
 M. A. Watson,  J. Wenzel,  M. de Wergifosse,  T. A. Wesolowski,  A. White,  
 J. Witte,  A. Yamada,  Jun Yang,  K. Yao,  S. Yeganeh,  S. R. Yost,  
 Zhi-Qiang You,  A. Zech,  Igor Ying Zhang,  Xing Zhang,  Yan Zhao,  
 Ying Zhu,  B. R. Brooks,  G. K. L. Chan,  C. J. Cramer,  M. S. Gordon,  
 W. J. Hehre,  A. Klamt,  M. W. Schmidt,  C. D. Sherrill,  D. G. Truhlar,  
 A. Aspuru-Guzik,  R. Baer,  A. T. Bell,  N. A. Besley,  Jeng-Da Chai,  
 A. E. DePrince, III,  R. A. DiStasio Jr.,  A. Dreuw,  B. D. Dunietz,  
 T. R. Furlani,  Chao-Ping Hsu,  Yousung Jung,  Jing Kong,  D. S. Lambrecht,  
 WanZhen Liang,  C. Ochsenfeld,  V. A. Rassolov,  L. V. Slipchenko,  
 J. E. Subotnik,  T. Van Voorhis,  J. M. Herbert,  A. I. Krylov,  
 P. M. W. Gill,  M. Head-Gordon

 Contributors to earlier versions of Q-Chem not listed above: 
 R. D. Adamson,  B. Austin,  J. Baker,  G. J. O. Beran,  K. Brandhorst,  
 S. T. Brown,  E. F. C. Byrd,  A. K. Chakraborty,  C.-L. Cheng,  
 Siu Hung Chien,  D. M. Chipman,  D. L. Crittenden,  H. Dachsel,  
 R. J. Doerksen,  A. D. Dutoi,  L. Fusti-Molnar,  W. A. Goddard III,  
 A. Golubeva-Zadorozhnaya,  S. R. Gwaltney,  G. Hawkins,  A. Heyden,  
 S. Hirata,  G. Kedziora,  F. J. Keil,  C. Kelley,  Jihan Kim,  R. A. King,  
 R. Z. Khaliullin,  P. P. Korambath,  W. Kurlancheek,  A. M. Lee,  M. S. Lee,  
 S. V. Levchenko,  Ching Yeh Lin,  D. Liotard,  R. C. Lochan,  I. Lotan,  
 P. E. Maslen,  N. Nair,  D. P. O'Neill,  D. Neuhauser,  E. Neuscamman,  
 C. M. Oana,  R. Olson,  B. Peters,  R. Peverati,  P. A. Pieniazek,  
 Y. M. Rhee,  J. Ritchie,  M. A. Rohrdanz,  E. Rosta,  N. J. Russ,  
 H. F. Schaefer III,  N. E. Schultz,  N. Shenvi,  A. C. Simmonett,  A. Sodt,  
 D. Stuck,  K. S. Thanthiriwatte,  V. Vanovschi,  Tao Wang,  A. Warshel,  
 C. F. Williams,  Q. Wu,  X. Xu,  W. Zhang

 Please cite Q-Chem as follows:
 Y. Shao et al., Mol. Phys. 113, 184-215 (2015)
 DOI: 10.1080/00268976.2014.952696

 Q-Chem 5.2.0 for Intel X86 EM64T Linux

 Parts of Q-Chem use Armadillo 8.300.2 (Tropical Shenanigans).
 http://arma.sourceforge.net/

 Q-Chem begins on Sun Sep 26 03:18:11 2021  

Host: cori01
0

     Scratch files written to /tmp/qchem56418//Frg1//
 May1019 |scratch|qcdevops|jenkins|workspace|build_RNUM -1
Processing $rem in /global/common/cori/software/qchem/5.2/config/preferences:
	 MEM_TOTAL  96000 
NAlpha2: 40
NElect   40
Mult     1
Symmetry turned off for PCM/SM12/SMD calculation

Checking the input file for inconsistencies... 	...done.

--------------------------------------------------------------
User input:
--------------------------------------------------------------
$molecule
1 1
 6	-2.0934969592	2.7141198922	1.4369282846
 6	-0.5294969592	1.2831198922	2.7129282846
 7	-0.7964969592	2.3991198922	2.0539282846
 7	-1.4514969592	0.3501198922	2.8479282846
 7	0.6655030408	1.0961198922	3.2369282846
 1	-0.0694969592	3.0981198922	2.0039282846
 1	-2.3694969592	0.5081198922	2.4669282846
 1	-1.2594969592	-0.5078801078	3.3399282846
 1	1.3585030408	1.8271198922	3.1669282846
 1	0.7695030408	0.3821198922	3.9359282846
 1	-2.8174969592	2.9371198922	2.2229282846
 1	-2.4584969592	1.8661198922	0.8529282846
 1	-2.0233669592	3.5874478922	0.7718082846
$end
$rem
EDA2		1
METHOD		WB97X-V
BASIS		DEF2-TZVPD
XC_GRID		000099000590
NL_GRID		1
UNRESTRICTED		FALSE
MAX_SCF_CYCLES		200
SYMMETRY		FALSE
SYM_IGNORE		TRUE
BASIS_LIN_DEP_THRESH		6
THRESH		14
SCF_CONVERGENCE		8
SCF_PRINT_FRGM		TRUE
SOLVENT_METHOD		SMD
!required keywords
JOBTYPE		SP
SYM_IGNORE		TRUE
SUBSYSTEM		TRUE
GEN_SCFMAN		TRUE
CHILD_INSTRUCTION		2
SYM_IGNORE		TRUE
SCFMI		0
RI_K 0		
PARI_K 0		
MIN_PARI_K 0		
IARI_K 0		
OCC_RI_K 0		
PURECART		1111
MEM_STATIC		2000
MEM_TOTAL		96000
GUI		0
CHILD_MP		1
CHILD_MP_ORDERS		232
FRZ_RELAX		0
FRZ_RELAX_METHOD		0
EDA_CLS_ELEC		1
EDA_CLS_DISP		0
FRZ_ORTHO_DECOMP		1
EDA2		FALSE
FRGM_METHOD		FALSE
CIS_N_ROOTS  0
LOCAL_CIS    0
CIS_RLX_DNS  1
$end
$smx
SOLVENT			WATER
$end
--------------------------------------------------------------
 ----------------------------------------------------------------
             Standard Nuclear Orientation (Angstroms)
    I     Atom           X                Y                Z
 ----------------------------------------------------------------
    1      C      -2.0934969592     2.7141198922     1.4369282846
    2      C      -0.5294969592     1.2831198922     2.7129282846
    3      N      -0.7964969592     2.3991198922     2.0539282846
    4      N      -1.4514969592     0.3501198922     2.8479282846
    5      N       0.6655030408     1.0961198922     3.2369282846
    6      H      -0.0694969592     3.0981198922     2.0039282846
    7      H      -2.3694969592     0.5081198922     2.4669282846
    8      H      -1.2594969592    -0.5078801078     3.3399282846
    9      H       1.3585030408     1.8271198922     3.1669282846
   10      H       0.7695030408     0.3821198922     3.9359282846
   11      H      -2.8174969592     2.9371198922     2.2229282846
   12      H      -2.4584969592     1.8661198922     0.8529282846
   13      H      -2.0233669592     3.5874478922     0.7718082846
 ----------------------------------------------------------------
 Nuclear Repulsion Energy =         194.43289985 hartrees
 There are       20 alpha and       20 beta electrons
 Requested basis set is def2-TZVPD
 There are 105 shells and 257 basis functions

 Total QAlloc Memory Limit  96000 MB
 Mega-Array Size      1956 MB
 MEM_STATIC part      2000 MB
 
 Citation of the SMD model:
 Marenich, A.V.; Cramer, C.J.; Truhlar, D.G.
 J. Phys. Chem. B 2009, 113, 6378-6396.
 iSolventCode=           1
 Solvent: water                                                           
 
 vradii
            1           2           3           4           5           6
    1   1.8500000   1.8500000   1.8900000   1.8900000   1.8900000   1.2000000
            7           8           9          10          11          12
    1   1.2000000   1.2000000   1.2000000   1.2000000   1.2000000   1.2000000
           13
    1   1.2000000
 Changing PCM_VDW_RADII to SMD_RADIUS
 Discretize the solute cavity surface with Lebedev spheres
	Using 110 Lebedev grid points for each H atom
	Using 194 Lebedev grid points for other atoms
	Atomic van der Waals radii will be scaled by 1.20
 Remove points where switching function is < 1.0e-08
 Keep 898 surface tesserae and discard 952 interior tesserae
 Molecular Surface Area = 113.844 Angst**2

                       Distance Matrix (Angstroms)
             C (  1)   C (  2)   N (  3)   N (  4)   N (  5)   H (  6)
   C (  2)  2.474274
   N (  3)  1.470416  1.323263
   N (  4)  2.826938  1.318635  2.293003
   N (  5)  3.670151  1.318169  2.287956  2.278053
   H (  6)  2.136708  2.002125  1.009767  3.189634  2.463436
   H (  7)  2.450207  2.011651  2.494149  1.006404  3.185886  3.494634
   H (  8)  3.833830  2.033153  3.212291  1.007518  2.507798  4.025448
   H (  9)  3.961814  2.016580  2.491983  3.190516  1.009708  2.237676
   H ( 10)  4.458699  1.998732  3.172155  2.473380  1.004596  3.437034
   H ( 11)  1.091651  2.865442  2.098201  2.991513  4.068017  2.761410
   H ( 12)  1.092422  2.742358  2.118663  2.700431  4.004464  2.924029
   H ( 13)  1.100002  3.362963  2.135688  3.888136  4.417415  2.361180
             H (  7)   H (  8)   H (  9)   H ( 10)   H ( 11)   H ( 12)
   H (  8)  1.739680
   H (  9)  4.015936  3.512275
   H ( 10)  3.468019  2.294375  1.739628
   H ( 11)  2.481991  3.942471  4.422919  4.725353
   H ( 12)  2.111180  3.641242  4.463811  4.703948  1.775619
   H ( 13)  3.532067  4.893920  4.502488  5.299614  1.777447  1.777326

 
 A cutoff of  1.0D-14 yielded   5443 shell pairs
 There are     33193 function pairs (     41532 Cartesian)
 Smallest overlap matrix eigenvalue = 1.65E-05

 Scale SEOQF with 1.000000e-01/1.000000e-01/1.000000e-01

 Standard Electronic Orientation quadrupole field applied
 Nucleus-field energy     =    -0.0000000159 hartrees
 Guess from superposition of atomic densities
 Warning:  Energy on first SCF cycle will be non-variational
 SAD guess density has 40.388232 electrons

 -----------------------------------------------------------------------
  General SCF calculation program by
  Eric Jon Sundstrom, Paul Horn, Yuezhi Mao, Dmitri Zuev, Alec White,
  David Stuck, Shaama M.S., Shane Yost, Joonho Lee, David Small,
  Daniel Levine, Susi Lehtola, Hugh Burton, Evgeny Epifanovsky
 -----------------------------------------------------------------------
 Exchange:     0.1670 Hartree-Fock + 1.0000 wB97X-V + LR-HF
 Correlation:  1.0000 wB97X-V
 Using Euler-Maclaurin-Lebedev (99,590) quadrature formula
 Nonlocal Correlation:  VV10 with C = 0.0100 and b = 6.00 and scale = 1.00000
 Grid used for NLC:  SG-1 standard quadrature
Energy prior to optimization (guess energy) = -244.726779652256
Begin Timing: Total SCF Calculation
begin iterations for algorithm: DIIS         
the SCF tolerance is set to 1.00e-08
    1    -244.7267796523      7.93e-03     00000 
    2    -244.9665176946      6.22e-03     00000 
    3    -245.2053226180      3.30e-04     00000 
    4    -245.2062645881      1.72e-04     00000 
    5    -245.2064940579      4.62e-05     00000 
    6    -245.2065124611      1.91e-05     00000 
    7    -245.2065154936      3.40e-06     00000 
    8    -245.2065156818      9.23e-07     00000 
    9    -245.2065156956      3.96e-07     00000 
   10    -245.2065156979      1.10e-07     00000 
   11    -245.2065156982      4.93e-08     00000 
   12    -245.2065156982      1.55e-08     00000 
   13    -245.2065156982      2.21e-09     00000 Convergence criterion met
Timing for Total SCF: 722.00s (wall), 1433.90s (cpu)
(3)  G-ENP(liq) elect-nuc-pol free energy of system     -245.206515698 a.u.
(4)  G-CDS(liq) cavity-dispersion-solvent structure 
     free energy                                                2.6829 kcal/mol
(6)  G-S(liq) free energy of system                     -245.202240175 a.u.
E_pcm = -0.1081952334
E_cds = 0.0042755236
Multipole orders to be included
        2
        3
computing dipole RHS
computing quadrupole RHS
total number of RHS in solve_reponses: 8
RHS batch sizes
        8
Beginning Block Conjugate Gradient Iterations. Batch Number: 0
computing hessian-vector products by finite difference
              1      4.86e-01     00000 Conjugate Gradient Iteration
computing hessian-vector products by finite difference
              2      1.81e-01     00000 Conjugate Gradient Iteration
computing hessian-vector products by finite difference
              3      5.08e-02     00000 Conjugate Gradient Iteration
computing hessian-vector products by finite difference
              4      1.34e-02     00000 Conjugate Gradient Iteration
computing hessian-vector products by finite difference
              5      1.79e-03     00000 Conjugate Gradient Iteration
computing hessian-vector products by finite difference
              6      2.88e-04     00000 Conjugate Gradient Iteration
computing hessian-vector products by finite difference
              7      4.22e-05     00000 Conjugate Gradient Iteration
computing hessian-vector products by finite difference
              8      5.95e-06     00000 Conjugate Gradient Iteration
computing hessian-vector products by finite difference
              9      8.49e-07     00000 Conjugate Gradient Iteration
computing hessian-vector products by finite difference
             10      1.03e-07     00000 Conjugate Gradient Iteration
computing hessian-vector products by finite difference
             11      1.29e-08     00000 Conjugate Gradient Iteration
computing hessian-vector products by finite difference
             12      1.55e-09     00000 CG Converged
batch 0 complete
Done Calculating Responses
TESTING ORTHOGONALIZATION OF MULTIPOLE BASIS
Multipole virts passed orthogonality test
Virts Per Order
           60
          100
 
 --------------------------------------------------------------
 
                    Orbital Energies (a.u.)
 --------------------------------------------------------------
 
 Alpha MOs
 -- Occupied --
-14.4554 -14.4482 -14.4442 -10.4214 -10.3060  -1.1745  -1.0552  -1.0437
 -0.8523  -0.7662  -0.7231  -0.6872  -0.6176  -0.6116  -0.5961  -0.5697
 -0.5246  -0.5069  -0.4006  -0.3773
 -- Virtual --
  0.0586   0.0848   0.0979   0.1025   0.1243   0.1256   0.1370   0.1505
  0.1743   0.1805   0.1902   0.1980   0.2017   0.2129   0.2203   0.2392
  0.2439   0.2457   0.2513   0.2726   0.2805   0.2840   0.2960   0.3033
  0.3151   0.3195   0.3255   0.3278   0.3387   0.3430   0.3535   0.3545
  0.3654   0.3767   0.3818   0.4007   0.4088   0.4107   0.4165   0.4351
  0.4440   0.4472   0.4506   0.4636   0.4693   0.4770   0.4904   0.4970
  0.4995   0.5105   0.5204   0.5260   0.5302   0.5378   0.5511   0.5545
  0.5611   0.5660   0.5838   0.5991   0.6087   0.6241   0.6462   0.6504
  0.6609   0.6737   0.6843   0.7056   0.7195   0.7369   0.7532   0.7607
  0.7870   0.8037   0.8167   0.8351   0.8419   0.8466   0.8558   0.8763
  0.8823   0.8932   0.9046   0.9226   0.9374   0.9720   0.9818   1.0091
  1.0222   1.0625   1.0726   1.0829   1.0970   1.1245   1.1347   1.1459
  1.1604   1.1793   1.2402   1.2475   1.2743   1.3348   1.3733   1.4178
  1.4304   1.4450   1.4860   1.4955   1.5585   1.5848   1.6433   1.6715
  1.6794   1.7402   1.7502   1.7857   1.8448   1.8571   1.8626   1.8855
  1.9009   1.9209   1.9283   1.9806   2.0032   2.0146   2.0339   2.0674
  2.0985   2.1168   2.1497   2.1933   2.2024   2.2205   2.2815   2.3132
  2.3316   2.3579   2.3878   2.4122   2.4463   2.4770   2.5106   2.5240
  2.5862   2.6014   2.6290   2.6356   2.6503   2.6605   2.7151   2.7540
  2.7944   2.8192   2.8346   2.8918   2.9064   2.9208   2.9326   2.9716
  3.0521   3.1073   3.1413   3.1691   3.1792   3.2083   3.2235   3.2613
  3.2801   3.2869   3.3096   3.3350   3.3788   3.3975   3.4194   3.4211
  3.4553   3.4883   3.5374   3.5943   3.6109   3.6526   3.6767   3.7493
  3.8091   3.8600   3.9311   3.9638   4.0609   4.1054   4.1462   4.2481
  4.2749   4.3334   4.3406   4.3775   4.4567   4.5294   4.5797   4.6266
  4.6648   4.8461   4.8618   4.8735   4.9453   5.0003   5.0326   5.0543
  5.1121   5.1241   5.1356   5.1653   5.1831   5.2101   5.2778   5.3413
  5.3885   5.4268   5.4416   5.4800   5.5103   5.5431   5.5730   5.6552
  5.6941   5.7811   5.8140   5.9029   6.1709   6.1935   6.3705   6.4824
 22.6692  23.6710  32.3382  32.4532  32.8142
 --------------------------------------------------------------
 
          Ground-State Mulliken Net Atomic Charges

     Atom                 Charge (a.u.)
  ----------------------------------------
      1 C                    -0.799675
      2 C                     0.390564
      3 N                    -0.096074
      4 N                    -0.279920
      5 N                    -0.317512
      6 H                     0.276028
      7 H                     0.216053
      8 H                     0.236299
      9 H                     0.260394
     10 H                     0.268946
     11 H                     0.281012
     12 H                     0.294453
     13 H                     0.269431
  ----------------------------------------
  Sum of atomic charges =     1.000000

 -----------------------------------------------------------------
                    Cartesian Multipole Moments
 -----------------------------------------------------------------
    Charge (ESU x 10^10)
                 4.8032
    Dipole Moment (Debye)
         X      -3.2255      Y       6.9342      Z      13.2001
       Tot      15.2555
    Quadrupole Moments (Debye-Ang)
        XX     -16.0588     XY      -2.5908     YY      -8.6540
        XZ      -3.5444     YZ      12.2136     ZZ       9.9570
    Octopole Moments (Debye-Ang^2)
       XXX      56.6965    XXY     -28.1342    XYY      16.6829
       YYY     -81.6816    XXZ     -41.7089    XYZ       4.6380
       YYZ     -34.4346    XZZ      28.3392    YZZ     -26.5824
       ZZZ     -89.8007
    Hexadecapole Moments (Debye-Ang^3)
      XXXX    -298.0065   XXXY     130.5384   XXYY    -120.7453
      XYYY     126.5012   YYYY    -459.1985   XXXZ     104.4279
      XXYZ     -63.8998   XYYZ      49.4846   YYYZ    -199.5553
      XXZZ    -180.5189   XYZZ      84.1534   YYZZ    -229.9864
      XZZZ     182.8379   YZZZ    -267.7182   ZZZZ    -752.4179
 -----------------------------------------------------------------
Archival summary:
1\1\nid00510\SP\ProcedureUnspecified\BasisUnspecified\328(1+,1)\meili\SunSep2606:45:552021SunSep2606:45:552021\0\\#,ProcedureUnspecified,BasisUnspecified,\\1,1\C\N,1,1.31817\H,2,1.0046,1,118.117\H,2,1.00971,1,119.468,3,-160.442,0\N,1,1.31863,2,119.525,3,-16.9861,0\H,5,1.0064,1,119.206,2,178.405,0\H,5,1.00752,1,121.285,2,-0.377726,0\N,1,1.32326,2,120.035,3,163.191,0\H,8,1.00977,1,117.594,2,-2.24507,0\C,8,1.47042,1,124.584,2,-179.668,0\H,10,1.09165,8,109.065,1,72.1996,0\H,10,1.09242,8,110.655,1,-47.4204,0\H,10,1.1,8,111.565,1,-168.099,0\\\@

 Total job time:  12465.38s(wall), 24698.85s(cpu) 
 Sun Sep 26 06:45:56 2021

        *************************************************************
        *                                                           *
        *  Thank you very much for using Q-Chem.  Have a nice day.  *
        *                                                           *
        *************************************************************


Done Job For Fragment 0
calling putenv with: QCSCRATCH=/global/cscratch1/sd/meili 
calling putenv with: QCLOCALSCR=/tmp 
calling putenv with: QCTHREADS=32 
Creating input file /tmp/qchem56418/Frg2.input
using default PutDataFrgm: nothing
calling putenv with: QCSCRATCH=/tmp/qchem56418/ 
calling putenv with: QCLOCALSCR=/tmp/qchem56418/ 
Spawning Job For Fragment 1
                  Welcome to Q-Chem
     A Quantum Leap Into The Future Of Chemistry


 Q-Chem 5.2, Q-Chem, Inc., Pleasanton, CA (2019)

 License issued to: National Energy Research Scientific Computing Center

 Yihan Shao,  Zhengting Gan,  E. Epifanovsky,  A. T. B. Gilbert,  M. Wormit,  
 J. Kussmann,  A. W. Lange,  A. Behn,  Jia Deng,  Xintian Feng,  D. Ghosh,  
 M. Goldey,  P. R. Horn,  L. D. Jacobson,  I. Kaliman,  T. Kus,  A. Landau,  
 Jie Liu,  E. I. Proynov,  R. M. Richard,  R. P. Steele,  E. J. Sundstrom,  
 H. L. Woodcock III,  P. M. Zimmerman,  D. Zuev,  B. Albrecht,  E. Alguire,  
 S. A. Baeppler,  D. Barton,  Z. Benda,  Y. A. Bernard,  E. J. Berquist,  
 K. B. Bravaya,  H. Burton,  D. Casanova,  Chun-Min Chang,  Yunqing Chen,  
 A. Chien,  K. D. Closser,  M. P. Coons,  S. Coriani,  S. Dasgupta,  
 A. L. Dempwolff,  M. Diedenhofen,  Hainam Do,  R. G. Edgar,  Po-Tung Fang,  
 S. Faraji,  S. Fatehi,  Qingguo Feng,  K. D. Fenk,  J. Fosso-Tande,  
 J. Gayvert,  Qinghui Ge,  A. Ghysels,  G. Gidofalvi,  J. Gomes,  
 J. Gonthier,  A. Gunina,  D. Hait,  M. W. D. Hanson-Heine,  
 P. H. P. Harbach,  A. W. Hauser,  M. F. Herbst,  J. E. Herr,  
 E. G. Hohenstein,  Z. C. Holden,  Kerwin Hui,  B. C. Huynh,  T.-C. Jagau,  
 Hyunjun Ji,  B. Kaduk,  K. Khistyaev,  Jaehoon Kim,  P. Klunzinger,  K. Koh,  
 D. Kosenkov,  L. Koulias,  T. Kowalczyk,  C. M. Krauter,  A. Kunitsa,  
 Ka Un Lao,  A. Laurent,  K. V. Lawler,  Joonho Lee,  D. Lefrancois,  
 S. Lehtola,  D. S. Levine,  Yi-Pei Li,  You-Sheng Lin,  Fenglai Liu,  
 E. Livshits,  A. Luenser,  P. Manohar,  E. Mansoor,  S. F. Manzer,  
 Shan-Ping Mao,  Yuezhi Mao,  N. Mardirossian,  A. V. Marenich,  
 T. Markovich,  L. A. Martinez-Martinez,  S. A. Maurer,  N. J. Mayhall,  
 S. C. McKenzie,  J.-M. Mewes,  P. Morgante,  A. F. Morrison,  
 J. W. Mullinax,  K. Nanda,  T. S. Nguyen-Beck,  R. Olivares-Amaya,  
 J. A. Parkhill,  Zheng Pei,  T. M. Perrine,  F. Plasser,  P. Pokhilko,  
 S. Prager,  A. Prociuk,  E. Ramos,  D. R. Rehn,  F. Rob,  M. Scheurer,  
 M. Schneider,  N. Sergueev,  S. M. Sharada,  S. Sharma,  D. W. Small,  
 T. Stauch,  T. Stein,  Yu-Chuan Su,  A. J. W. Thom,  A. Tkatchenko,  
 T. Tsuchimochi,  N. M. Tubman,  L. Vogt,  M. L. Vidal,  O. Vydrov,  
 M. A. Watson,  J. Wenzel,  M. de Wergifosse,  T. A. Wesolowski,  A. White,  
 J. Witte,  A. Yamada,  Jun Yang,  K. Yao,  S. Yeganeh,  S. R. Yost,  
 Zhi-Qiang You,  A. Zech,  Igor Ying Zhang,  Xing Zhang,  Yan Zhao,  
 Ying Zhu,  B. R. Brooks,  G. K. L. Chan,  C. J. Cramer,  M. S. Gordon,  
 W. J. Hehre,  A. Klamt,  M. W. Schmidt,  C. D. Sherrill,  D. G. Truhlar,  
 A. Aspuru-Guzik,  R. Baer,  A. T. Bell,  N. A. Besley,  Jeng-Da Chai,  
 A. E. DePrince, III,  R. A. DiStasio Jr.,  A. Dreuw,  B. D. Dunietz,  
 T. R. Furlani,  Chao-Ping Hsu,  Yousung Jung,  Jing Kong,  D. S. Lambrecht,  
 WanZhen Liang,  C. Ochsenfeld,  V. A. Rassolov,  L. V. Slipchenko,  
 J. E. Subotnik,  T. Van Voorhis,  J. M. Herbert,  A. I. Krylov,  
 P. M. W. Gill,  M. Head-Gordon

 Contributors to earlier versions of Q-Chem not listed above: 
 R. D. Adamson,  B. Austin,  J. Baker,  G. J. O. Beran,  K. Brandhorst,  
 S. T. Brown,  E. F. C. Byrd,  A. K. Chakraborty,  C.-L. Cheng,  
 Siu Hung Chien,  D. M. Chipman,  D. L. Crittenden,  H. Dachsel,  
 R. J. Doerksen,  A. D. Dutoi,  L. Fusti-Molnar,  W. A. Goddard III,  
 A. Golubeva-Zadorozhnaya,  S. R. Gwaltney,  G. Hawkins,  A. Heyden,  
 S. Hirata,  G. Kedziora,  F. J. Keil,  C. Kelley,  Jihan Kim,  R. A. King,  
 R. Z. Khaliullin,  P. P. Korambath,  W. Kurlancheek,  A. M. Lee,  M. S. Lee,  
 S. V. Levchenko,  Ching Yeh Lin,  D. Liotard,  R. C. Lochan,  I. Lotan,  
 P. E. Maslen,  N. Nair,  D. P. O'Neill,  D. Neuhauser,  E. Neuscamman,  
 C. M. Oana,  R. Olson,  B. Peters,  R. Peverati,  P. A. Pieniazek,  
 Y. M. Rhee,  J. Ritchie,  M. A. Rohrdanz,  E. Rosta,  N. J. Russ,  
 H. F. Schaefer III,  N. E. Schultz,  N. Shenvi,  A. C. Simmonett,  A. Sodt,  
 D. Stuck,  K. S. Thanthiriwatte,  V. Vanovschi,  Tao Wang,  A. Warshel,  
 C. F. Williams,  Q. Wu,  X. Xu,  W. Zhang

 Please cite Q-Chem as follows:
 Y. Shao et al., Mol. Phys. 113, 184-215 (2015)
 DOI: 10.1080/00268976.2014.952696

 Q-Chem 5.2.0 for Intel X86 EM64T Linux

 Parts of Q-Chem use Armadillo 8.300.2 (Tropical Shenanigans).
 http://arma.sourceforge.net/

 Q-Chem begins on Sun Sep 26 06:45:59 2021  

Host: cori01
0

     Scratch files written to /tmp/qchem56418//Frg2//
 May1019 |scratch|qcdevops|jenkins|workspace|build_RNUM -1
Processing $rem in /global/common/cori/software/qchem/5.2/config/preferences:
	 MEM_TOTAL  96000 
NAlpha2: 50
NElect   50
Mult     1
Symmetry turned off for PCM/SM12/SMD calculation

Checking the input file for inconsistencies... 	...done.

--------------------------------------------------------------
User input:
--------------------------------------------------------------
$molecule
0 1
 6	1.1015030408	-0.0658801078	-4.0660717154
 6	0.3335030408	-0.7698801078	-0.4290717154
 6	0.3625030408	-2.1568801078	-0.4030717154
 6	0.5735030408	-0.0938801078	-1.6180717154
 6	0.8345030408	-0.7978801078	-2.7880717154
 6	0.6305030408	-2.8668801078	-1.5660717154
 6	0.8735030408	-2.1868801078	-2.7540717154
 1	0.1225030408	-0.2158801078	0.4729282846
 1	0.1695030408	-2.6858801078	0.5209282846
 1	0.5415030408	0.9851198922	-1.6320717154
 1	0.6485030408	-3.9488801078	-1.5480717154
 1	0.4665030408	0.8211198922	-4.1240717154
 1	0.8225030408	-0.7258801078	-4.8780717154
 1	1.0865030408	-2.7478801078	-3.6540717154
 1	2.1560830408	0.2217988922	-4.1889517154
$end
$rem
EDA2		1
METHOD		WB97X-V
BASIS		DEF2-TZVPD
XC_GRID		000099000590
NL_GRID		1
UNRESTRICTED		FALSE
MAX_SCF_CYCLES		200
SYMMETRY		FALSE
SYM_IGNORE		TRUE
BASIS_LIN_DEP_THRESH		6
THRESH		14
SCF_CONVERGENCE		8
SCF_PRINT_FRGM		TRUE
SOLVENT_METHOD		SMD
!required keywords
JOBTYPE		SP
SYM_IGNORE		TRUE
SUBSYSTEM		TRUE
GEN_SCFMAN		TRUE
CHILD_INSTRUCTION		2
SYM_IGNORE		TRUE
SCFMI		0
RI_K 0		
PARI_K 0		
MIN_PARI_K 0		
IARI_K 0		
OCC_RI_K 0		
PURECART		1111
MEM_STATIC		2000
MEM_TOTAL		96000
GUI		0
CHILD_MP		1
CHILD_MP_ORDERS		232
FRZ_RELAX		0
FRZ_RELAX_METHOD		0
EDA_CLS_ELEC		1
EDA_CLS_DISP		0
FRZ_ORTHO_DECOMP		1
EDA2		FALSE
FRGM_METHOD		FALSE
CIS_N_ROOTS  0
LOCAL_CIS    0
CIS_RLX_DNS  1
$end
$smx
SOLVENT			WATER
$end
--------------------------------------------------------------
 ----------------------------------------------------------------
             Standard Nuclear Orientation (Angstroms)
    I     Atom           X                Y                Z
 ----------------------------------------------------------------
    1      C       1.1015030408    -0.0658801078    -4.0660717154
    2      C       0.3335030408    -0.7698801078    -0.4290717154
    3      C       0.3625030408    -2.1568801078    -0.4030717154
    4      C       0.5735030408    -0.0938801078    -1.6180717154
    5      C       0.8345030408    -0.7978801078    -2.7880717154
    6      C       0.6305030408    -2.8668801078    -1.5660717154
    7      C       0.8735030408    -2.1868801078    -2.7540717154
    8      H       0.1225030408    -0.2158801078     0.4729282846
    9      H       0.1695030408    -2.6858801078     0.5209282846
   10      H       0.5415030408     0.9851198922    -1.6320717154
   11      H       0.6485030408    -3.9488801078    -1.5480717154
   12      H       0.4665030408     0.8211198922    -4.1240717154
   13      H       0.8225030408    -0.7258801078    -4.8780717154
   14      H       1.0865030408    -2.7478801078    -3.6540717154
   15      H       2.1560830408     0.2217988922    -4.1889517154
 ----------------------------------------------------------------
 Nuclear Repulsion Energy =         270.59550126 hartrees
 There are       25 alpha and       25 beta electrons
 Requested basis set is def2-TZVPD
 There are 131 shells and 331 basis functions

 Total QAlloc Memory Limit  96000 MB
 Mega-Array Size      1956 MB
 MEM_STATIC part      2000 MB
 
 Citation of the SMD model:
 Marenich, A.V.; Cramer, C.J.; Truhlar, D.G.
 J. Phys. Chem. B 2009, 113, 6378-6396.
 iSolventCode=           1
 Solvent: water                                                           
 
 vradii
            1           2           3           4           5           6
    1   1.8500000   1.8500000   1.8500000   1.8500000   1.8500000   1.8500000
            7           8           9          10          11          12
    1   1.8500000   1.2000000   1.2000000   1.2000000   1.2000000   1.2000000
           13          14          15
    1   1.2000000   1.2000000   1.2000000
 Changing PCM_VDW_RADII to SMD_RADIUS
 Discretize the solute cavity surface with Lebedev spheres
	Using 110 Lebedev grid points for each H atom
	Using 194 Lebedev grid points for other atoms
	Atomic van der Waals radii will be scaled by 1.20
 Remove points where switching function is < 1.0e-08
 Keep 1094 surface tesserae and discard 1144 interior tesserae
 Molecular Surface Area = 131.656 Angst**2

                       Distance Matrix (Angstroms)
             C (  1)   C (  2)   C (  3)   C (  4)   C (  5)   C (  6)
   C (  2)  3.783280
   C (  3)  4.282052  1.387547
   C (  4)  2.504450  1.388631  2.403480
   C (  5)  1.496796  2.411777  2.785299  1.390193
   C (  6)  3.783840  2.403828  1.388702  2.774073  2.411568
   C (  7)  2.504390  2.775809  2.406080  2.400239  1.389963  1.390249
   H (  8)  4.645800  1.079371  2.143002  2.142561  3.388184  3.382807
   H (  9)  5.364102  2.144866  1.082066  3.384819  3.867331  2.144959
   H ( 10)  2.709715  2.137872  3.378557  1.079565  2.145058  3.853593
   H ( 11)  4.650078  3.384882  2.145713  3.856365  3.391312  1.082299
   H ( 12)  1.092409  4.025170  4.767089  2.669964  2.131075  4.491281
   H ( 13)  1.082952  4.476009  4.720698  3.330019  2.091274  3.948429
   H ( 14)  2.713502  3.857476  3.382670  3.384107  2.148479  2.140524
   H ( 15)  1.099999  4.294406  4.817461  3.035397  2.179170  4.329761
             C (  7)   H (  8)   H (  9)   H ( 10)   H ( 11)   H ( 12)
   H (  8)  3.855175
   H (  9)  3.386775  2.470913
   H ( 10)  3.380931  2.459469  4.272006
   H ( 11)  2.147022  4.277430  2.470905  4.935875
   H ( 12)  3.330257  4.725052  5.827803  2.498517  5.424187
   H ( 13)  2.578468  5.420637  5.780762  3.680081  4.637554  1.757402
   H ( 14)  1.081707  4.936846  4.274969  4.280280  2.463632  3.652815
   H ( 15)  3.083120  5.104913  5.880822  3.118840  5.161551  1.793900
             H ( 13)   H ( 14)
   H ( 14)  2.378309
   H ( 15)  1.775223  3.201420
 
 A cutoff of  1.0D-14 yielded   8365 shell pairs
 There are     54509 function pairs (     69463 Cartesian)
 Smallest overlap matrix eigenvalue = 5.41E-07
 Linear dependence detected in AO basis
 Tighter screening thresholds may be required for diffuse basis sets
 Use S2THRESH > 14 and THRESH = 14 in case of SCF convergence issues
 Number of orthogonalized atomic orbitals = 330
 Maximum deviation from orthogonality = 9.897E-11

 Scale SEOQF with 1.000000e-01/1.000000e-01/1.000000e-01

 Standard Electronic Orientation quadrupole field applied
 Nucleus-field energy     =    -0.0000000208 hartrees
 Guess from superposition of atomic densities
 Warning:  Energy on first SCF cycle will be non-variational
 SAD guess density has 49.913408 electrons

 -----------------------------------------------------------------------
  General SCF calculation program by
  Eric Jon Sundstrom, Paul Horn, Yuezhi Mao, Dmitri Zuev, Alec White,
  David Stuck, Shaama M.S., Shane Yost, Joonho Lee, David Small,
  Daniel Levine, Susi Lehtola, Hugh Burton, Evgeny Epifanovsky
 -----------------------------------------------------------------------
 Exchange:     0.1670 Hartree-Fock + 1.0000 wB97X-V + LR-HF
 Correlation:  1.0000 wB97X-V
 Using Euler-Maclaurin-Lebedev (99,590) quadrature formula
 Nonlocal Correlation:  VV10 with C = 0.0100 and b = 6.00 and scale = 1.00000
 Grid used for NLC:  SG-1 standard quadrature
Energy prior to optimization (guess energy) = -271.518669258929
Begin Timing: Total SCF Calculation
begin iterations for algorithm: DIIS         
the SCF tolerance is set to 1.00e-08
    1    -271.5186692589      1.99e-03     00000 
    2    -271.5601581460      1.30e-03     00000 
    3    -271.5848057791      1.56e-04     00000 
    4    -271.5855015670      4.75e-05     00000 
    5    -271.5855533977      2.16e-05     00000 
    6    -271.5855611751      5.30e-06     00000 
    7    -271.5855618745      1.31e-06     00000 
    8    -271.5855619093      4.78e-07     00000 
    9    -271.5855619143      8.39e-08     00000 
   10    -271.5855619146      3.82e-08     00000 
   11    -271.5855619146      1.41e-08     00000 
   12    -271.5855619146      4.92e-09     00000 Convergence criterion met
Timing for Total SCF: 1346.00s (wall), 2675.53s (cpu)
(3)  G-ENP(liq) elect-nuc-pol free energy of system     -271.585561915 a.u.
(4)  G-CDS(liq) cavity-dispersion-solvent structure 
     free energy                                                3.1557 kcal/mol
(6)  G-S(liq) free energy of system                     -271.580533059 a.u.
E_pcm = -0.0074057525
E_cds = 0.0050288560
Multipole orders to be included
        2
        3
computing dipole RHS
computing quadrupole RHS
total number of RHS in solve_reponses: 8
RHS batch sizes
        8
Beginning Block Conjugate Gradient Iterations. Batch Number: 0
computing hessian-vector products by finite difference
              1      6.32e-01     00000 Conjugate Gradient Iteration
computing hessian-vector products by finite difference
              2      1.97e-01     00000 Conjugate Gradient Iteration
computing hessian-vector products by finite difference
              3      4.70e-02     00000 Conjugate Gradient Iteration
computing hessian-vector products by finite difference
              4      1.16e-02     00000 Conjugate Gradient Iteration
computing hessian-vector products by finite difference
              5      2.06e-03     00000 Conjugate Gradient Iteration
computing hessian-vector products by finite difference
              6      5.60e-04     00000 Conjugate Gradient Iteration
computing hessian-vector products by finite difference
              7      1.46e-04     00000 Conjugate Gradient Iteration
computing hessian-vector products by finite difference
              8      2.34e-05     00000 Conjugate Gradient Iteration
computing hessian-vector products by finite difference
              9      3.10e-06     00000 Conjugate Gradient Iteration
computing hessian-vector products by finite difference
             10      6.36e-07     00000 Conjugate Gradient Iteration
computing hessian-vector products by finite difference
             11      1.15e-07     00000 Conjugate Gradient Iteration
computing hessian-vector products by finite difference
             12      1.57e-08     00000 Conjugate Gradient Iteration
computing hessian-vector products by finite difference
             13      3.07e-09     00000 CG Converged
batch 0 complete
Done Calculating Responses
TESTING ORTHOGONALIZATION OF MULTIPOLE BASIS
Multipole virts passed orthogonality test
Virts Per Order
           75
          125
 
 --------------------------------------------------------------
 
                    Orbital Energies (a.u.)
 --------------------------------------------------------------
 
 Alpha MOs
 -- Occupied --
-10.2751 -10.2671 -10.2665 -10.2639 -10.2633 -10.2625 -10.2519  -0.9949
 -0.9032  -0.8752  -0.8072  -0.7255  -0.7002  -0.6242  -0.5697  -0.5597
 -0.5302  -0.5245  -0.5078  -0.4799  -0.4701  -0.4353  -0.4342  -0.3468
 -0.3347
 -- Virtual --
  0.0677   0.0683   0.0726   0.0845   0.0899   0.1097   0.1160   0.1182
  0.1411   0.1585   0.1710   0.1738   0.1931   0.1950   0.2003   0.2078
  0.2281   0.2305   0.2401   0.2454   0.2556   0.2641   0.2668   0.2771
  0.2835   0.2879   0.2887   0.2977   0.2997   0.3071   0.3084   0.3164
  0.3245   0.3295   0.3365   0.3399   0.3570   0.3592   0.3715   0.3785
  0.3857   0.3882   0.3886   0.3944   0.3957   0.4057   0.4093   0.4145
  0.4166   0.4336   0.4352   0.4410   0.4472   0.4529   0.4562   0.4577
  0.4677   0.4755   0.4797   0.4873   0.4997   0.5018   0.5178   0.5228
  0.5251   0.5309   0.5391   0.5427   0.5477   0.5515   0.5553   0.5708
  0.5906   0.5936   0.6021   0.6060   0.6065   0.6252   0.6462   0.6502
  0.6664   0.6777   0.6874   0.6911   0.6917   0.7017   0.7270   0.7289
  0.7342   0.7355   0.7480   0.7631   0.7689   0.7710   0.7826   0.7914
  0.7957   0.8007   0.8043   0.8078   0.8135   0.8275   0.8304   0.8393
  0.8414   0.8419   0.8480   0.8566   0.8631   0.8808   0.8948   0.9002
  0.9144   0.9209   0.9382   0.9517   0.9553   1.0168   1.0277   1.0462
  1.0500   1.0647   1.0766   1.0864   1.0936   1.0979   1.1078   1.1476
  1.1710   1.1851   1.2564   1.2822   1.3005   1.3254   1.3524   1.3584
  1.3844   1.4412   1.4561   1.4662   1.4706   1.4915   1.5324   1.5466
  1.6047   1.6081   1.6272   1.6296   1.6720   1.6828   1.7449   1.7833
  1.8003   1.8057   1.8102   1.8237   1.8354   1.8740   1.8908   1.9163
  1.9249   1.9373   1.9589   1.9673   1.9902   2.0020   2.0168   2.0282
  2.0388   2.0516   2.0760   2.1004   2.1204   2.1289   2.1781   2.1820
  2.2008   2.2407   2.2532   2.2772   2.2928   2.3172   2.4031   2.4082
  2.4118   2.4176   2.4892   2.5157   2.5450   2.5584   2.5726   2.6094
  2.6287   2.6359   2.6717   2.6792   2.7032   2.7174   2.7651   2.7796
  2.7938   2.8200   2.8286   2.8562   2.8706   2.9082   2.9168   2.9204
  2.9451   2.9486   2.9688   2.9832   2.9976   3.0200   3.0252   3.0583
  3.0694   3.0952   3.1074   3.1453   3.1892   3.1933   3.2075   3.2292
  3.2349   3.2474   3.2950   3.3150   3.3412   3.3633   3.3736   3.3856
  3.4056   3.4501   3.4523   3.4590   3.4692   3.4820   3.4969   3.5102
  3.5171   3.5350   3.5466   3.5506   3.5695   3.5821   3.5947   3.6127
  3.6279   3.6412   3.6642   3.6983   3.7164   3.7610   3.7899   3.8222
  3.8476   3.9007   3.9189   3.9677   3.9734   4.0062   4.0471   4.0632
  4.1235   4.2080   4.2769   4.2904   4.3046   4.3251   4.3347   4.3396
  4.3616   4.3804   4.3996   4.4140   4.4483   4.4576   4.4873   4.5449
  4.6081   4.6468   4.7724   4.7751   4.8438   4.9037   4.9110   4.9554
  5.0363   5.0606   5.1769   5.2746   5.3874   5.3980   5.5144   5.5408
  5.6837   5.8587  22.5799  22.6903  22.9034  22.9127  23.0303  23.0973
 23.4467
 --------------------------------------------------------------
 
          Ground-State Mulliken Net Atomic Charges

     Atom                 Charge (a.u.)
  ----------------------------------------
      1 C                    -1.087221
      2 C                    -0.548453
      3 C                    -0.548940
      4 C                    -0.410344
      5 C                     0.833781
      6 C                    -0.569675
      7 C                    -0.422159
      8 H                     0.373671
      9 H                     0.396359
     10 H                     0.396286
     11 H                     0.370010
     12 H                     0.293354
     13 H                     0.298387
     14 H                     0.382564
     15 H                     0.242379
  ----------------------------------------
  Sum of atomic charges =     0.000000

 -----------------------------------------------------------------
                    Cartesian Multipole Moments
 -----------------------------------------------------------------
    Charge (ESU x 10^10)
                 0.0000
    Dipole Moment (Debye)
         X       0.0904      Y       0.2579      Z      -0.4609
       Tot       0.5358
    Quadrupole Moments (Debye-Ang)
        XX     -45.8246     XY      -0.1402     YY     -38.1527
        XZ      -2.4067     YZ       0.0148     ZZ     -36.1454
    Octopole Moments (Debye-Ang^2)
       XXX     -91.5250    XXY      59.1194    XYY     -26.1495
       YYY     138.5373    XXZ      86.3533    XYZ       3.3500
       YYZ      77.3784    XZZ     -19.0451    YZZ      44.7194
       ZZZ     227.9021
    Hexadecapole Moments (Debye-Ang^3)
      XXXX    -204.0977   XXXY     110.6365   XXYY    -177.2508
      XYYY      83.2329   YYYY    -686.5833   XXXZ     224.8026
      XXYZ     -90.6727   XYYZ      62.3918   YYYZ    -219.0464
      XXZZ    -287.6381   XYZZ      17.9262   YYZZ    -354.4341
      XZZZ     185.2413   YZZZ    -207.3374   ZZZZ   -1441.6481
 -----------------------------------------------------------------
Archival summary:
1\1\nid00510\SP\ProcedureUnspecified\BasisUnspecified\78\meili\SunSep2614:23:272021SunSep2614:23:272021\0\\#,ProcedureUnspecified,BasisUnspecified,\\0,1\C\C,1,1.38996\H,2,1.08171,1,120.228\C,1,1.39019,2,119.389,3,-179.304,0\H,4,1.07957,1,120.052,2,179.951,0\C,4,1.38863,1,120.434,2,-0.972646,0\H,6,1.07937,4,119.964,1,-179.426,0\C,6,1.38755,4,119.937,1,0.43615,0\H,8,1.08207,6,120.064,4,-179.607,0\C,8,1.3887,6,119.961,4,-0.0453733,0\H,10,1.0823,8,120.027,6,-179.694,0\C,1,1.4968,2,120.304,3,-0.673039,0\H,12,1.08295,1,107.229,2,27.2789,0\H,12,1.09241,1,109.8,2,144.109,0\H,12,1.1,1,113.222,2,-92.7613,0\\\@

 Total job time:  27450.96s(wall), 54536.26s(cpu) 
 Sun Sep 26 14:23:30 2021

        *************************************************************
        *                                                           *
        *  Thank you very much for using Q-Chem.  Have a nice day.  *
        *                                                           *
        *************************************************************


Done Job For Fragment 1
calling putenv with: QCSCRATCH=/global/cscratch1/sd/meili 
calling putenv with: QCLOCALSCR=/tmp 
calling putenv with: QCTHREADS=32 
Doing General SCFMI
 Exchange:     0.1670 Hartree-Fock + 1.0000 wB97X-V + LR-HF
 Correlation:  1.0000 wB97X-V
 Using Euler-Maclaurin-Lebedev (99,590) quadrature formula
 Nonlocal Correlation:  VV10 with C = 0.0100 and b = 6.00 and scale = 1.00000
 Grid used for NLC:  SG-1 standard quadrature
performing fock build before subrot guess so that all methods have access
Printing subrot_rss_gen Method Specification:
Occupied Subspace Method is 0
Virtual Subspace Method is 0
Energy of the unrelaxed supersystem initial determinant -516.677250841671
performing fock build before subrot guess so that all methods have access
Printing subrot_rss_gen Method Specification:
Occupied Subspace Method is 0
Virtual Subspace Method is 0
Energy of the unrelaxed supersystem initial determinant w/ solvent -516.793821959983
write pseudocanon occs and virts to disk
write pseudocanon orbital energies to disk
Tolerance of ortho_decomp_scf: 1.00e-06
GDM subspace size: 20
Beginning the Orthogonal Decomposition of the Initial Supersystem Wavefunction
    1    -516.6710754647      1.21e-02     ortho_decomp Preconditoned Steepest Descent
    2    -516.6715266278      2.63e-04     ortho_decomp BFGS Step
    3    -516.6715276848      1.73e-05     ortho_decomp BFGS Step
    4    -516.6715276864      6.03e-07     ortho_decomp 00000 Convergence criterion met
 Hartree-Fock
 Hartree-Fock
 Hartree-Fock
Doing General SCFMI
 Exchange:     0.1670 Hartree-Fock + 1.0000 wB97X-V + LR-HF
 Correlation:  1.0000 wB97X-V
 Using Euler-Maclaurin-Lebedev (99,590) quadrature formula
 Nonlocal Correlation:  VV10 with C = 0.0100 and b = 6.00 and scale = 1.00000
 Grid used for NLC:  SG-1 standard quadrature
performing fock build at end of subrot_r(subrot) constructor so that all methods have access
<S^2> of initial wavefunction before polarization iterations 0.0000000000
Beginning iterations for the determination of the polarized wavefunction
Energy prior to optimization (guess energy) = -516.793821959983
Begin Timing: Total SCF Calculation
begin iterations for algorithm: DIIS         
the SCF tolerance is set to 1.00e-08
    1    -516.7938219600      2.88e-05     00000 
    2    -516.7939043218      1.13e-05     00000 
    3    -516.7939151215      6.85e-06     00000 
    4    -516.7939181974      1.67e-06     00000 
    5    -516.7939185837      7.45e-07     00000 
    6    -516.7939186271      1.95e-07     00000 
    7    -516.7939186301      6.60e-08     00000 
    8    -516.7939186304      2.65e-08     00000 
    9    -516.7939186304      8.28e-09     00000 Convergence criterion met
write pseudocanon occs and virts to disk
write pseudocanon orbital energies to disk
Timing for Total SCF: 4647.00s (wall), 9243.29s (cpu)
<S^2> of polarized wavefunction after polarization iterations 0.0000000000
relaxing scfmi constraint to allow all rotations in the entire AO span
Doing General SCFMI
 Exchange:     0.1670 Hartree-Fock + 1.0000 wB97X-V + LR-HF
 Correlation:  1.0000 wB97X-V
 Using Euler-Maclaurin-Lebedev (99,590) quadrature formula
 Nonlocal Correlation:  VV10 with C = 0.0100 and b = 6.00 and scale = 1.00000
 Grid used for NLC:  SG-1 standard quadrature
performing fock build at end of subrot_r(subrot) constructor so that all methods have access
<S^2> of polarized wavefunction before ct-allowed iterations 0.0000000000
Beginning iterations for the determination of the CT-Allowed wavefunction
Energy prior to optimization (guess energy) = -516.793918630397
Begin Timing: Total SCF Calculation
begin iterations for algorithm: DIIS         
the SCF tolerance is set to 1.00e-08
    1    -516.7939186304      5.55e-05     00000 
    2    -516.7943441503      4.87e-06     00000 
    3    -516.7943538330      7.35e-07     00000 
    4    -516.7943540831      3.82e-07     00000 
    5    -516.7943541059      7.79e-08     00000 
    6    -516.7943541080      3.05e-08     00000 
    7    -516.7943541082      8.04e-09     00000 Convergence criterion met
write pseudocanon occs and virts to disk
write pseudocanon orbital energies to disk
Timing for Total SCF: 3490.00s (wall), 6943.48s (cpu)
<S^2> of ct_allowed wavefunction after ct-allowed iterations 0.0000000000

================================
        Results of EDA2         
================================
Basic EDA Quantities
--------------------
Fragment Energies (Ha):
1 -245.2022401746
2 -271.5805330586
--------------------
  E_prp (kJ/mol) = -0.0000
  E_sol (kJ/mol) = -4.0294
  E_frz (kJ/mol) = -2.0327
  E_pol (kJ/mol) = -0.2538
  E_vct (kJ/mol) = -1.1434
  E_int (kJ/mol) = -7.4593
--------------------


Initial Wavefunction Decomposition
--------------------
  --------------------
  Orthogonal Fragment Subspace Decomposition:
  --------------------
     E_elec   (ELEC)   (kJ/mol) = -3.1966
     E_pauli  (PAULI)  (kJ/mol) = 9.7111
     E_disp   (DISP)   (kJ/mol) = -8.5473
     --------------------
     Terms summing to E_pauli:
     --------------------
        E_kep_pauli       (kJ/mol) = 12.9936
        E_disp_free_pauli (kJ/mol) = -3.2825
  --------------------
  Classical Frozen Decomposition:
  --------------------
     E_cls_elec  (CLS ELEC)  (kJ/mol) = 0.9362
     E_cls_pauli (CLS PAULI) (kJ/mol) = -2.9689
    [E_mod_pauli (MOD PAULI) (kJ/mol) = 5.5784 (CLS PAULI - DISP from orthogonal decomposition) ]
  --------------------
--------------------

Simplified EDA Summary (kJ/mol)
--------------------
 PREPARATION     -0.0000
 SOLVATION       -4.0294
 FROZEN          6.5145      (does not include dispersion)
[PAULI           9.7111]     (if this is negligible, then frozen describes electrostatics)
 DISPERSION      -8.5473
 POLARIZATION    -0.2538
 CHARGE TRANSFER -1.1434
 TOTAL           -7.4593     (PRP + SOL + FRZ + DISP + POL + CT)
--------------------
 
 --------------------------------------------------------------
 
                    Orbital Energies (a.u.)
 --------------------------------------------------------------
 
 Alpha MOs
 -- Occupied --
-14.4560 -14.4487 -14.4447 -10.4218 -10.3062 -10.2764 -10.2684 -10.2684
-10.2655 -10.2645 -10.2641 -10.2529  -1.1750  -1.0557  -1.0441  -0.9963
 -0.9045  -0.8767  -0.8526  -0.8084  -0.7666  -0.7270  -0.7235  -0.7017
 -0.6876  -0.6261  -0.6180  -0.6120  -0.5974  -0.5710  -0.5700  -0.5608
 -0.5313  -0.5280  -0.5224  -0.5090  -0.5071  -0.4810  -0.4714  -0.4365
 -0.4355  -0.4012  -0.3777  -0.3482  -0.3360
 -- Virtual --
  0.0558   0.0658   0.0694   0.0718   0.0786   0.0858   0.0901   0.0959
  0.1067   0.1092   0.1202   0.1214   0.1273   0.1320   0.1440   0.1529
  0.1551   0.1624   0.1705   0.1719   0.1738   0.1842   0.1879   0.1886
  0.1967   0.2081   0.2104   0.2112   0.2190   0.2246   0.2351   0.2385
  0.2412   0.2426   0.2463   0.2536   0.2591   0.2664   0.2669   0.2722
  0.2747   0.2761   0.2802   0.2868   0.2902   0.2904   0.2961   0.2970
  0.3029   0.3076   0.3113   0.3156   0.3172   0.3205   0.3232   0.3276
  0.3288   0.3346   0.3379   0.3413   0.3470   0.3533   0.3544   0.3582
  0.3611   0.3634   0.3707   0.3751   0.3766   0.3782   0.3844   0.3849
  0.3908   0.3927   0.3949   0.3964   0.4029   0.4049   0.4074   0.4111
  0.4183   0.4238   0.4256   0.4286   0.4323   0.4390   0.4419   0.4439
  0.4496   0.4545   0.4558   0.4609   0.4660   0.4697   0.4715   0.4790
  0.4827   0.4839   0.4848   0.4896   0.4917   0.5008   0.5033   0.5054
  0.5113   0.5143   0.5166   0.5187   0.5248   0.5265   0.5308   0.5336
  0.5386   0.5404   0.5452   0.5507   0.5515   0.5574   0.5610   0.5634
  0.5743   0.5790   0.5823   0.5897   0.5940   0.5980   0.5996   0.6032
  0.6125   0.6168   0.6241   0.6293   0.6397   0.6406   0.6494   0.6514
  0.6554   0.6630   0.6696   0.6806   0.6841   0.6930   0.6966   0.7002
  0.7057   0.7120   0.7147   0.7192   0.7264   0.7338   0.7364   0.7427
  0.7453   0.7489   0.7529   0.7598   0.7616   0.7741   0.7797   0.7809
  0.7843   0.7871   0.7924   0.7971   0.8032   0.8096   0.8169   0.8177
  0.8231   0.8280   0.8289   0.8331   0.8463   0.8483   0.8514   0.8549
  0.8569   0.8655   0.8676   0.8744   0.8864   0.8903   0.8960   0.8995
  0.9015   0.9042   0.9142   0.9226   0.9260   0.9331   0.9373   0.9411
  0.9460   0.9591   0.9735   0.9792   0.9848   0.9932   1.0045   1.0105
  1.0203   1.0221   1.0287   1.0450   1.0540   1.0612   1.0708   1.0757
  1.0799   1.0914   1.1031   1.1070   1.1099   1.1171   1.1194   1.1255
  1.1378   1.1475   1.1552   1.1673   1.1724   1.1797   1.1873   1.1950
  1.2148   1.2295   1.2675   1.2781   1.2876   1.2963   1.3137   1.3229
  1.3375   1.3441   1.3638   1.3748   1.3868   1.4063   1.4235   1.4586
  1.4624   1.4694   1.4744   1.4854   1.4976   1.4991   1.5083   1.5110
  1.5372   1.5496   1.5564   1.5922   1.6014   1.6209   1.6274   1.6392
  1.6631   1.6695   1.6814   1.6878   1.6931   1.7044   1.7191   1.7770
  1.7818   1.7987   1.8020   1.8099   1.8191   1.8253   1.8392   1.8583
  1.8651   1.8807   1.8901   1.8980   1.9160   1.9216   1.9359   1.9417
  1.9488   1.9593   1.9622   1.9803   1.9953   1.9991   2.0000   2.0164
  2.0216   2.0312   2.0371   2.0476   2.0599   2.0660   2.0821   2.1031
  2.1181   2.1310   2.1366   2.1484   2.1560   2.1784   2.1883   2.1940
  2.2000   2.2194   2.2269   2.2410   2.2472   2.2604   2.2804   2.2921
  2.3080   2.3110   2.3220   2.3300   2.3479   2.3705   2.3935   2.4041
  2.4132   2.4247   2.4391   2.4410   2.4533   2.4721   2.5032   2.5241
  2.5311   2.5489   2.5642   2.5780   2.5802   2.5878   2.6173   2.6279
  2.6355   2.6460   2.6521   2.6603   2.6733   2.6899   2.6968   2.7092
  2.7185   2.7305   2.7455   2.7671   2.7820   2.7906   2.8043   2.8082
  2.8158   2.8360   2.8387   2.8556   2.8683   2.8771   2.8846   2.9145
  2.9190   2.9284   2.9352   2.9469   2.9521   2.9533   2.9681   2.9781
  3.0065   3.0128   3.0197   3.0276   3.0399   3.0575   3.0687   3.0949
  3.1032   3.1126   3.1320   3.1448   3.1552   3.1751   3.1966   3.1992
  3.2045   3.2099   3.2197   3.2356   3.2423   3.2513   3.2541   3.2671
  3.3016   3.3065   3.3137   3.3177   3.3250   3.3312   3.3534   3.3577
  3.3749   3.3891   3.3924   3.4080   3.4166   3.4296   3.4316   3.4383
  3.4573   3.4643   3.4678   3.4769   3.4798   3.4981   3.5016   3.5151
  3.5319   3.5386   3.5430   3.5571   3.5579   3.5632   3.5723   3.5885
  3.6021   3.6036   3.6199   3.6299   3.6454   3.6639   3.6710   3.6812
  3.6980   3.7079   3.7229   3.7326   3.7633   3.8049   3.8176   3.8267
  3.8507   3.8725   3.9057   3.9260   3.9431   3.9733   3.9769   3.9815
  4.0126   4.0521   4.0701   4.0851   4.1133   4.1369   4.1643   4.2276
  4.2703   4.2891   4.2972   4.3056   4.3166   4.3309   4.3409   4.3429
  4.3497   4.3568   4.3655   4.3849   4.3871   4.4071   4.4288   4.4554
  4.4625   4.4765   4.5033   4.5364   4.5587   4.5893   4.6211   4.6393
  4.6490   4.6807   4.7766   4.7792   4.8441   4.8727   4.8783   4.8862
  4.9079   4.9272   4.9603   4.9757   5.0114   5.0427   5.0503   5.0676
  5.0752   5.1212   5.1333   5.1511   5.1797   5.1878   5.1998   5.2694
  5.2889   5.2951   5.3536   5.3905   5.3967   5.4092   5.4381   5.4462
  5.4875   5.5186   5.5234   5.5446   5.5614   5.5825   5.6649   5.6984
  5.7070   5.7924   5.8251   5.8269   5.9118   6.1823   6.1973   6.3790
  6.4877  22.6380  22.6848  22.6955  22.9294  22.9488  23.0465  23.1254
 23.4549  23.6817  32.4487  32.5359  32.8457
 --------------------------------------------------------------
 
          Ground-State Mulliken Net Atomic Charges

     Atom                 Charge (a.u.)
  ----------------------------------------
      1 C                    -0.820553
      2 C                     0.352156
      3 N                    -0.098164
      4 N                    -0.276272
      5 N                    -0.291436
      6 H                     0.275662
      7 H                     0.219279
      8 H                     0.233963
      9 H                     0.253073
     10 H                     0.277619
     11 H                     0.305545
     12 H                     0.290702
     13 H                     0.268891
     14 C                    -1.109022
     15 C                    -0.324766
     16 C                    -0.517332
     17 C                    -0.568912
     18 C                     0.474447
     19 C                    -0.558865
     20 C                    -0.511897
     21 H                     0.642868
     22 H                     0.410385
     23 H                     0.424032
     24 H                     0.393022
     25 H                     0.299644
     26 H                     0.306626
     27 H                     0.404603
     28 H                     0.244702
  ----------------------------------------
  Sum of atomic charges =     1.000000

 -----------------------------------------------------------------
                    Cartesian Multipole Moments
 -----------------------------------------------------------------
    Charge (ESU x 10^10)
                 4.8032
    Dipole Moment (Debye)
         X      -3.1337      Y       7.1782      Z      12.7118
       Tot      14.9311
    Quadrupole Moments (Debye-Ang)
        XX     -61.8363     XY      -2.7956     YY     -46.6459
        XZ      -6.0329     YZ      12.3815     ZZ     -25.9293
    Octopole Moments (Debye-Ang^2)
       XXX     -34.8933    XXY      31.0422    XYY      -9.4825
       YYY      56.7264    XXZ      44.6641    XYZ       8.0184
       YYZ      42.8351    XZZ       9.4244    YZZ      18.0491
       ZZZ     137.7678
    Hexadecapole Moments (Debye-Ang^3)
      XXXX    -501.7232   XXXY     240.8171   XXYY    -297.5628
      XYYY     209.0672   YYYY   -1143.7407   XXXZ     328.8465
      XXYZ    -154.2389   XYYZ     111.5059   YYYZ    -417.3925
      XXZZ    -467.5068   XYZZ     101.8258   YYZZ    -583.4071
      XZZZ     367.3593   YZZZ    -473.8519   ZZZZ   -2190.2061
 -----------------------------------------------------------------
Archival summary:
1\1\nid00510\SP\ProcedureUnspecified\BasisUnspecified\3916(1+,1)\meili\SunSep2618:48:202021SunSep2618:48:202021\0\\#,ProcedureUnspecified,BasisUnspecified,\\1,1\N\H,1,1.00977\C,1,1.32326,2,117.594\N,3,1.31817,1,120.035,2,-2.24507,0\H,4,1.0046,3,118.117,1,163.191,0\H,4,1.00971,3,119.468,1,2.74961,0\N,3,1.31863,1,120.44,2,177.934,0\H,7,1.0064,3,119.206,1,-1.77252,0\H,7,1.00752,3,121.285,1,179.444,0\C,1,1.47042,2,117.774,3,177.602,0\H,10,1.09165,1,109.065,2,-105.219,0\H,10,1.09242,1,110.655,2,135.161,0\H,10,1.1,1,111.565,2,14.4818,0\H,3,2.77303,1,95.7998,2,-97.6984,0\C,14,1.07937,3,176.812,1,-35.9982,0\C,15,1.38755,14,120.098,3,-127.697,0\H,16,1.08207,15,120.064,14,0.255297,0\C,15,1.38863,14,119.964,3,52.1648,0\H,18,1.07957,15,119.507,14,-0.344364,0\C,16,1.3887,15,119.961,14,179.816,0\H,20,1.0823,16,120.027,15,-179.694,0\C,18,1.39019,15,120.434,14,-179.426,0\C,22,1.38996,18,119.389,15,-0.972646,0\H,23,1.08171,22,120.228,18,-179.304,0\C,22,1.4968,18,120.293,15,-179.604,0\H,25,1.08295,22,107.229,18,-154.102,0\H,25,1.09241,22,109.8,18,-37.2718,0\H,25,1.1,22,113.222,18,85.8574,0\\\@

 Total job time:  55818.52s(wall), 31565.62s(cpu) 
 Sun Sep 26 18:48:25 2021

        *************************************************************
        *                                                           *
        *  Thank you very much for using Q-Chem.  Have a nice day.  *
        *                                                           *
        *************************************************************


