                  Welcome to Q-Chem
     A Quantum Leap Into The Future Of Chemistry


 Q-Chem 5.2 (devel), Q-Chem, Inc., Pleasanton, CA (2019)

 Yihan Shao,  Zhengting Gan,  E. Epifanovsky,  A. T. B. Gilbert,  M. Wormit,  
 J. Kussmann,  A. W. Lange,  A. Behn,  Jia Deng,  Xintian Feng,  D. Ghosh,  
 M. Goldey,  P. R. Horn,  L. D. Jacobson,  I. Kaliman,  T. Kus,  A. Landau,  
 Jie Liu,  E. I. Proynov,  R. M. Richard,  R. P. Steele,  E. J. Sundstrom,  
 H. L. Woodcock III,  P. M. Zimmerman,  D. Zuev,  B. Albrecht,  E. Alguire,  
 S. A. Baeppler,  D. Barton,  Z. Benda,  Y. A. Bernard,  E. J. Berquist,  
 K. B. Bravaya,  H. Burton,  D. Casanova,  Chun-Min Chang,  Yunqing Chen,  
 A. Chien,  K. D. Closser,  M. P. Coons,  S. Coriani,  S. Dasgupta,  
 A. L. Dempwolff,  M. Diedenhofen,  Hainam Do,  R. G. Edgar,  Po-Tung Fang,  
 S. Faraji,  S. Fatehi,  Qingguo Feng,  K. D. Fenk,  J. Fosso-Tande,  
 J. Gayvert,  Qinghui Ge,  A. Ghysels,  G. Gidofalvi,  J. Gomes,  
 J. Gonthier,  A. Gunina,  D. Hait,  M. W. D. Hanson-Heine,  
 P. H. P. Harbach,  A. W. Hauser,  M. F. Herbst,  J. E. Herr,  
 E. G. Hohenstein,  Z. C. Holden,  Kerwin Hui,  B. C. Huynh,  T.-C. Jagau,  
 Hyunjun Ji,  B. Kaduk,  K. Khistyaev,  Jaehoon Kim,  P. Klunzinger,  K. Koh,  
 D. Kosenkov,  L. Koulias,  T. Kowalczyk,  C. M. Krauter,  A. Kunitsa,  
 Ka Un Lao,  A. Laurent,  K. V. Lawler,  Joonho Lee,  D. Lefrancois,  
 S. Lehtola,  D. S. Levine,  Yi-Pei Li,  You-Sheng Lin,  Fenglai Liu,  
 E. Livshits,  A. Luenser,  P. Manohar,  E. Mansoor,  S. F. Manzer,  
 Shan-Ping Mao,  Yuezhi Mao,  N. Mardirossian,  A. V. Marenich,  
 T. Markovich,  L. A. Martinez-Martinez,  S. A. Maurer,  N. J. Mayhall,  
 S. C. McKenzie,  J.-M. Mewes,  P. Morgante,  A. F. Morrison,  
 J. W. Mullinax,  K. Nanda,  T. S. Nguyen-Beck,  R. Olivares-Amaya,  
 J. A. Parkhill,  Zheng Pei,  T. M. Perrine,  F. Plasser,  P. Pokhilko,  
 S. Prager,  A. Prociuk,  E. Ramos,  D. R. Rehn,  F. Rob,  M. Scheurer,  
 M. Schneider,  N. Sergueev,  S. M. Sharada,  S. Sharma,  D. W. Small,  
 T. Stauch,  T. Stein,  Yu-Chuan Su,  A. J. W. Thom,  A. Tkatchenko,  
 T. Tsuchimochi,  N. M. Tubman,  L. Vogt,  M. L. Vidal,  O. Vydrov,  
 M. A. Watson,  J. Wenzel,  M. de Wergifosse,  T. A. Wesolowski,  A. White,  
 J. Witte,  A. Yamada,  Jun Yang,  K. Yao,  S. Yeganeh,  S. R. Yost,  
 Zhi-Qiang You,  A. Zech,  Igor Ying Zhang,  Xing Zhang,  Yan Zhao,  
 Ying Zhu,  B. R. Brooks,  G. K. L. Chan,  C. J. Cramer,  M. S. Gordon,  
 W. J. Hehre,  A. Klamt,  M. W. Schmidt,  C. D. Sherrill,  D. G. Truhlar,  
 A. Aspuru-Guzik,  R. Baer,  A. T. Bell,  N. A. Besley,  Jeng-Da Chai,  
 A. E. DePrince, III,  R. A. DiStasio Jr.,  A. Dreuw,  B. D. Dunietz,  
 T. R. Furlani,  Chao-Ping Hsu,  Yousung Jung,  Jing Kong,  D. S. Lambrecht,  
 WanZhen Liang,  C. Ochsenfeld,  V. A. Rassolov,  L. V. Slipchenko,  
 J. E. Subotnik,  T. Van Voorhis,  J. M. Herbert,  A. I. Krylov,  
 P. M. W. Gill,  M. Head-Gordon

 Contributors to earlier versions of Q-Chem not listed above: 
 R. D. Adamson,  B. Austin,  J. Baker,  G. J. O. Beran,  K. Brandhorst,  
 S. T. Brown,  E. F. C. Byrd,  A. K. Chakraborty,  C.-L. Cheng,  
 Siu Hung Chien,  D. M. Chipman,  D. L. Crittenden,  H. Dachsel,  
 R. J. Doerksen,  A. D. Dutoi,  L. Fusti-Molnar,  W. A. Goddard III,  
 A. Golubeva-Zadorozhnaya,  S. R. Gwaltney,  G. Hawkins,  A. Heyden,  
 S. Hirata,  G. Kedziora,  F. J. Keil,  C. Kelley,  Jihan Kim,  R. A. King,  
 R. Z. Khaliullin,  P. P. Korambath,  W. Kurlancheek,  A. M. Lee,  M. S. Lee,  
 S. V. Levchenko,  Ching Yeh Lin,  D. Liotard,  R. C. Lochan,  I. Lotan,  
 P. E. Maslen,  N. Nair,  D. P. O'Neill,  D. Neuhauser,  E. Neuscamman,  
 C. M. Oana,  R. Olson,  B. Peters,  R. Peverati,  P. A. Pieniazek,  
 Y. M. Rhee,  J. Ritchie,  M. A. Rohrdanz,  E. Rosta,  N. J. Russ,  
 H. F. Schaefer III,  N. E. Schultz,  N. Shenvi,  A. C. Simmonett,  A. Sodt,  
 D. Stuck,  K. S. Thanthiriwatte,  V. Vanovschi,  Tao Wang,  A. Warshel,  
 C. F. Williams,  Q. Wu,  X. Xu,  W. Zhang

 Please cite Q-Chem as follows:
 Y. Shao et al., Mol. Phys. 113, 184-215 (2015)
 DOI: 10.1080/00268976.2014.952696

 Q-Chem 5.2.1 for Intel X86 EM64T Linux

 Parts of Q-Chem use Armadillo 8.300.2 (Tropical Shenanigans).
 http://arma.sourceforge.net/

 Q-Chem begins on Wed Sep 29 12:17:30 2021  

compute-0-13.local
Host: 0

     Scratch files written to /home/meili/scratch/qchem22675//
NAlpha2: 128
NElect   128
Mult     1
Symmetry turned off for PCM/SM12/SMD calculation

 Q-Chem warning in module libgen/rem_setup.C, line 2813:

 Neither GIA nor STOLL is specified by user. Use STOLL as the default


Checking the input file for inconsistencies... 	...done.

--------------------------------------------------------------
User input:
--------------------------------------------------------------
$comment
SSI-063TRP-081TYR-1.pdb
$end

$molecule
0 1
--
0 1
C    4.860337477673    1.954254838718    0.925835172545
C    1.347337477673    1.143254838718   -0.101164827455
C    2.576337477673    1.808254838718   -0.325164827455
C    3.473337477673    1.447254838718    0.728835172545
C    2.765337477673    0.645254838718    1.554835172545
C    0.261337477673    1.293254838718   -0.958164827455
C    0.424337477673    2.090254838718   -2.069164827455
C    1.630337477673    2.730254838718   -2.320164827455
C    2.705337477673    2.609254838718   -1.455164827455
N    1.489337477673    0.453254838718    1.078835172545
H   -0.684662522327    0.817254838718   -0.758164827455
H   -0.399662522327    2.213254838718   -2.757164827455
H    0.727337477673    0.120254838718    1.646835172545
H    1.723337477673    3.354254838718   -3.199164827455
H    3.152337477673    0.167254838718    2.434835172545
H    3.628337477673    3.132254838718   -1.647164827455
H    4.759337477673    2.940254838718    1.380835172545
H    5.316337477673    2.107254838718   -0.052164827455
H    5.537347477673    1.364034838718    1.560895172545
--
0 1
C   -4.484662522327   -2.969745161282   -1.710164827455
C   -1.354662522327   -1.648745161282   -0.021164827455
C   -2.231662522327   -2.144745161282   -0.987164827455
C   -1.801662522327   -1.463745161282    1.281835172545
C   -3.536662522327   -2.459745161282   -0.659164827455
C   -3.107662522327   -1.786745161282    1.629835172545
C   -3.960662522327   -2.291745161282    0.652835172545
O   -0.912662522327   -0.975745161282    2.189835172545
H   -0.335662522327   -1.419745161282   -0.295164827455
H   -1.880662522327   -2.278745161282   -2.003164827455
H   -0.019662522327   -1.180745161282    1.923835172545
H   -3.447662522327   -1.645745161282    2.645835172545
H   -5.017662522327   -3.838745161282   -1.320164827455
H   -3.909662522327   -3.296745161282   -2.576164827455
H   -4.978662522327   -2.544745161282    0.919835172545
H   -5.216364522327   -2.206605161282   -2.013854827455
$end

$rem
JOBTYPE			EDA
EDA2			1
method			wB97X-V
BASIS			def2-TZVPD
XC_GRID			000099000590
NL_GRID			1
UNRESTRICTED		FALSE
MAX_SCF_CYCLES		200
SYMMETRY		FALSE
SYM_IGNORE		TRUE
MEM_STATIC		2000
BASIS_LIN_DEP_THRESH 	6
THRESH 			14
SCF_CONVERGENCE 	8
SCF_PRINT_FRGM 		TRUE
SOLVENT_METHOD          PCM
$end

$PCM
THEORY                  CPCM
METHOD                  SWIG
SOLVER                  INVERSION
RADII                   UFF
HPOINTS                 302
HEAVYPOINTS             302
PRINTLEVEL              0
$END

$SOLVENT
DIELECTRIC              78.390000 ! water
$END
--------------------------------------------------------------
 ----------------------------------------------------------------
             Standard Nuclear Orientation (Angstroms)
    I     Atom           X                Y                Z
 ----------------------------------------------------------------
    1      C       4.8603374777     1.9542548387     0.9258351725
    2      C       1.3473374777     1.1432548387    -0.1011648275
    3      C       2.5763374777     1.8082548387    -0.3251648275
    4      C       3.4733374777     1.4472548387     0.7288351725
    5      C       2.7653374777     0.6452548387     1.5548351725
    6      C       0.2613374777     1.2932548387    -0.9581648275
    7      C       0.4243374777     2.0902548387    -2.0691648275
    8      C       1.6303374777     2.7302548387    -2.3201648275
    9      C       2.7053374777     2.6092548387    -1.4551648275
   10      N       1.4893374777     0.4532548387     1.0788351725
   11      H      -0.6846625223     0.8172548387    -0.7581648275
   12      H      -0.3996625223     2.2132548387    -2.7571648275
   13      H       0.7273374777     0.1202548387     1.6468351725
   14      H       1.7233374777     3.3542548387    -3.1991648275
   15      H       3.1523374777     0.1672548387     2.4348351725
   16      H       3.6283374777     3.1322548387    -1.6471648275
   17      H       4.7593374777     2.9402548387     1.3808351725
   18      H       5.3163374777     2.1072548387    -0.0521648275
   19      H       5.5373474777     1.3640348387     1.5608951725
   20      C      -4.4846625223    -2.9697451613    -1.7101648275
   21      C      -1.3546625223    -1.6487451613    -0.0211648275
   22      C      -2.2316625223    -2.1447451613    -0.9871648275
   23      C      -1.8016625223    -1.4637451613     1.2818351725
   24      C      -3.5366625223    -2.4597451613    -0.6591648275
   25      C      -3.1076625223    -1.7867451613     1.6298351725
   26      C      -3.9606625223    -2.2917451613     0.6528351725
   27      O      -0.9126625223    -0.9757451613     2.1898351725
   28      H      -0.3356625223    -1.4197451613    -0.2951648275
   29      H      -1.8806625223    -2.2787451613    -2.0031648275
   30      H      -0.0196625223    -1.1807451613     1.9238351725
   31      H      -3.4476625223    -1.6457451613     2.6458351725
   32      H      -5.0176625223    -3.8387451613    -1.3201648275
   33      H      -3.9096625223    -3.2967451613    -2.5761648275
   34      H      -4.9786625223    -2.5447451613     0.9198351725
   35      H      -5.2163645223    -2.2066051613    -2.0138548275
 ----------------------------------------------------------------
 Nuclear Repulsion Energy =        1190.54157321 hartrees
 There are       64 alpha and       64 beta electrons
 Requested basis set is def2-TZVPD
 There are 320 shells and 822 basis functions

 Total QAlloc Memory Limit   2000 MB
 Mega-Array Size      1956 MB
 MEM_STATIC part      2000 MB
 Discretize the solute cavity surface with Lebedev spheres
	Using 302 Lebedev grid points for each H atom
	Using 302 Lebedev grid points for other atoms
	Atomic van der Waals radii will be scaled by 1.20
 Remove points where switching function is < 1.0e-08
 Keep 3651 surface tesserae and discard 6919 interior tesserae
 Molecular Surface Area = 359.599 Angst**2
 A cutoff of  1.0D-14 yielded  41159 shell pairs
 There are    271971 function pairs (    344972 Cartesian)
 Smallest overlap matrix eigenvalue = 3.55E-07
 Linear dependence detected in AO basis
 Tighter screening thresholds may be required for diffuse basis sets
 Use S2THRESH > 14 and THRESH = 14 in case of SCF convergence issues
 Number of orthogonalized atomic orbitals = 816
 Maximum deviation from orthogonality = 1.557E-10

 Scale SEOQF with 1.000000e-02/1.000000e-01/1.000000e-01

 Standard Electronic Orientation quadrupole field applied
 Nucleus-field energy     =     0.0000000100 hartrees

 -----------------------------------------------------------------------
  General SCF calculation program by
  Eric Jon Sundstrom, Paul Horn, Yuezhi Mao, Dmitri Zuev, Alec White,
  David Stuck, Shaama M.S., Shane Yost, Joonho Lee, David Small,
  Daniel Levine, Susi Lehtola, Hugh Burton, Evgeny Epifanovsky,
  Bang C. Huynh
 -----------------------------------------------------------------------
================================================================
                 ALMO-EDA with the EDA2 driver                  
================================================================
 The second-generation ALMO-EDA (for DFT):                      
 P. R. Horn, Y. Mao and M. Head-Gordon, PCCP, 18, 23067 (2016)  
 Decomposition of the frozen energy:                            
 P. R. Horn, Y. Mao and M. Head-Gordon, JCP, 144, 114107 (2016) 
 FERF model for polarization:                                   
 P. R. Horn and M. Head-Gordon, JCP, 143, 114111 (2015)         
Using eda2 option set 1
Option set summary: Frozen orbital wavefunction, initial wavefunction decomposition, and nDQ polarization.
--------------------------------
Printing EDA Options
--------------------------------
eda_child_super_basis      0
fragmo_guess_mode          0
child_mp                   1
child_mp_orders            232
cls_elec                   1
cls_disp                   0
scfmi_mode                 1
scfmi_occs                 0
scfmi_virts                0
frz_relax                  0
frz_relax_method           0
dc_pen_start               0
dc_pen_conv                0
dc_pen_increment           0
dc_pen_steps               0
dc_pen_thresh_factor       0
dc_pen_pre_newton_thresh   0
frz_ortho_decomp           1
frz_ortho_decomp_conv      6
frgm_method                2
scfmi_freeze_ss            0
separate_rehyb             0
plot_diff_den              0
eda_nocv                   0
eda_vct_relax              1
disp_free_x                0
disp_free_c                0
eda_bsse                   0
eda_pct_a                  0
eda_covp                   0
--------------------------------
Attempting to make child job directory: /home/meili/scratch/qchem22675//Frg1/
Attempting to make child job directory: /home/meili/scratch/qchem22675//Frg2/
Creating input file /home/meili/scratch/qchem22675/Frg1.input
using default PutDataFrgm: nothing
calling putenv with: QCSCRATCH=/home/meili/scratch/qchem22675/ 
Spawning Job For Fragment 0
                  Welcome to Q-Chem
     A Quantum Leap Into The Future Of Chemistry


 Q-Chem 5.2 (devel), Q-Chem, Inc., Pleasanton, CA (2019)

 Yihan Shao,  Zhengting Gan,  E. Epifanovsky,  A. T. B. Gilbert,  M. Wormit,  
 J. Kussmann,  A. W. Lange,  A. Behn,  Jia Deng,  Xintian Feng,  D. Ghosh,  
 M. Goldey,  P. R. Horn,  L. D. Jacobson,  I. Kaliman,  T. Kus,  A. Landau,  
 Jie Liu,  E. I. Proynov,  R. M. Richard,  R. P. Steele,  E. J. Sundstrom,  
 H. L. Woodcock III,  P. M. Zimmerman,  D. Zuev,  B. Albrecht,  E. Alguire,  
 S. A. Baeppler,  D. Barton,  Z. Benda,  Y. A. Bernard,  E. J. Berquist,  
 K. B. Bravaya,  H. Burton,  D. Casanova,  Chun-Min Chang,  Yunqing Chen,  
 A. Chien,  K. D. Closser,  M. P. Coons,  S. Coriani,  S. Dasgupta,  
 A. L. Dempwolff,  M. Diedenhofen,  Hainam Do,  R. G. Edgar,  Po-Tung Fang,  
 S. Faraji,  S. Fatehi,  Qingguo Feng,  K. D. Fenk,  J. Fosso-Tande,  
 J. Gayvert,  Qinghui Ge,  A. Ghysels,  G. Gidofalvi,  J. Gomes,  
 J. Gonthier,  A. Gunina,  D. Hait,  M. W. D. Hanson-Heine,  
 P. H. P. Harbach,  A. W. Hauser,  M. F. Herbst,  J. E. Herr,  
 E. G. Hohenstein,  Z. C. Holden,  Kerwin Hui,  B. C. Huynh,  T.-C. Jagau,  
 Hyunjun Ji,  B. Kaduk,  K. Khistyaev,  Jaehoon Kim,  P. Klunzinger,  K. Koh,  
 D. Kosenkov,  L. Koulias,  T. Kowalczyk,  C. M. Krauter,  A. Kunitsa,  
 Ka Un Lao,  A. Laurent,  K. V. Lawler,  Joonho Lee,  D. Lefrancois,  
 S. Lehtola,  D. S. Levine,  Yi-Pei Li,  You-Sheng Lin,  Fenglai Liu,  
 E. Livshits,  A. Luenser,  P. Manohar,  E. Mansoor,  S. F. Manzer,  
 Shan-Ping Mao,  Yuezhi Mao,  N. Mardirossian,  A. V. Marenich,  
 T. Markovich,  L. A. Martinez-Martinez,  S. A. Maurer,  N. J. Mayhall,  
 S. C. McKenzie,  J.-M. Mewes,  P. Morgante,  A. F. Morrison,  
 J. W. Mullinax,  K. Nanda,  T. S. Nguyen-Beck,  R. Olivares-Amaya,  
 J. A. Parkhill,  Zheng Pei,  T. M. Perrine,  F. Plasser,  P. Pokhilko,  
 S. Prager,  A. Prociuk,  E. Ramos,  D. R. Rehn,  F. Rob,  M. Scheurer,  
 M. Schneider,  N. Sergueev,  S. M. Sharada,  S. Sharma,  D. W. Small,  
 T. Stauch,  T. Stein,  Yu-Chuan Su,  A. J. W. Thom,  A. Tkatchenko,  
 T. Tsuchimochi,  N. M. Tubman,  L. Vogt,  M. L. Vidal,  O. Vydrov,  
 M. A. Watson,  J. Wenzel,  M. de Wergifosse,  T. A. Wesolowski,  A. White,  
 J. Witte,  A. Yamada,  Jun Yang,  K. Yao,  S. Yeganeh,  S. R. Yost,  
 Zhi-Qiang You,  A. Zech,  Igor Ying Zhang,  Xing Zhang,  Yan Zhao,  
 Ying Zhu,  B. R. Brooks,  G. K. L. Chan,  C. J. Cramer,  M. S. Gordon,  
 W. J. Hehre,  A. Klamt,  M. W. Schmidt,  C. D. Sherrill,  D. G. Truhlar,  
 A. Aspuru-Guzik,  R. Baer,  A. T. Bell,  N. A. Besley,  Jeng-Da Chai,  
 A. E. DePrince, III,  R. A. DiStasio Jr.,  A. Dreuw,  B. D. Dunietz,  
 T. R. Furlani,  Chao-Ping Hsu,  Yousung Jung,  Jing Kong,  D. S. Lambrecht,  
 WanZhen Liang,  C. Ochsenfeld,  V. A. Rassolov,  L. V. Slipchenko,  
 J. E. Subotnik,  T. Van Voorhis,  J. M. Herbert,  A. I. Krylov,  
 P. M. W. Gill,  M. Head-Gordon

 Contributors to earlier versions of Q-Chem not listed above: 
 R. D. Adamson,  B. Austin,  J. Baker,  G. J. O. Beran,  K. Brandhorst,  
 S. T. Brown,  E. F. C. Byrd,  A. K. Chakraborty,  C.-L. Cheng,  
 Siu Hung Chien,  D. M. Chipman,  D. L. Crittenden,  H. Dachsel,  
 R. J. Doerksen,  A. D. Dutoi,  L. Fusti-Molnar,  W. A. Goddard III,  
 A. Golubeva-Zadorozhnaya,  S. R. Gwaltney,  G. Hawkins,  A. Heyden,  
 S. Hirata,  G. Kedziora,  F. J. Keil,  C. Kelley,  Jihan Kim,  R. A. King,  
 R. Z. Khaliullin,  P. P. Korambath,  W. Kurlancheek,  A. M. Lee,  M. S. Lee,  
 S. V. Levchenko,  Ching Yeh Lin,  D. Liotard,  R. C. Lochan,  I. Lotan,  
 P. E. Maslen,  N. Nair,  D. P. O'Neill,  D. Neuhauser,  E. Neuscamman,  
 C. M. Oana,  R. Olson,  B. Peters,  R. Peverati,  P. A. Pieniazek,  
 Y. M. Rhee,  J. Ritchie,  M. A. Rohrdanz,  E. Rosta,  N. J. Russ,  
 H. F. Schaefer III,  N. E. Schultz,  N. Shenvi,  A. C. Simmonett,  A. Sodt,  
 D. Stuck,  K. S. Thanthiriwatte,  V. Vanovschi,  Tao Wang,  A. Warshel,  
 C. F. Williams,  Q. Wu,  X. Xu,  W. Zhang

 Please cite Q-Chem as follows:
 Y. Shao et al., Mol. Phys. 113, 184-215 (2015)
 DOI: 10.1080/00268976.2014.952696

 Q-Chem 5.2.1 for Intel X86 EM64T Linux

 Parts of Q-Chem use Armadillo 8.300.2 (Tropical Shenanigans).
 http://arma.sourceforge.net/

 Q-Chem begins on Wed Sep 29 12:17:39 2021  

compute-0-13.local
Host: 0

     Scratch files written to /home/meili/scratch/qchem22675//Frg1//
NAlpha2: 70
NElect   70
Mult     1
Symmetry turned off for PCM/SM12/SMD calculation

Checking the input file for inconsistencies... 	...done.

--------------------------------------------------------------
User input:
--------------------------------------------------------------
$molecule
0 1
 6	4.8603374777	1.9542548387	0.9258351725
 6	1.3473374777	1.1432548387	-0.1011648275
 6	2.5763374777	1.8082548387	-0.3251648275
 6	3.4733374777	1.4472548387	0.7288351725
 6	2.7653374777	0.6452548387	1.5548351725
 6	0.2613374777	1.2932548387	-0.9581648275
 6	0.4243374777	2.0902548387	-2.0691648275
 6	1.6303374777	2.7302548387	-2.3201648275
 6	2.7053374777	2.6092548387	-1.4551648275
 7	1.4893374777	0.4532548387	1.0788351725
 1	-0.6846625223	0.8172548387	-0.7581648275
 1	-0.3996625223	2.2132548387	-2.7571648275
 1	0.7273374777	0.1202548387	1.6468351725
 1	1.7233374777	3.3542548387	-3.1991648275
 1	3.1523374777	0.1672548387	2.4348351725
 1	3.6283374777	3.1322548387	-1.6471648275
 1	4.7593374777	2.9402548387	1.3808351725
 1	5.3163374777	2.1072548387	-0.0521648275
 1	5.5373474777	1.3640348387	1.5608951725
$end
$rem
EDA2		1
METHOD		WB97X-V
BASIS		DEF2-TZVPD
XC_GRID		000099000590
NL_GRID		1
UNRESTRICTED		FALSE
MAX_SCF_CYCLES		200
SYMMETRY		FALSE
SYM_IGNORE		TRUE
BASIS_LIN_DEP_THRESH		6
THRESH		14
SCF_CONVERGENCE		8
SCF_PRINT_FRGM		TRUE
SOLVENT_METHOD		PCM
!required keywords
JOBTYPE		SP
SYM_IGNORE		TRUE
SUBSYSTEM		TRUE
GEN_SCFMAN		TRUE
CHILD_INSTRUCTION		2
SYM_IGNORE		TRUE
SCFMI		0
RI_K 0		
PARI_K 0		
MIN_PARI_K 0		
IARI_K 0		
OCC_RI_K 0		
PURECART		1111
MEM_STATIC		2000
MEM_TOTAL		2000
GUI		0
CHILD_MP		1
CHILD_MP_ORDERS		232
FRZ_RELAX		0
FRZ_RELAX_METHOD		0
EDA_CLS_ELEC		1
EDA_CLS_DISP		0
FRZ_ORTHO_DECOMP		1
EDA2		FALSE
FRGM_METHOD		FALSE
CIS_N_ROOTS  0
LOCAL_CIS    0
CIS_RLX_DNS  1
$end
$pcm
THEORY                  CPCM
METHOD                  SWIG
SOLVER                  INVERSION
RADII                   UFF
HPOINTS                 302
HEAVYPOINTS             302
PRINTLEVEL              0
$end
$solvent
DIELECTRIC              78.390000 ! water
$end
--------------------------------------------------------------
 ----------------------------------------------------------------
             Standard Nuclear Orientation (Angstroms)
    I     Atom           X                Y                Z
 ----------------------------------------------------------------
    1      C       4.8603374777     1.9542548387     0.9258351725
    2      C       1.3473374777     1.1432548387    -0.1011648275
    3      C       2.5763374777     1.8082548387    -0.3251648275
    4      C       3.4733374777     1.4472548387     0.7288351725
    5      C       2.7653374777     0.6452548387     1.5548351725
    6      C       0.2613374777     1.2932548387    -0.9581648275
    7      C       0.4243374777     2.0902548387    -2.0691648275
    8      C       1.6303374777     2.7302548387    -2.3201648275
    9      C       2.7053374777     2.6092548387    -1.4551648275
   10      N       1.4893374777     0.4532548387     1.0788351725
   11      H      -0.6846625223     0.8172548387    -0.7581648275
   12      H      -0.3996625223     2.2132548387    -2.7571648275
   13      H       0.7273374777     0.1202548387     1.6468351725
   14      H       1.7233374777     3.3542548387    -3.1991648275
   15      H       3.1523374777     0.1672548387     2.4348351725
   16      H       3.6283374777     3.1322548387    -1.6471648275
   17      H       4.7593374777     2.9402548387     1.3808351725
   18      H       5.3163374777     2.1072548387    -0.0521648275
   19      H       5.5373474777     1.3640348387     1.5608951725
 ----------------------------------------------------------------
 Nuclear Repulsion Energy =         486.79078489 hartrees
 There are       35 alpha and       35 beta electrons
 Requested basis set is def2-TZVPD
 There are 175 shells and 451 basis functions

 Total QAlloc Memory Limit   2000 MB
 Mega-Array Size      1956 MB
 MEM_STATIC part      2000 MB
 Discretize the solute cavity surface with Lebedev spheres
	Using 302 Lebedev grid points for each H atom
	Using 302 Lebedev grid points for other atoms
	Atomic van der Waals radii will be scaled by 1.20
 Remove points where switching function is < 1.0e-08
 Keep 2168 surface tesserae and discard 3570 interior tesserae
 Molecular Surface Area = 214.569 Angst**2
 A cutoff of  1.0D-14 yielded  14477 shell pairs
 There are     98291 function pairs (    126468 Cartesian)
 Smallest overlap matrix eigenvalue = 4.80E-07
 Linear dependence detected in AO basis
 Tighter screening thresholds may be required for diffuse basis sets
 Use S2THRESH > 14 and THRESH = 14 in case of SCF convergence issues
 Number of orthogonalized atomic orbitals = 448
 Maximum deviation from orthogonality = 1.371E-10

 Scale SEOQF with 1.000000e-02/1.000000e-01/1.000000e-01

 Standard Electronic Orientation quadrupole field applied
 Nucleus-field energy     =     0.0000000030 hartrees
 Guess from superposition of atomic densities
 Warning:  Energy on first SCF cycle will be non-variational
 SAD guess density has 70.000000 electrons

 -----------------------------------------------------------------------
  General SCF calculation program by
  Eric Jon Sundstrom, Paul Horn, Yuezhi Mao, Dmitri Zuev, Alec White,
  David Stuck, Shaama M.S., Shane Yost, Joonho Lee, David Small,
  Daniel Levine, Susi Lehtola, Hugh Burton, Evgeny Epifanovsky,
  Bang C. Huynh
 -----------------------------------------------------------------------
 Exchange:     0.1670 Hartree-Fock + 1.0000 wB97X-V + LR-HF
 Correlation:  1.0000 wB97X-V
 Using Euler-Maclaurin-Lebedev (99,590) quadrature formula
 Nonlocal Correlation:  VV10 with C = 0.0100 and b = 6.00 and scale = 1.00000
 Grid used for NLC:  SG-1 standard quadrature
Energy prior to optimization (guess energy) = -403.077739694009
Begin Timing: Total SCF Calculation
begin iterations for algorithm: DIIS         
the SCF tolerance is set to 1.00e-08
    1    -403.0777396940      1.69e-03     00000 
    2    -403.1272183601      1.20e-03     00000 
    3    -403.1645221129      2.51e-04     00000 
    4    -403.1659701054      1.21e-04     00000 
    5    -403.1663348931      2.43e-05     00000 
    6    -403.1663538673      9.37e-06     00000 
    7    -403.1663564214      2.80e-06     00000 
    8    -403.1663568409      6.81e-07     00000 
    9    -403.1663568887      3.21e-07     00000 
   10    -403.1663568991      1.54e-07     00000 
   11    -403.1663569020      5.79e-08     00000 
   12    -403.1663569025      2.58e-08     00000 
   13    -403.1663569025      8.85e-09     00000 Convergence criterion met
Timing for Total SCF: 1632.00s (wall), 9584.97s (cpu)

************** Final PCM Free Energy Summary **************
 G_electrostatic  =      -0.00601622 hartree =      -3.77523810 kcal/mol
 G_cavitation     =       0.00000000 hartree =       0.00000000 kcal/mol
 G_dispersion     =       0.00000000 hartree =       0.00000000 kcal/mol
 G_repulsion      =       0.00000000 hartree =       0.00000000 kcal/mol
 --------------------------------------------------
 Non-electrostatic Free Energy =       0.00000000 hartree =       0.00000000 kcal/mol
 Total                         =      -0.00601622 hartree =      -3.77523810 kcal/mol
 --------------------------------------------------
 SCF Energy (H0 + V/2)                       =    -403.16635690 
 Solute Internal Energy (H0)                 =    -403.16034068 
 Total Free Energy (H0 + V/2 + non-elec)     =    -403.16635690 hartree
                                             = -252990.70734491 kcal/mol
***********************************************************

E_pcm = -0.0060162249
Multipole orders to be included
        2
        3
computing dipole RHS
computing quadrupole RHS
total number of RHS in solve_reponses: 8
RHS batch sizes
        8
Beginning Block Conjugate Gradient Iterations. Batch Number: 0
computing hessian-vector products by finite difference
              1      5.84e-01     00000 Conjugate Gradient Iteration
computing hessian-vector products by finite difference
              2      1.92e-01     00000 Conjugate Gradient Iteration
computing hessian-vector products by finite difference
              3      5.62e-02     00000 Conjugate Gradient Iteration
computing hessian-vector products by finite difference
              4      1.83e-02     00000 Conjugate Gradient Iteration
computing hessian-vector products by finite difference
              5      6.23e-03     00000 Conjugate Gradient Iteration
computing hessian-vector products by finite difference
              6      2.32e-03     00000 Conjugate Gradient Iteration
computing hessian-vector products by finite difference
              7      5.70e-04     00000 Conjugate Gradient Iteration
computing hessian-vector products by finite difference
              8      1.18e-04     00000 Conjugate Gradient Iteration
computing hessian-vector products by finite difference
              9      2.01e-05     00000 Conjugate Gradient Iteration
computing hessian-vector products by finite difference
             10      3.38e-06     00000 Conjugate Gradient Iteration
computing hessian-vector products by finite difference
             11      8.33e-07     00000 Conjugate Gradient Iteration
computing hessian-vector products by finite difference
             12      1.49e-07     00000 Conjugate Gradient Iteration
computing hessian-vector products by finite difference
             13      2.98e-08     00000 Conjugate Gradient Iteration
computing hessian-vector products by finite difference
             14      5.67e-09     00000 CG Converged
batch 0 complete
Done Calculating Responses
TESTING ORTHOGONALIZATION OF MULTIPOLE BASIS
Multipole virts passed orthogonality test
Virts Per Order
          105
          175

 --------------------------------------------------------------

                    Orbital Energies (a.u.)
 --------------------------------------------------------------

 Alpha MOs
 -- Occupied --
-14.4468 -10.3023 -10.2922 -10.2710 -10.2687 -10.2662 -10.2655 -10.2627
-10.2621 -10.2612  -1.1164  -0.9831  -0.9351  -0.8705  -0.8635  -0.8204
 -0.7480  -0.7160  -0.6793  -0.6535  -0.5995  -0.5859  -0.5607  -0.5502
 -0.5396  -0.5205  -0.5116  -0.4950  -0.4818  -0.4545  -0.4524  -0.4362
 -0.3790  -0.3173  -0.2933
 -- Virtual --
  0.0546   0.0596   0.0745   0.0766   0.0902   0.0968   0.0989   0.1057
  0.1272   0.1313   0.1343   0.1443   0.1543   0.1616   0.1735   0.1776
  0.1845   0.1920   0.2000   0.2054   0.2135   0.2191   0.2229   0.2413
  0.2459   0.2518   0.2583   0.2605   0.2657   0.2742   0.2762   0.2772
  0.2816   0.2843   0.2882   0.2895   0.2982   0.3072   0.3105   0.3224
  0.3256   0.3304   0.3360   0.3378   0.3390   0.3433   0.3470   0.3500
  0.3564   0.3629   0.3684   0.3779   0.3812   0.3864   0.3890   0.3916
  0.3974   0.4060   0.4084   0.4145   0.4158   0.4213   0.4290   0.4367
  0.4415   0.4478   0.4520   0.4554   0.4577   0.4589   0.4645   0.4772
  0.4824   0.4894   0.4924   0.4980   0.5000   0.5101   0.5187   0.5199
  0.5292   0.5347   0.5401   0.5420   0.5492   0.5543   0.5585   0.5628
  0.5696   0.5754   0.5841   0.5862   0.6052   0.6079   0.6129   0.6240
  0.6344   0.6368   0.6435   0.6470   0.6577   0.6632   0.6737   0.6873
  0.6907   0.6941   0.6999   0.7029   0.7104   0.7139   0.7252   0.7312
  0.7385   0.7397   0.7454   0.7571   0.7632   0.7666   0.7703   0.7749
  0.7764   0.7868   0.7910   0.7969   0.8009   0.8033   0.8099   0.8189
  0.8213   0.8265   0.8334   0.8385   0.8395   0.8492   0.8511   0.8682
  0.8692   0.8693   0.8740   0.8856   0.9006   0.9076   0.9172   0.9304
  0.9465   0.9556   0.9643   0.9792   0.9886   0.9923   1.0105   1.0234
  1.0353   1.0443   1.0538   1.0618   1.0745   1.0823   1.0889   1.0957
  1.1115   1.1250   1.1363   1.1452   1.1612   1.1811   1.1948   1.2029
  1.2267   1.2422   1.2661   1.2764   1.3014   1.3078   1.3395   1.3555
  1.3788   1.3863   1.4026   1.4147   1.4219   1.4491   1.4578   1.4780
  1.5123   1.5369   1.5663   1.5751   1.5832   1.5938   1.6094   1.6249
  1.6413   1.6664   1.6892   1.6970   1.7177   1.7294   1.7407   1.7666
  1.7850   1.8137   1.8323   1.8489   1.8637   1.8707   1.8865   1.8948
  1.9071   1.9119   1.9326   1.9447   1.9555   1.9619   1.9786   1.9852
  1.9942   2.0037   2.0156   2.0216   2.0434   2.0587   2.0700   2.1002
  2.1066   2.1251   2.1355   2.1734   2.1878   2.1994   2.2048   2.2264
  2.2402   2.2756   2.2922   2.3138   2.3364   2.3502   2.3630   2.3976
  2.4124   2.4287   2.4397   2.4502   2.4882   2.4960   2.5214   2.5470
  2.5663   2.5769   2.5941   2.6077   2.6233   2.6469   2.6658   2.6920
  2.7000   2.7341   2.7539   2.7597   2.7711   2.7995   2.8023   2.8132
  2.8217   2.8288   2.8559   2.8660   2.8737   2.8874   2.9039   2.9242
  2.9318   2.9414   2.9653   2.9695   2.9906   3.0126   3.0247   3.0358
  3.0440   3.0691   3.0807   3.0842   3.0990   3.1217   3.1453   3.1608
  3.1688   3.1869   3.2080   3.2156   3.2304   3.2343   3.2642   3.2735
  3.2850   3.3046   3.3117   3.3366   3.3379   3.3603   3.3752   3.3937
  3.3987   3.4129   3.4246   3.4392   3.4529   3.4629   3.4744   3.4809
  3.4913   3.5123   3.5187   3.5229   3.5333   3.5493   3.5566   3.5755
  3.5868   3.5963   3.6162   3.6275   3.6402   3.6551   3.6601   3.6779
  3.7141   3.7183   3.7242   3.7439   3.7526   3.7769   3.7790   3.7942
  3.8110   3.8562   3.8716   3.9081   3.9238   3.9800   3.9915   4.0295
  4.0606   4.0733   4.1025   4.1349   4.1743   4.2057   4.2251   4.2416
  4.2502   4.2728   4.2904   4.3077   4.3188   4.3627   4.3746   4.3855
  4.4108   4.4336   4.4651   4.4734   4.5071   4.5290   4.5387   4.6072
  4.6508   4.6530   4.6946   4.7541   4.7826   4.7945   4.8572   4.9208
  4.9252   4.9723   4.9759   4.9896   5.0219   5.0581   5.0768   5.1208
  5.1498   5.2037   5.2209   5.2434   5.3005   5.3950   5.4096   5.4643
  5.5422   5.5705   5.5953   5.6608   5.6886   5.7827   5.7991   5.9340
  5.9674   6.2481   6.3473  22.6668  22.7447  22.9555  22.9608  23.0073
 23.2331  23.2788  23.4838  23.8076  32.8196
 --------------------------------------------------------------

          Ground-State Mulliken Net Atomic Charges

     Atom                 Charge (a.u.)
  ----------------------------------------
      1 C                    -0.984082
      2 C                    -0.180398
      3 C                     0.468377
      4 C                     0.725555
      5 C                    -0.793535
      6 C                    -0.585408
      7 C                    -0.363071
      8 C                    -0.578587
      9 C                    -0.417421
     10 N                     0.112135
     11 H                     0.349038
     12 H                     0.331790
     13 H                     0.234629
     14 H                     0.343382
     15 H                     0.279438
     16 H                     0.316360
     17 H                     0.205796
     18 H                     0.260772
     19 H                     0.275230
  ----------------------------------------
  Sum of atomic charges =     0.000000

 -----------------------------------------------------------------
                    Cartesian Multipole Moments
 -----------------------------------------------------------------
    Charge (ESU x 10^10)
                 0.0000
    Dipole Moment (Debye)
         X      -0.6509      Y      -0.9753      Z       2.2612
       Tot       2.5472
    Quadrupole Moments (Debye-Ang)
        XX     -55.3647     XY       0.9329     YY     -62.9752
        XZ       4.6638     YZ      -2.2277     ZZ     -54.8330
    Octopole Moments (Debye-Ang^2)
       XXX    -365.4079    XXY     -83.9976    XYY    -127.6662
       YYY    -304.2317    XXZ      29.0386    XYZ      -3.3806
       YYZ       9.2512    XZZ    -125.3043    YZZ     -91.7448
       ZZZ      59.4931
    Hexadecapole Moments (Debye-Ang^3)
      XXXX   -2424.8475   XXXY    -607.5143   XXYY    -604.0904
      XYYY    -665.3297   YYYY   -1296.5692   XXXZ     -26.5513
      XXYZ      60.0521   XYYZ     -46.2873   YYYZ     208.9733
      XXZZ    -524.5737   XYZZ    -222.2625   YYZZ    -308.8456
      XZZZ     -45.2565   YZZZ     190.9901   ZZZZ    -744.2040
 -----------------------------------------------------------------
Archival summary:
1\1\compute-0-13.local\SP\ProcedureUnspecified\BasisUnspecified\199\meili\WedSep2922:57:272021WedSep2922:57:272021\0\\#,ProcedureUnspecified,BasisUnspecified,\\0,1\C\C,1,1.39109\H,2,1.07811,1,120.224\C,2,1.3851,1,119.053,3,-179.56,0\H,4,1.08197,2,119.408,1,179.808,0\C,4,1.38818,2,121.404,1,1.20282,0\H,6,1.08049,4,119.665,2,179.297,0\C,6,1.37699,4,121.036,2,-1.0267,0\H,8,1.07773,6,120.615,4,178.624,0\C,8,1.39153,6,117.834,4,-0.43924,0\N,10,1.37429,8,131.572,6,178.422,0\H,11,1.00705,10,124.898,8,-16.8759,0\C,11,1.37536,10,108.841,8,-178.753,0\H,13,1.07362,11,123.776,10,-176.286,0\C,13,1.35157,11,110.936,10,0.270044,0\C,15,1.48984,13,127.503,11,176.351,0\H,16,1.08988,15,108.58,13,150.875,0\H,16,1.09061,15,106.058,13,-94.8599,0\H,16,1.1,15,117.822,13,25.5605,0\\\@

 Total job time:  38388.65s(wall), 228139.86s(cpu) 
 Wed Sep 29 22:57:27 2021

        *************************************************************
        *                                                           *
        *  Thank you very much for using Q-Chem.  Have a nice day.  *
        *                                                           *
        *************************************************************


Done Job For Fragment 0
calling putenv with: QCSCRATCH=/home/meili/scratch 
calling putenv with: QCTHREADS=8 
Creating input file /home/meili/scratch/qchem22675/Frg2.input
using default PutDataFrgm: nothing
calling putenv with: QCSCRATCH=/home/meili/scratch/qchem22675/ 
Spawning Job For Fragment 1
                  Welcome to Q-Chem
     A Quantum Leap Into The Future Of Chemistry


 Q-Chem 5.2 (devel), Q-Chem, Inc., Pleasanton, CA (2019)

 Yihan Shao,  Zhengting Gan,  E. Epifanovsky,  A. T. B. Gilbert,  M. Wormit,  
 J. Kussmann,  A. W. Lange,  A. Behn,  Jia Deng,  Xintian Feng,  D. Ghosh,  
 M. Goldey,  P. R. Horn,  L. D. Jacobson,  I. Kaliman,  T. Kus,  A. Landau,  
 Jie Liu,  E. I. Proynov,  R. M. Richard,  R. P. Steele,  E. J. Sundstrom,  
 H. L. Woodcock III,  P. M. Zimmerman,  D. Zuev,  B. Albrecht,  E. Alguire,  
 S. A. Baeppler,  D. Barton,  Z. Benda,  Y. A. Bernard,  E. J. Berquist,  
 K. B. Bravaya,  H. Burton,  D. Casanova,  Chun-Min Chang,  Yunqing Chen,  
 A. Chien,  K. D. Closser,  M. P. Coons,  S. Coriani,  S. Dasgupta,  
 A. L. Dempwolff,  M. Diedenhofen,  Hainam Do,  R. G. Edgar,  Po-Tung Fang,  
 S. Faraji,  S. Fatehi,  Qingguo Feng,  K. D. Fenk,  J. Fosso-Tande,  
 J. Gayvert,  Qinghui Ge,  A. Ghysels,  G. Gidofalvi,  J. Gomes,  
 J. Gonthier,  A. Gunina,  D. Hait,  M. W. D. Hanson-Heine,  
 P. H. P. Harbach,  A. W. Hauser,  M. F. Herbst,  J. E. Herr,  
 E. G. Hohenstein,  Z. C. Holden,  Kerwin Hui,  B. C. Huynh,  T.-C. Jagau,  
 Hyunjun Ji,  B. Kaduk,  K. Khistyaev,  Jaehoon Kim,  P. Klunzinger,  K. Koh,  
 D. Kosenkov,  L. Koulias,  T. Kowalczyk,  C. M. Krauter,  A. Kunitsa,  
 Ka Un Lao,  A. Laurent,  K. V. Lawler,  Joonho Lee,  D. Lefrancois,  
 S. Lehtola,  D. S. Levine,  Yi-Pei Li,  You-Sheng Lin,  Fenglai Liu,  
 E. Livshits,  A. Luenser,  P. Manohar,  E. Mansoor,  S. F. Manzer,  
 Shan-Ping Mao,  Yuezhi Mao,  N. Mardirossian,  A. V. Marenich,  
 T. Markovich,  L. A. Martinez-Martinez,  S. A. Maurer,  N. J. Mayhall,  
 S. C. McKenzie,  J.-M. Mewes,  P. Morgante,  A. F. Morrison,  
 J. W. Mullinax,  K. Nanda,  T. S. Nguyen-Beck,  R. Olivares-Amaya,  
 J. A. Parkhill,  Zheng Pei,  T. M. Perrine,  F. Plasser,  P. Pokhilko,  
 S. Prager,  A. Prociuk,  E. Ramos,  D. R. Rehn,  F. Rob,  M. Scheurer,  
 M. Schneider,  N. Sergueev,  S. M. Sharada,  S. Sharma,  D. W. Small,  
 T. Stauch,  T. Stein,  Yu-Chuan Su,  A. J. W. Thom,  A. Tkatchenko,  
 T. Tsuchimochi,  N. M. Tubman,  L. Vogt,  M. L. Vidal,  O. Vydrov,  
 M. A. Watson,  J. Wenzel,  M. de Wergifosse,  T. A. Wesolowski,  A. White,  
 J. Witte,  A. Yamada,  Jun Yang,  K. Yao,  S. Yeganeh,  S. R. Yost,  
 Zhi-Qiang You,  A. Zech,  Igor Ying Zhang,  Xing Zhang,  Yan Zhao,  
 Ying Zhu,  B. R. Brooks,  G. K. L. Chan,  C. J. Cramer,  M. S. Gordon,  
 W. J. Hehre,  A. Klamt,  M. W. Schmidt,  C. D. Sherrill,  D. G. Truhlar,  
 A. Aspuru-Guzik,  R. Baer,  A. T. Bell,  N. A. Besley,  Jeng-Da Chai,  
 A. E. DePrince, III,  R. A. DiStasio Jr.,  A. Dreuw,  B. D. Dunietz,  
 T. R. Furlani,  Chao-Ping Hsu,  Yousung Jung,  Jing Kong,  D. S. Lambrecht,  
 WanZhen Liang,  C. Ochsenfeld,  V. A. Rassolov,  L. V. Slipchenko,  
 J. E. Subotnik,  T. Van Voorhis,  J. M. Herbert,  A. I. Krylov,  
 P. M. W. Gill,  M. Head-Gordon

 Contributors to earlier versions of Q-Chem not listed above: 
 R. D. Adamson,  B. Austin,  J. Baker,  G. J. O. Beran,  K. Brandhorst,  
 S. T. Brown,  E. F. C. Byrd,  A. K. Chakraborty,  C.-L. Cheng,  
 Siu Hung Chien,  D. M. Chipman,  D. L. Crittenden,  H. Dachsel,  
 R. J. Doerksen,  A. D. Dutoi,  L. Fusti-Molnar,  W. A. Goddard III,  
 A. Golubeva-Zadorozhnaya,  S. R. Gwaltney,  G. Hawkins,  A. Heyden,  
 S. Hirata,  G. Kedziora,  F. J. Keil,  C. Kelley,  Jihan Kim,  R. A. King,  
 R. Z. Khaliullin,  P. P. Korambath,  W. Kurlancheek,  A. M. Lee,  M. S. Lee,  
 S. V. Levchenko,  Ching Yeh Lin,  D. Liotard,  R. C. Lochan,  I. Lotan,  
 P. E. Maslen,  N. Nair,  D. P. O'Neill,  D. Neuhauser,  E. Neuscamman,  
 C. M. Oana,  R. Olson,  B. Peters,  R. Peverati,  P. A. Pieniazek,  
 Y. M. Rhee,  J. Ritchie,  M. A. Rohrdanz,  E. Rosta,  N. J. Russ,  
 H. F. Schaefer III,  N. E. Schultz,  N. Shenvi,  A. C. Simmonett,  A. Sodt,  
 D. Stuck,  K. S. Thanthiriwatte,  V. Vanovschi,  Tao Wang,  A. Warshel,  
 C. F. Williams,  Q. Wu,  X. Xu,  W. Zhang

 Please cite Q-Chem as follows:
 Y. Shao et al., Mol. Phys. 113, 184-215 (2015)
 DOI: 10.1080/00268976.2014.952696

 Q-Chem 5.2.1 for Intel X86 EM64T Linux

 Parts of Q-Chem use Armadillo 8.300.2 (Tropical Shenanigans).
 http://arma.sourceforge.net/

 Q-Chem begins on Wed Sep 29 22:57:28 2021  

compute-0-13.local
Host: 0

     Scratch files written to /home/meili/scratch/qchem22675//Frg2//
NAlpha2: 58
NElect   58
Mult     1
Symmetry turned off for PCM/SM12/SMD calculation

Checking the input file for inconsistencies... 	...done.

--------------------------------------------------------------
User input:
--------------------------------------------------------------
$molecule
0 1
 6	-4.4846625223	-2.9697451613	-1.7101648275
 6	-1.3546625223	-1.6487451613	-0.0211648275
 6	-2.2316625223	-2.1447451613	-0.9871648275
 6	-1.8016625223	-1.4637451613	1.2818351725
 6	-3.5366625223	-2.4597451613	-0.6591648275
 6	-3.1076625223	-1.7867451613	1.6298351725
 6	-3.9606625223	-2.2917451613	0.6528351725
 8	-0.9126625223	-0.9757451613	2.1898351725
 1	-0.3356625223	-1.4197451613	-0.2951648275
 1	-1.8806625223	-2.2787451613	-2.0031648275
 1	-0.0196625223	-1.1807451613	1.9238351725
 1	-3.4476625223	-1.6457451613	2.6458351725
 1	-5.0176625223	-3.8387451613	-1.3201648275
 1	-3.9096625223	-3.2967451613	-2.5761648275
 1	-4.9786625223	-2.5447451613	0.9198351725
 1	-5.2163645223	-2.2066051613	-2.0138548275
$end
$rem
EDA2		1
METHOD		WB97X-V
BASIS		DEF2-TZVPD
XC_GRID		000099000590
NL_GRID		1
UNRESTRICTED		FALSE
MAX_SCF_CYCLES		200
SYMMETRY		FALSE
SYM_IGNORE		TRUE
BASIS_LIN_DEP_THRESH		6
THRESH		14
SCF_CONVERGENCE		8
SCF_PRINT_FRGM		TRUE
SOLVENT_METHOD		PCM
!required keywords
JOBTYPE		SP
SYM_IGNORE		TRUE
SUBSYSTEM		TRUE
GEN_SCFMAN		TRUE
CHILD_INSTRUCTION		2
SYM_IGNORE		TRUE
SCFMI		0
RI_K 0		
PARI_K 0		
MIN_PARI_K 0		
IARI_K 0		
OCC_RI_K 0		
PURECART		1111
MEM_STATIC		2000
MEM_TOTAL		2000
GUI		0
CHILD_MP		1
CHILD_MP_ORDERS		232
FRZ_RELAX		0
FRZ_RELAX_METHOD		0
EDA_CLS_ELEC		1
EDA_CLS_DISP		0
FRZ_ORTHO_DECOMP		1
EDA2		FALSE
FRGM_METHOD		FALSE
CIS_N_ROOTS  0
LOCAL_CIS    0
CIS_RLX_DNS  1
$end
$pcm
THEORY                  CPCM
METHOD                  SWIG
SOLVER                  INVERSION
RADII                   UFF
HPOINTS                 302
HEAVYPOINTS             302
PRINTLEVEL              0
$end
$solvent
DIELECTRIC              78.390000 ! water
$end
--------------------------------------------------------------
 ----------------------------------------------------------------
             Standard Nuclear Orientation (Angstroms)
    I     Atom           X                Y                Z
 ----------------------------------------------------------------
    1      C      -4.4846625223    -2.9697451613    -1.7101648275
    2      C      -1.3546625223    -1.6487451613    -0.0211648275
    3      C      -2.2316625223    -2.1447451613    -0.9871648275
    4      C      -1.8016625223    -1.4637451613     1.2818351725
    5      C      -3.5366625223    -2.4597451613    -0.6591648275
    6      C      -3.1076625223    -1.7867451613     1.6298351725
    7      C      -3.9606625223    -2.2917451613     0.6528351725
    8      O      -0.9126625223    -0.9757451613     2.1898351725
    9      H      -0.3356625223    -1.4197451613    -0.2951648275
   10      H      -1.8806625223    -2.2787451613    -2.0031648275
   11      H      -0.0196625223    -1.1807451613     1.9238351725
   12      H      -3.4476625223    -1.6457451613     2.6458351725
   13      H      -5.0176625223    -3.8387451613    -1.3201648275
   14      H      -3.9096625223    -3.2967451613    -2.5761648275
   15      H      -4.9786625223    -2.5447451613     0.9198351725
   16      H      -5.2163645223    -2.2066051613    -2.0138548275
 ----------------------------------------------------------------
 Nuclear Repulsion Energy =         343.98737701 hartrees
 There are       29 alpha and       29 beta electrons
 Requested basis set is def2-TZVPD
 There are 145 shells and 371 basis functions

 Total QAlloc Memory Limit   2000 MB
 Mega-Array Size      1956 MB
 MEM_STATIC part      2000 MB
 Discretize the solute cavity surface with Lebedev spheres
	Using 302 Lebedev grid points for each H atom
	Using 302 Lebedev grid points for other atoms
	Atomic van der Waals radii will be scaled by 1.20
 Remove points where switching function is < 1.0e-08
 Keep 1853 surface tesserae and discard 2979 interior tesserae
 Molecular Surface Area = 190.146 Angst**2
 A cutoff of  1.0D-14 yielded  10049 shell pairs
 There are     67115 function pairs (     85820 Cartesian)
 Smallest overlap matrix eigenvalue = 5.28E-07
 Linear dependence detected in AO basis
 Tighter screening thresholds may be required for diffuse basis sets
 Use S2THRESH > 14 and THRESH = 14 in case of SCF convergence issues
 Number of orthogonalized atomic orbitals = 370
 Maximum deviation from orthogonality = 1.416E-10

 Scale SEOQF with 1.000000e-02/1.000000e-01/1.000000e-01

 Standard Electronic Orientation quadrupole field applied
 Nucleus-field energy     =     0.0000000070 hartrees
 Guess from superposition of atomic densities
 Warning:  Energy on first SCF cycle will be non-variational
 SAD guess density has 58.000000 electrons

 -----------------------------------------------------------------------
  General SCF calculation program by
  Eric Jon Sundstrom, Paul Horn, Yuezhi Mao, Dmitri Zuev, Alec White,
  David Stuck, Shaama M.S., Shane Yost, Joonho Lee, David Small,
  Daniel Levine, Susi Lehtola, Hugh Burton, Evgeny Epifanovsky,
  Bang C. Huynh
 -----------------------------------------------------------------------
 Exchange:     0.1670 Hartree-Fock + 1.0000 wB97X-V + LR-HF
 Correlation:  1.0000 wB97X-V
 Using Euler-Maclaurin-Lebedev (99,590) quadrature formula
 Nonlocal Correlation:  VV10 with C = 0.0100 and b = 6.00 and scale = 1.00000
 Grid used for NLC:  SG-1 standard quadrature
Energy prior to optimization (guess energy) = -346.729764639154
Begin Timing: Total SCF Calculation
begin iterations for algorithm: DIIS         
the SCF tolerance is set to 1.00e-08
    1    -346.7297646392      2.22e-03     00000 
    2    -346.7763662043      1.72e-03     00000 
    3    -346.8137110201      2.79e-04     00000 
    4    -346.8148073110      1.27e-04     00000 
    5    -346.8150781416      2.26e-05     00000 
    6    -346.8150894248      7.98e-06     00000 
    7    -346.8150909239      3.73e-06     00000 
    8    -346.8150912401      8.72e-07     00000 
    9    -346.8150912727      4.22e-07     00000 
   10    -346.8150912792      1.53e-07     00000 
   11    -346.8150912805      4.76e-08     00000 
   12    -346.8150912807      1.93e-08     00000 
   13    -346.8150912807      5.14e-09     00000 Convergence criterion met
Timing for Total SCF: 1400.00s (wall), 7843.41s (cpu)

************** Final PCM Free Energy Summary **************
 G_electrostatic  =      -0.00544932 hartree =      -3.41950058 kcal/mol
 G_cavitation     =       0.00000000 hartree =       0.00000000 kcal/mol
 G_dispersion     =       0.00000000 hartree =       0.00000000 kcal/mol
 G_repulsion      =       0.00000000 hartree =       0.00000000 kcal/mol
 --------------------------------------------------
 Non-electrostatic Free Energy =       0.00000000 hartree =       0.00000000 kcal/mol
 Total                         =      -0.00544932 hartree =      -3.41950058 kcal/mol
 --------------------------------------------------
 SCF Energy (H0 + V/2)                       =    -346.81509128 
 Solute Internal Energy (H0)                 =    -346.80964196 
 Total Free Energy (H0 + V/2 + non-elec)     =    -346.81509128 hartree
                                             = -217629.75446435 kcal/mol
***********************************************************

E_pcm = -0.0054493211
Multipole orders to be included
        2
        3
computing dipole RHS
computing quadrupole RHS
total number of RHS in solve_reponses: 8
RHS batch sizes
        8
Beginning Block Conjugate Gradient Iterations. Batch Number: 0
computing hessian-vector products by finite difference
              1      6.05e-01     00000 Conjugate Gradient Iteration
computing hessian-vector products by finite difference
              2      1.93e-01     00000 Conjugate Gradient Iteration
computing hessian-vector products by finite difference
              3      4.85e-02     00000 Conjugate Gradient Iteration
computing hessian-vector products by finite difference
              4      1.42e-02     00000 Conjugate Gradient Iteration
computing hessian-vector products by finite difference
              5      4.29e-03     00000 Conjugate Gradient Iteration
computing hessian-vector products by finite difference
              6      1.29e-03     00000 Conjugate Gradient Iteration
computing hessian-vector products by finite difference
              7      3.48e-04     00000 Conjugate Gradient Iteration
computing hessian-vector products by finite difference
              8      7.29e-05     00000 Conjugate Gradient Iteration
computing hessian-vector products by finite difference
              9      1.31e-05     00000 Conjugate Gradient Iteration
computing hessian-vector products by finite difference
             10      1.77e-06     00000 Conjugate Gradient Iteration
computing hessian-vector products by finite difference
             11      3.07e-07     00000 Conjugate Gradient Iteration
computing hessian-vector products by finite difference
             12      6.20e-08     00000 Conjugate Gradient Iteration
computing hessian-vector products by finite difference
             13      1.09e-08     00000 Conjugate Gradient Iteration
computing hessian-vector products by finite difference
             14      1.75e-09     00000 CG Converged
batch 0 complete
Done Calculating Responses
TESTING ORTHOGONALIZATION OF MULTIPOLE BASIS
Multipole virts passed orthogonality test
Virts Per Order
           87
          145

 --------------------------------------------------------------

                    Orbital Energies (a.u.)
 --------------------------------------------------------------

 Alpha MOs
 -- Occupied --
-19.2419 -10.3338 -10.2744 -10.2739 -10.2729 -10.2728 -10.2708 -10.2612
 -1.1970  -0.9976  -0.9032  -0.8844  -0.8105  -0.7486  -0.7160  -0.6669
 -0.6039  -0.5829  -0.5556  -0.5397  -0.5350  -0.5260  -0.5065  -0.4761
 -0.4547  -0.4481  -0.4350  -0.3530  -0.3161
 -- Virtual --
  0.0566   0.0592   0.0686   0.0784   0.0831   0.0946   0.1091   0.1094
  0.1130   0.1315   0.1465   0.1509   0.1544   0.1705   0.1770   0.1911
  0.1955   0.2084   0.2118   0.2262   0.2357   0.2385   0.2467   0.2551
  0.2607   0.2634   0.2667   0.2771   0.2839   0.2957   0.2967   0.3037
  0.3056   0.3098   0.3115   0.3245   0.3340   0.3357   0.3441   0.3507
  0.3532   0.3537   0.3617   0.3696   0.3753   0.3804   0.3863   0.3918
  0.3944   0.3978   0.4045   0.4085   0.4130   0.4141   0.4252   0.4338
  0.4377   0.4534   0.4565   0.4628   0.4691   0.4698   0.4749   0.4789
  0.4851   0.4955   0.5009   0.5054   0.5115   0.5159   0.5268   0.5302
  0.5395   0.5491   0.5499   0.5588   0.5627   0.5754   0.5794   0.5889
  0.5930   0.6000   0.6180   0.6319   0.6357   0.6513   0.6634   0.6746
  0.6797   0.6828   0.6926   0.6952   0.7032   0.7056   0.7196   0.7266
  0.7316   0.7447   0.7489   0.7521   0.7585   0.7695   0.7824   0.7830
  0.7920   0.7927   0.7966   0.8055   0.8078   0.8187   0.8278   0.8341
  0.8388   0.8456   0.8475   0.8615   0.8652   0.8755   0.8891   0.8941
  0.9061   0.9138   0.9299   0.9411   0.9585   0.9675   0.9881   0.9991
  1.0313   1.0329   1.0402   1.0465   1.0544   1.0579   1.0731   1.0777
  1.1051   1.1286   1.1458   1.1612   1.2037   1.2303   1.2456   1.2864
  1.2986   1.3137   1.3370   1.3554   1.3674   1.3764   1.3974   1.4404
  1.4566   1.4627   1.4863   1.4906   1.5309   1.5597   1.6011   1.6166
  1.6249   1.6466   1.6769   1.6946   1.7176   1.7230   1.7703   1.7867
  1.8245   1.8306   1.8389   1.8556   1.8676   1.9083   1.9120   1.9279
  1.9325   1.9499   1.9742   1.9788   2.0091   2.0198   2.0332   2.0498
  2.0651   2.0766   2.0914   2.0961   2.1208   2.1596   2.1979   2.1998
  2.2301   2.2459   2.2543   2.2757   2.3073   2.3133   2.3521   2.3729
  2.4021   2.4067   2.4370   2.4570   2.4981   2.5128   2.5282   2.5562
  2.5679   2.6008   2.6318   2.6386   2.6579   2.6694   2.6931   2.7309
  2.7434   2.7631   2.7769   2.8127   2.8179   2.8244   2.8546   2.8626
  2.9079   2.9139   2.9386   2.9513   2.9596   2.9636   2.9755   3.0032
  3.0191   3.0358   3.0557   3.0823   3.1019   3.1250   3.1555   3.1670
  3.1791   3.2048   3.2209   3.2249   3.2555   3.2621   3.2835   3.2929
  3.3038   3.3630   3.3781   3.3858   3.3927   3.4175   3.4370   3.4538
  3.4673   3.4759   3.4964   3.5047   3.5178   3.5317   3.5482   3.5525
  3.5621   3.5690   3.5794   3.5918   3.6119   3.6258   3.6467   3.6577
  3.6988   3.7083   3.7494   3.7580   3.7900   3.8089   3.8584   3.9069
  3.9372   3.9640   3.9873   4.0018   4.0485   4.0693   4.1514   4.1733
  4.2440   4.2685   4.2807   4.3073   4.3297   4.3410   4.3497   4.3743
  4.3864   4.3977   4.4194   4.4647   4.4981   4.5561   4.5987   4.6124
  4.7498   4.7563   4.7930   4.8066   4.8682   4.9127   5.0260   5.0650
  5.0901   5.1186   5.1507   5.2964   5.3098   5.4479   5.4790   5.5283
  5.5889   5.6909   5.7584   5.7628   5.9728   6.2048   6.4864   6.5363
  6.7355   6.8826   7.0043   7.2909   7.4339  22.6674  22.6789  22.9469
 22.9940  23.0410  23.2079  23.5288  44.4186
 --------------------------------------------------------------

          Ground-State Mulliken Net Atomic Charges

     Atom                 Charge (a.u.)
  ----------------------------------------
      1 C                    -1.028960
      2 C                    -0.456578
      3 C                    -0.606855
      4 C                     0.725558
      5 C                     0.579566
      6 C                    -0.658578
      7 C                    -0.356030
      8 O                    -0.493353
      9 H                     0.285640
     10 H                     0.286820
     11 H                     0.310484
     12 H                     0.326133
     13 H                     0.261536
     14 H                     0.273490
     15 H                     0.334597
     16 H                     0.216530
  ----------------------------------------
  Sum of atomic charges =     0.000000

 -----------------------------------------------------------------
                    Cartesian Multipole Moments
 -----------------------------------------------------------------
    Charge (ESU x 10^10)
                 0.0000
    Dipole Moment (Debye)
         X       0.7558      Y      -0.8438      Z      -1.3557
       Tot       1.7666
    Quadrupole Moments (Debye-Ang)
        XX     -42.1054     XY       2.1892     YY     -48.4838
        XZ       2.7764     YZ       1.6756     ZZ     -48.9094
    Octopole Moments (Debye-Ang^2)
       XXX     351.5704    XXY      73.2697    XYY     126.3811
       YYY     298.1834    XXZ      -7.2345    XYZ      -4.4997
       YYZ     -17.1430    XZZ     128.1379    YZZ      91.5073
       ZZZ     -45.4166
    Hexadecapole Moments (Debye-Ang^3)
      XXXX   -2466.3000   XXXY    -759.1191   XXYY    -615.0956
      XYYY    -890.4740   YYYY   -1375.3220   XXXZ     -68.1598
      XXYZ     -18.3644   XYYZ       2.5585   YYYZ     -15.2722
      XXZZ    -517.2391   XYZZ    -284.7720   YYZZ    -315.5579
      XZZZ     -35.9003   YZZZ     -22.4272   ZZZZ    -636.9689
 -----------------------------------------------------------------
Archival summary:
1\1\compute-0-13.local\SP\ProcedureUnspecified\BasisUnspecified\178\meili\ThuSep3004:27:232021ThuSep3004:27:232021\0\\#,ProcedureUnspecified,BasisUnspecified,\\0,1\C\O,1,1.36122\H,2,0.95406,1,110.382\C,1,1.38963,2,122.01,3,154.085,0\H,4,1.08062,1,120.054,2,0.477344,0\C,1,1.38991,2,117.582,3,-25.1224,0\H,6,1.07976,1,120.875,2,0.506179,0\C,4,1.39182,1,118.982,2,-179.474,0\H,8,1.08241,4,119.212,1,179.989,0\C,8,1.38901,4,121.322,1,-0.89262,0\C,10,1.38197,8,119.004,4,1.44088,0\H,11,1.08324,10,120.026,8,179.39,0\C,10,1.50446,8,120.565,4,-178.229,0\H,13,1.08973,10,108.929,8,-164.025,0\H,13,1.09149,10,109.146,8,-46.7784,0\H,13,1.1,10,112.138,8,74.1518,0\\\@

 Total job time:  19794.71s(wall), 112796.05s(cpu) 
 Thu Sep 30 04:27:23 2021

        *************************************************************
        *                                                           *
        *  Thank you very much for using Q-Chem.  Have a nice day.  *
        *                                                           *
        *************************************************************


Done Job For Fragment 1
calling putenv with: QCSCRATCH=/home/meili/scratch 
calling putenv with: QCTHREADS=8 
Doing General SCFMI
 Exchange:     0.1670 Hartree-Fock + 1.0000 wB97X-V + LR-HF
 Correlation:  1.0000 wB97X-V
 Using Euler-Maclaurin-Lebedev (99,590) quadrature formula
 Nonlocal Correlation:  VV10 with C = 0.0100 and b = 6.00 and scale = 1.00000
 Grid used for NLC:  SG-1 standard quadrature
performing fock build before subrot guess so that all methods have access
Printing subrot_rss_gen Method Specification:
Occupied Subspace Method is 0
Virtual Subspace Method is 0
Energy of the unrelaxed supersystem initial determinant -749.960377184432
performing fock build before subrot guess so that all methods have access
Printing subrot_rss_gen Method Specification:
Occupied Subspace Method is 0
Virtual Subspace Method is 0
Energy of the unrelaxed supersystem initial determinant w/ solvent -749.968801473995
write pseudocanon occs and virts to disk
write pseudocanon orbital energies to disk
Tolerance of ortho_decomp_scf: 1.00e-06
GDM subspace size: 20
Beginning the Orthogonal Decomposition of the Initial Supersystem Wavefunction
    1    -749.9232801744      3.19e-02     ortho_decomp Preconditoned Steepest Descent
    2    -749.9287178270      7.75e-04     ortho_decomp BFGS Step
    3    -749.9287346972      5.79e-05     ortho_decomp BFGS Step
    4    -749.9287347249      2.24e-06     ortho_decomp BFGS Step
    5    -749.9287347250      7.55e-08     ortho_decomp 00000 Convergence criterion met
 Hartree-Fock
 Hartree-Fock
 Hartree-Fock
Doing General SCFMI
 Exchange:     0.1670 Hartree-Fock + 1.0000 wB97X-V + LR-HF
 Correlation:  1.0000 wB97X-V
 Using Euler-Maclaurin-Lebedev (99,590) quadrature formula
 Nonlocal Correlation:  VV10 with C = 0.0100 and b = 6.00 and scale = 1.00000
 Grid used for NLC:  SG-1 standard quadrature
performing fock build at end of subrot_r(subrot) constructor so that all methods have access
<S^2> of initial wavefunction before polarization iterations 0.0000000000
Beginning iterations for the determination of the polarized wavefunction
Energy prior to optimization (guess energy) = -749.968801473994
Begin Timing: Total SCF Calculation
begin iterations for algorithm: DIIS         
the SCF tolerance is set to 1.00e-08
    1    -749.9688014740      1.26e-04     00000 
    2    -749.9711261866      4.38e-05     00000 
    3    -749.9712937502      1.83e-05     00000 
    4    -749.9713293327      8.77e-06     00000 
    5    -749.9713373738      2.82e-06     00000 
    6    -749.9713388571      1.37e-06     00000 
    7    -749.9713392061      5.45e-07     00000 
    8    -749.9713392714      2.50e-07     00000 
    9    -749.9713392809      8.95e-08     00000 
   10    -749.9713392830      4.55e-08     00000 
   11    -749.9713392833      2.00e-08     00000 
   12    -749.9713392833      7.64e-09     00000 Convergence criterion met
write pseudocanon occs and virts to disk
write pseudocanon orbital energies to disk
Timing for Total SCF: 8196.00s (wall), 49645.33s (cpu)
<S^2> of polarized wavefunction after polarization iterations 0.0000000000
relaxing scfmi constraint to allow all rotations in the entire AO span
Doing General SCFMI
 Exchange:     0.1670 Hartree-Fock + 1.0000 wB97X-V + LR-HF
 Correlation:  1.0000 wB97X-V
 Using Euler-Maclaurin-Lebedev (99,590) quadrature formula
 Nonlocal Correlation:  VV10 with C = 0.0100 and b = 6.00 and scale = 1.00000
 Grid used for NLC:  SG-1 standard quadrature
performing fock build at end of subrot_r(subrot) constructor so that all methods have access
<S^2> of polarized wavefunction before ct-allowed iterations 0.0000000000
Beginning iterations for the determination of the CT-Allowed wavefunction
Energy prior to optimization (guess energy) = -749.971339283341
Begin Timing: Total SCF Calculation
begin iterations for algorithm: DIIS         
the SCF tolerance is set to 1.00e-08
    1    -749.9713392833      1.01e-04     00000 
    2    -749.9751915476      1.37e-05     00000 
    3    -749.9753220948      3.06e-06     00000 
    4    -749.9753254223      2.63e-06     00000 
    5    -749.9753271392      2.59e-07     00000 
    6    -749.9753272003      1.27e-07     00000 
    7    -749.9753272082      3.34e-08     00000 
    8    -749.9753272089      1.65e-08     00000 
    9    -749.9753272090      3.80e-09     00000 Convergence criterion met
write pseudocanon occs and virts to disk
write pseudocanon orbital energies to disk
Timing for Total SCF: 6349.00s (wall), 38198.20s (cpu)
<S^2> of ct_allowed wavefunction after ct-allowed iterations 0.0000000000

================================
        Results of EDA2         
================================
Basic EDA Quantities
--------------------
Fragment Energies (Ha):
1 -403.1663569025
2 -346.8150912807
--------------------
  E_prp (kJ/mol) = 0.0000
  E_sol (kJ/mol) = 7.9849
  E_frz (kJ/mol) = 25.2194
  E_pol (kJ/mol) = -6.6631
  E_vct (kJ/mol) = -10.4704
  E_int (kJ/mol) = 16.0708
--------------------


Initial Wavefunction Decomposition
--------------------
  --------------------
  Orthogonal Fragment Subspace Decomposition:
  --------------------
     E_elec   (ELEC)   (kJ/mol) = -39.9877
     E_pauli  (PAULI)  (kJ/mol) = 87.4549
     E_disp   (DISP)   (kJ/mol) = -22.2478
     --------------------
     Terms summing to E_pauli:
     --------------------
        E_kep_pauli       (kJ/mol) = 108.2977
        E_disp_free_pauli (kJ/mol) = -20.8428
  --------------------
  Classical Frozen Decomposition:
  --------------------
     E_cls_elec  (CLS ELEC)  (kJ/mol) = -9.8133
     E_cls_pauli (CLS PAULI) (kJ/mol) = 35.0327
    [E_mod_pauli (MOD PAULI) (kJ/mol) = 57.2804 (CLS PAULI - DISP from orthogonal decomposition) ]
  --------------------
--------------------

Simplified EDA Summary (kJ/mol)
--------------------
 PREPARATION     0.0000
 SOLVATION       7.9849
 FROZEN          47.4672      (does not include dispersion)
[PAULI           87.4549]     (if this is negligible, then frozen describes electrostatics)
 DISPERSION      -22.2478
 POLARIZATION    -6.6631
 CHARGE TRANSFER -10.4704
 TOTAL           16.0708     (PRP + SOL + FRZ + DISP + POL + CT)
--------------------

 --------------------------------------------------------------

                    Orbital Energies (a.u.)
 --------------------------------------------------------------

 Alpha MOs
 -- Occupied --
-19.2554 -14.4514 -10.3396 -10.3054 -10.2947 -10.2777 -10.2773 -10.2767
-10.2761 -10.2752 -10.2722 -10.2703 -10.2680 -10.2678 -10.2640 -10.2638
-10.2637 -10.2626  -1.2124  -1.1213  -1.0017  -0.9854  -0.9384  -0.9077
 -0.8885  -0.8728  -0.8657  -0.8253  -0.8145  -0.7570  -0.7490  -0.7267
 -0.7164  -0.6820  -0.6791  -0.6537  -0.6096  -0.6023  -0.5895  -0.5860
 -0.5651  -0.5621  -0.5535  -0.5449  -0.5412  -0.5364  -0.5311  -0.5222
 -0.5134  -0.5119  -0.4968  -0.4838  -0.4797  -0.4585  -0.4569  -0.4550
 -0.4522  -0.4415  -0.4366  -0.3809  -0.3558  -0.3220  -0.3199  -0.2961
 -- Virtual --
  0.0488   0.0535   0.0568   0.0635   0.0654   0.0723   0.0775   0.0820
  0.0866   0.0927   0.0937   0.1000   0.1013   0.1046   0.1197   0.1232
  0.1263   0.1285   0.1387   0.1396   0.1447   0.1505   0.1522   0.1555
  0.1618   0.1683   0.1713   0.1748   0.1789   0.1856   0.1918   0.1945
  0.1985   0.2035   0.2068   0.2120   0.2146   0.2211   0.2244   0.2245
  0.2307   0.2358   0.2383   0.2421   0.2464   0.2479   0.2515   0.2548
  0.2573   0.2643   0.2669   0.2693   0.2699   0.2726   0.2752   0.2784
  0.2800   0.2868   0.2897   0.2921   0.2956   0.2978   0.2990   0.3043
  0.3057   0.3063   0.3132   0.3168   0.3180   0.3209   0.3224   0.3273
  0.3301   0.3328   0.3346   0.3360   0.3400   0.3428   0.3463   0.3485
  0.3517   0.3539   0.3552   0.3600   0.3616   0.3683   0.3706   0.3728
  0.3750   0.3772   0.3781   0.3811   0.3829   0.3871   0.3883   0.3918
  0.3948   0.3973   0.3999   0.4019   0.4046   0.4069   0.4109   0.4139
  0.4171   0.4230   0.4251   0.4258   0.4291   0.4341   0.4354   0.4399
  0.4408   0.4465   0.4488   0.4508   0.4528   0.4568   0.4574   0.4657
  0.4679   0.4683   0.4712   0.4740   0.4768   0.4831   0.4844   0.4867
  0.4872   0.4925   0.4958   0.5002   0.5015   0.5058   0.5085   0.5088
  0.5131   0.5139   0.5192   0.5239   0.5276   0.5299   0.5319   0.5366
  0.5375   0.5419   0.5449   0.5469   0.5538   0.5546   0.5578   0.5593
  0.5647   0.5666   0.5762   0.5786   0.5836   0.5849   0.5896   0.5929
  0.5954   0.5997   0.6017   0.6055   0.6084   0.6134   0.6180   0.6246
  0.6302   0.6350   0.6419   0.6422   0.6507   0.6533   0.6571   0.6592
  0.6629   0.6678   0.6717   0.6773   0.6807   0.6832   0.6836   0.6905
  0.6923   0.6960   0.7014   0.7051   0.7075   0.7089   0.7129   0.7160
  0.7193   0.7258   0.7286   0.7295   0.7366   0.7403   0.7436   0.7472
  0.7487   0.7553   0.7579   0.7593   0.7603   0.7625   0.7664   0.7677
  0.7702   0.7786   0.7791   0.7832   0.7873   0.7894   0.7925   0.7933
  0.7950   0.7980   0.8013   0.8051   0.8085   0.8087   0.8123   0.8144
  0.8165   0.8206   0.8279   0.8294   0.8315   0.8337   0.8382   0.8400
  0.8419   0.8428   0.8477   0.8547   0.8594   0.8606   0.8627   0.8652
  0.8695   0.8796   0.8838   0.8873   0.8904   0.8972   0.8996   0.9008
  0.9099   0.9163   0.9206   0.9217   0.9281   0.9310   0.9330   0.9367
  0.9469   0.9496   0.9545   0.9570   0.9620   0.9692   0.9731   0.9786
  0.9814   0.9942   1.0005   1.0041   1.0176   1.0206   1.0323   1.0358
  1.0423   1.0487   1.0533   1.0571   1.0594   1.0688   1.0727   1.0762
  1.0828   1.0836   1.0867   1.0941   1.0978   1.1043   1.1087   1.1150
  1.1197   1.1254   1.1322   1.1428   1.1528   1.1600   1.1658   1.1688
  1.1851   1.1872   1.1950   1.2044   1.2096   1.2164   1.2270   1.2374
  1.2489   1.2581   1.2597   1.2713   1.2769   1.2922   1.2965   1.3037
  1.3238   1.3412   1.3490   1.3556   1.3599   1.3681   1.3731   1.3806
  1.3852   1.3909   1.4072   1.4193   1.4252   1.4302   1.4370   1.4411
  1.4530   1.4657   1.4700   1.4762   1.4825   1.4926   1.5092   1.5181
  1.5266   1.5296   1.5452   1.5506   1.5629   1.5697   1.5843   1.5897
  1.5993   1.6149   1.6302   1.6431   1.6457   1.6553   1.6650   1.6687
  1.6757   1.6926   1.6979   1.7033   1.7105   1.7236   1.7489   1.7527
  1.7665   1.7729   1.7796   1.7862   1.7958   1.8044   1.8215   1.8330
  1.8446   1.8465   1.8515   1.8613   1.8839   1.8878   1.8952   1.9073
  1.9114   1.9155   1.9238   1.9264   1.9343   1.9389   1.9456   1.9490
  1.9605   1.9636   1.9729   1.9808   1.9876   1.9888   1.9983   2.0024
  2.0061   2.0134   2.0213   2.0266   2.0302   2.0422   2.0481   2.0560
  2.0792   2.0820   2.0847   2.0884   2.0992   2.1007   2.1040   2.1183
  2.1299   2.1397   2.1500   2.1650   2.1741   2.1837   2.1871   2.1942
  2.2104   2.2194   2.2236   2.2309   2.2429   2.2562   2.2603   2.2722
  2.2797   2.2903   2.2964   2.3118   2.3151   2.3255   2.3417   2.3564
  2.3731   2.3755   2.3970   2.4023   2.4115   2.4229   2.4251   2.4387
  2.4464   2.4529   2.4626   2.4733   2.4849   2.5082   2.5176   2.5276
  2.5321   2.5397   2.5495   2.5639   2.5776   2.5849   2.6031   2.6073
  2.6140   2.6161   2.6223   2.6390   2.6449   2.6460   2.6608   2.6753
  2.6834   2.6934   2.7042   2.7086   2.7215   2.7386   2.7502   2.7550
  2.7641   2.7662   2.7795   2.7972   2.8016   2.8036   2.8117   2.8148
  2.8258   2.8340   2.8376   2.8423   2.8577   2.8602   2.8695   2.8755
  2.8886   2.8955   2.9048   2.9138   2.9323   2.9376   2.9412   2.9443
  2.9530   2.9579   2.9619   2.9752   2.9794   2.9842   2.9947   3.0004
  3.0125   3.0240   3.0246   3.0322   3.0454   3.0584   3.0622   3.0697
  3.0785   3.0863   3.0976   3.1037   3.1089   3.1208   3.1272   3.1351
  3.1433   3.1493   3.1653   3.1771   3.1819   3.1926   3.1972   3.2057
  3.2170   3.2266   3.2297   3.2397   3.2451   3.2523   3.2569   3.2693
  3.2731   3.2767   3.2882   3.3003   3.3036   3.3103   3.3142   3.3189
  3.3340   3.3422   3.3605   3.3686   3.3716   3.3850   3.3937   3.3984
  3.4049   3.4109   3.4137   3.4195   3.4269   3.4347   3.4419   3.4543
  3.4564   3.4692   3.4716   3.4769   3.4851   3.4904   3.4997   3.5075
  3.5116   3.5160   3.5207   3.5339   3.5371   3.5406   3.5481   3.5542
  3.5597   3.5610   3.5736   3.5741   3.5788   3.5842   3.5896   3.5992
  3.6025   3.6083   3.6148   3.6282   3.6301   3.6356   3.6415   3.6469
  3.6552   3.6630   3.6761   3.6809   3.6984   3.7018   3.7065   3.7207
  3.7229   3.7341   3.7379   3.7452   3.7523   3.7657   3.7751   3.7887
  3.7934   3.8089   3.8156   3.8213   3.8308   3.8620   3.8629   3.8842
  3.9118   3.9164   3.9352   3.9558   3.9791   3.9917   3.9988   4.0042
  4.0127   4.0552   4.0619   4.0724   4.0899   4.1031   4.1101   4.1528
  4.1638   4.1979   4.2013   4.2160   4.2428   4.2515   4.2611   4.2671
  4.2815   4.2855   4.2982   4.3072   4.3129   4.3238   4.3292   4.3347
  4.3508   4.3550   4.3681   4.3775   4.3910   4.3922   4.4009   4.4134
  4.4290   4.4352   4.4410   4.4727   4.4785   4.5022   4.5075   4.5158
  4.5323   4.5613   4.5695   4.6090   4.6141   4.6176   4.6606   4.6694
  4.7018   4.7557   4.7636   4.7707   4.7860   4.8020   4.8095   4.8180
  4.8640   4.8770   4.9267   4.9356   4.9415   4.9884   5.0033   5.0092
  5.0387   5.0511   5.0700   5.0784   5.0963   5.1063   5.1397   5.1472
  5.1587   5.1590   5.2241   5.2313   5.2640   5.3006   5.3117   5.3170
  5.4103   5.4143   5.4500   5.4862   5.5118   5.5246   5.5566   5.5859
  5.5962   5.6223   5.6695   5.6972   5.7203   5.7588   5.7777   5.8098
  5.8657   5.9612   5.9732   5.9913   6.2327   6.3090   6.3531   6.4776
  6.5843   6.7680   6.9105   7.0557   7.3622   7.4732  22.6685  22.6797
 22.7297  22.7891  22.9727  22.9816  22.9933  23.0077  23.0200  23.0653
 23.2225  23.2644  23.2917  23.4937  23.5431  23.8172  32.9450  44.4878
 --------------------------------------------------------------

          Ground-State Mulliken Net Atomic Charges

     Atom                 Charge (a.u.)
  ----------------------------------------
      1 C                    -1.146025
      2 C                    -0.228781
      3 C                     0.251244
      4 C                     0.453337
      5 C                    -0.516322
      6 C                    -0.377737
      7 C                    -0.614117
      8 C                    -0.483527
      9 C                    -0.492221
     10 N                     0.327182
     11 H                     0.492900
     12 H                     0.355533
     13 H                     0.362404
     14 H                     0.356464
     15 H                     0.323738
     16 H                     0.328689
     17 H                     0.219908
     18 H                     0.276750
     19 H                     0.276555
     20 C                    -1.143657
     21 C                    -0.433712
     22 C                    -0.932339
     23 C                     0.738461
     24 C                     0.550605
     25 C                    -0.676330
     26 C                    -0.275458
     27 O                    -0.642783
     28 H                     0.524918
     29 H                     0.308236
     30 H                     0.315649
     31 H                     0.346663
     32 H                     0.283559
     33 H                     0.284409
     34 H                     0.360689
     35 H                     0.225113
  ----------------------------------------
  Sum of atomic charges =     0.000000

 -----------------------------------------------------------------
                    Cartesian Multipole Moments
 -----------------------------------------------------------------
    Charge (ESU x 10^10)
                 0.0000
    Dipole Moment (Debye)
         X      -0.2047      Y      -1.8144      Z       0.5969
       Tot       1.9210
    Quadrupole Moments (Debye-Ang)
        XX     -94.8213     XY       4.7698     YY    -109.9930
        XZ       7.1671     YZ      -0.6648     ZZ    -103.1982
    Octopole Moments (Debye-Ang^2)
       XXX     -17.1103    XXY     -12.8016    XYY      -2.9251
       YYY      -6.9696    XXZ      22.1723    XYZ      -7.9014
       YYZ      -8.6469    XZZ       1.5069    YZZ      -0.4237
       ZZZ      13.5353
    Hexadecapole Moments (Debye-Ang^3)
      XXXX   -4832.9393   XXXY   -1338.7807   XXYY   -1201.2191
      XYYY   -1541.1905   YYYY   -2655.7378   XXXZ     -92.1294
      XXYZ      42.5836   XYYZ     -43.7601   YYYZ     192.0142
      XXZZ   -1032.5021   XYZZ    -501.1613   YYZZ    -618.4310
      XZZZ     -83.5192   YZZZ     165.8761   ZZZZ   -1373.2388
 -----------------------------------------------------------------
Archival summary:
1\1\compute-0-13.local\SP\ProcedureUnspecified\BasisUnspecified\111617\meili\ThuSep3012:25:142021ThuSep3012:25:142021\0\\#,ProcedureUnspecified,BasisUnspecified,\\0,1\N\H,1,1.00705\C,1,1.37429,2,124.898\C,1,1.37536,2,123.57,3,159.309,0\H,4,1.07362,1,123.776,2,21.5441,0\C,4,1.35157,1,110.936,2,-161.9,0\C,3,1.39153,1,131.572,2,-16.8759,0\H,7,1.07773,3,121.544,1,-0.631987,0\C,7,1.37699,3,117.834,1,178.422,0\H,9,1.08049,7,119.299,3,179.238,0\C,9,1.38818,7,121.036,3,-0.43924,0\H,11,1.08197,9,119.174,7,-179.636,0\C,11,1.3851,9,121.404,7,-1.0267,0\H,13,1.07811,11,120.721,9,-178.355,0\C,13,1.39109,11,119.053,9,1.20282,0\C,6,1.48984,4,127.503,1,176.351,0\H,16,1.08988,6,108.58,4,150.875,0\H,16,1.09061,6,106.058,4,-94.8599,0\H,16,1.1,6,117.822,4,25.5605,0\H,2,1.52556,1,139.017,3,100.886,0\O,20,0.95406,2,109.008,1,-152.213,0\C,21,1.36122,20,110.382,2,116.176,0\C,22,1.38963,21,122.01,20,154.085,0\H,23,1.08062,22,120.054,21,0.477344,0\C,22,1.38991,21,117.582,20,-25.1224,0\H,25,1.07976,22,120.875,21,0.506179,0\C,23,1.39182,22,118.982,21,-179.474,0\H,27,1.08241,23,119.212,22,179.989,0\C,27,1.38901,23,121.322,22,-0.89262,0\C,29,1.38197,27,119.004,23,1.44088,0\H,30,1.08324,29,120.026,27,179.39,0\C,29,1.50446,27,120.565,23,-178.229,0\H,32,1.08973,29,108.929,27,-164.025,0\H,32,1.09149,29,109.146,27,-46.7784,0\H,32,1.1,29,112.138,27,74.1518,0\\\@

 Total job time:  86863.44s(wall), 180265.57s(cpu) 
 Thu Sep 30 12:25:14 2021

        *************************************************************
        *                                                           *
        *  Thank you very much for using Q-Chem.  Have a nice day.  *
        *                                                           *
        *************************************************************


