
Running Job 1 of 1 SSI-119PHE-124HIE-1_PCM_TZVPD.in
qchem SSI-119PHE-124HIE-1_PCM_TZVPD.in_63139.0 /tmp/qchem63139/ 0
/global/common/cori/software/qchem/5.2/exe/qcprog.exe_s SSI-119PHE-124HIE-1_PCM_TZVPD.in_63139.0 /tmp/qchem63139/
                  Welcome to Q-Chem
     A Quantum Leap Into The Future Of Chemistry


 Q-Chem 5.2, Q-Chem, Inc., Pleasanton, CA (2019)

 License issued to: National Energy Research Scientific Computing Center

 Yihan Shao,  Zhengting Gan,  E. Epifanovsky,  A. T. B. Gilbert,  M. Wormit,  
 J. Kussmann,  A. W. Lange,  A. Behn,  Jia Deng,  Xintian Feng,  D. Ghosh,  
 M. Goldey,  P. R. Horn,  L. D. Jacobson,  I. Kaliman,  T. Kus,  A. Landau,  
 Jie Liu,  E. I. Proynov,  R. M. Richard,  R. P. Steele,  E. J. Sundstrom,  
 H. L. Woodcock III,  P. M. Zimmerman,  D. Zuev,  B. Albrecht,  E. Alguire,  
 S. A. Baeppler,  D. Barton,  Z. Benda,  Y. A. Bernard,  E. J. Berquist,  
 K. B. Bravaya,  H. Burton,  D. Casanova,  Chun-Min Chang,  Yunqing Chen,  
 A. Chien,  K. D. Closser,  M. P. Coons,  S. Coriani,  S. Dasgupta,  
 A. L. Dempwolff,  M. Diedenhofen,  Hainam Do,  R. G. Edgar,  Po-Tung Fang,  
 S. Faraji,  S. Fatehi,  Qingguo Feng,  K. D. Fenk,  J. Fosso-Tande,  
 J. Gayvert,  Qinghui Ge,  A. Ghysels,  G. Gidofalvi,  J. Gomes,  
 J. Gonthier,  A. Gunina,  D. Hait,  M. W. D. Hanson-Heine,  
 P. H. P. Harbach,  A. W. Hauser,  M. F. Herbst,  J. E. Herr,  
 E. G. Hohenstein,  Z. C. Holden,  Kerwin Hui,  B. C. Huynh,  T.-C. Jagau,  
 Hyunjun Ji,  B. Kaduk,  K. Khistyaev,  Jaehoon Kim,  P. Klunzinger,  K. Koh,  
 D. Kosenkov,  L. Koulias,  T. Kowalczyk,  C. M. Krauter,  A. Kunitsa,  
 Ka Un Lao,  A. Laurent,  K. V. Lawler,  Joonho Lee,  D. Lefrancois,  
 S. Lehtola,  D. S. Levine,  Yi-Pei Li,  You-Sheng Lin,  Fenglai Liu,  
 E. Livshits,  A. Luenser,  P. Manohar,  E. Mansoor,  S. F. Manzer,  
 Shan-Ping Mao,  Yuezhi Mao,  N. Mardirossian,  A. V. Marenich,  
 T. Markovich,  L. A. Martinez-Martinez,  S. A. Maurer,  N. J. Mayhall,  
 S. C. McKenzie,  J.-M. Mewes,  P. Morgante,  A. F. Morrison,  
 J. W. Mullinax,  K. Nanda,  T. S. Nguyen-Beck,  R. Olivares-Amaya,  
 J. A. Parkhill,  Zheng Pei,  T. M. Perrine,  F. Plasser,  P. Pokhilko,  
 S. Prager,  A. Prociuk,  E. Ramos,  D. R. Rehn,  F. Rob,  M. Scheurer,  
 M. Schneider,  N. Sergueev,  S. M. Sharada,  S. Sharma,  D. W. Small,  
 T. Stauch,  T. Stein,  Yu-Chuan Su,  A. J. W. Thom,  A. Tkatchenko,  
 T. Tsuchimochi,  N. M. Tubman,  L. Vogt,  M. L. Vidal,  O. Vydrov,  
 M. A. Watson,  J. Wenzel,  M. de Wergifosse,  T. A. Wesolowski,  A. White,  
 J. Witte,  A. Yamada,  Jun Yang,  K. Yao,  S. Yeganeh,  S. R. Yost,  
 Zhi-Qiang You,  A. Zech,  Igor Ying Zhang,  Xing Zhang,  Yan Zhao,  
 Ying Zhu,  B. R. Brooks,  G. K. L. Chan,  C. J. Cramer,  M. S. Gordon,  
 W. J. Hehre,  A. Klamt,  M. W. Schmidt,  C. D. Sherrill,  D. G. Truhlar,  
 A. Aspuru-Guzik,  R. Baer,  A. T. Bell,  N. A. Besley,  Jeng-Da Chai,  
 A. E. DePrince, III,  R. A. DiStasio Jr.,  A. Dreuw,  B. D. Dunietz,  
 T. R. Furlani,  Chao-Ping Hsu,  Yousung Jung,  Jing Kong,  D. S. Lambrecht,  
 WanZhen Liang,  C. Ochsenfeld,  V. A. Rassolov,  L. V. Slipchenko,  
 J. E. Subotnik,  T. Van Voorhis,  J. M. Herbert,  A. I. Krylov,  
 P. M. W. Gill,  M. Head-Gordon

 Contributors to earlier versions of Q-Chem not listed above: 
 R. D. Adamson,  B. Austin,  J. Baker,  G. J. O. Beran,  K. Brandhorst,  
 S. T. Brown,  E. F. C. Byrd,  A. K. Chakraborty,  C.-L. Cheng,  
 Siu Hung Chien,  D. M. Chipman,  D. L. Crittenden,  H. Dachsel,  
 R. J. Doerksen,  A. D. Dutoi,  L. Fusti-Molnar,  W. A. Goddard III,  
 A. Golubeva-Zadorozhnaya,  S. R. Gwaltney,  G. Hawkins,  A. Heyden,  
 S. Hirata,  G. Kedziora,  F. J. Keil,  C. Kelley,  Jihan Kim,  R. A. King,  
 R. Z. Khaliullin,  P. P. Korambath,  W. Kurlancheek,  A. M. Lee,  M. S. Lee,  
 S. V. Levchenko,  Ching Yeh Lin,  D. Liotard,  R. C. Lochan,  I. Lotan,  
 P. E. Maslen,  N. Nair,  D. P. O'Neill,  D. Neuhauser,  E. Neuscamman,  
 C. M. Oana,  R. Olson,  B. Peters,  R. Peverati,  P. A. Pieniazek,  
 Y. M. Rhee,  J. Ritchie,  M. A. Rohrdanz,  E. Rosta,  N. J. Russ,  
 H. F. Schaefer III,  N. E. Schultz,  N. Shenvi,  A. C. Simmonett,  A. Sodt,  
 D. Stuck,  K. S. Thanthiriwatte,  V. Vanovschi,  Tao Wang,  A. Warshel,  
 C. F. Williams,  Q. Wu,  X. Xu,  W. Zhang

 Please cite Q-Chem as follows:
 Y. Shao et al., Mol. Phys. 113, 184-215 (2015)
 DOI: 10.1080/00268976.2014.952696

 Q-Chem 5.2.0 for Intel X86 EM64T Linux

 Parts of Q-Chem use Armadillo 8.300.2 (Tropical Shenanigans).
 http://arma.sourceforge.net/

 Q-Chem begins on Sun Sep 26 13:58:33 2021  

Host: cori01
0

     Scratch files written to /tmp/qchem63139//
 May1019 |scratch|qcdevops|jenkins|workspace|build_RNUM -1
Processing $rem in /global/common/cori/software/qchem/5.2/config/preferences:
	 MEM_TOTAL  96000 
NAlpha2: 102
NElect   102
Mult     1
Symmetry turned off for PCM/SM12/SMD calculation

 Q-Chem warning in module libgen/rem_setup.C, line 2803:

 Neither GIA nor STOLL is specified by user. Use STOLL as the default


Checking the input file for inconsistencies... 	...done.

--------------------------------------------------------------
User input:
--------------------------------------------------------------
$comment
SSI-119PHE-124HIE-1.pdb
$end

$molecule
0 1
--
0 1
C   -1.718915759133    3.088691160239   -1.599632659412
C   -2.240915759133    1.701691160239    0.436367340588
C   -1.293915759133    2.316691160239   -0.386632659412
C   -1.848915759133    1.056691160239    1.619367340588
C   -0.485915759133    1.023691160239    1.983367340588
C    0.071084240867    2.268691160239   -0.034632659412
C    0.471084240867    1.628691160239    1.147367340588
H   -3.287915759133    1.742691160239    0.176367340588
H   -2.586915759133    0.606691160239    2.265367340588
H   -2.805915759133    3.073691160239   -1.699632659412
H   -1.294915759133    2.595691160239   -2.468632659412
H   -0.176915759133    0.529691160239    2.894367340588
H    0.820084240867    2.718691160239   -0.668632659412
H    1.518084240867    1.590691160239    1.411367340588
H   -1.366235759133    4.130161160239   -1.568683659412
--
0 1
C   -0.353915759133   -1.063308839761   -1.386632659412
C   -0.141915759133   -1.530308839761   -2.857632659412
C    0.651084240867   -1.618308839761   -0.394632659412
C    0.448084240867   -2.350308839761    0.736367340588
C    2.618084240867   -2.046308839761    0.502367340588
N    2.021084240867   -1.440308839761   -0.529632659412
N    1.694084240867   -2.606308839761    1.279367340588
H   -0.281915759133    0.017691160239   -1.356632659412
H   -1.334915759133   -1.350308839761   -1.028632659412
H    0.879084240867   -1.314308839761   -3.170632659412
H   -0.506915759133   -2.644308839761    1.142367340588
H    3.676084240867   -2.056308839761    0.693367340588
H    1.862084240867   -3.092308839761    2.161367340588
H   -0.866415759133   -1.007308839761   -3.499164659412
H   -0.322805759133   -2.614178839761   -2.907757659412
$end

$rem
JOBTYPE			EDA
EDA2			1
method			wB97X-V
BASIS			def2-TZVPD
XC_GRID			000099000590
NL_GRID			1
UNRESTRICTED		FALSE
MAX_SCF_CYCLES		200
SYMMETRY		FALSE
SYM_IGNORE		TRUE
MEM_STATIC		2000
BASIS_LIN_DEP_THRESH 	6
THRESH 			14
SCF_CONVERGENCE 	8
SCF_PRINT_FRGM 		TRUE
SOLVENT_METHOD          PCM
$end

$PCM
THEORY                  CPCM
METHOD                  SWIG
SOLVER                  INVERSION
RADII                   UFF
HPOINTS                 302
HEAVYPOINTS             302
PRINTLEVEL              0
$END

$SOLVENT
DIELECTRIC              78.390000 ! water
$END
--------------------------------------------------------------
 ----------------------------------------------------------------
             Standard Nuclear Orientation (Angstroms)
    I     Atom           X                Y                Z
 ----------------------------------------------------------------
    1      C      -1.7189157591     3.0886911602    -1.5996326594
    2      C      -2.2409157591     1.7016911602     0.4363673406
    3      C      -1.2939157591     2.3166911602    -0.3866326594
    4      C      -1.8489157591     1.0566911602     1.6193673406
    5      C      -0.4859157591     1.0236911602     1.9833673406
    6      C       0.0710842409     2.2686911602    -0.0346326594
    7      C       0.4710842409     1.6286911602     1.1473673406
    8      H      -3.2879157591     1.7426911602     0.1763673406
    9      H      -2.5869157591     0.6066911602     2.2653673406
   10      H      -2.8059157591     3.0736911602    -1.6996326594
   11      H      -1.2949157591     2.5956911602    -2.4686326594
   12      H      -0.1769157591     0.5296911602     2.8943673406
   13      H       0.8200842409     2.7186911602    -0.6686326594
   14      H       1.5180842409     1.5906911602     1.4113673406
   15      H      -1.3662357591     4.1301611602    -1.5686836594
   16      C      -0.3539157591    -1.0633088398    -1.3866326594
   17      C      -0.1419157591    -1.5303088398    -2.8576326594
   18      C       0.6510842409    -1.6183088398    -0.3946326594
   19      C       0.4480842409    -2.3503088398     0.7363673406
   20      C       2.6180842409    -2.0463088398     0.5023673406
   21      N       2.0210842409    -1.4403088398    -0.5296326594
   22      N       1.6940842409    -2.6063088398     1.2793673406
   23      H      -0.2819157591     0.0176911602    -1.3566326594
   24      H      -1.3349157591    -1.3503088398    -1.0286326594
   25      H       0.8790842409    -1.3143088398    -3.1706326594
   26      H      -0.5069157591    -2.6443088398     1.1423673406
   27      H       3.6760842409    -2.0563088398     0.6933673406
   28      H       1.8620842409    -3.0923088398     2.1613673406
   29      H      -0.8664157591    -1.0073088398    -3.4991646594
   30      H      -0.3228057591    -2.6141788398    -2.9077576594
 ----------------------------------------------------------------
 Nuclear Repulsion Energy =         846.09877683 hartrees
 There are       51 alpha and       51 beta electrons
 Requested basis set is def2-TZVPD
 There are 262 shells and 662 basis functions

 Total QAlloc Memory Limit  96000 MB
 Mega-Array Size      1956 MB
 MEM_STATIC part      2000 MB
 Discretize the solute cavity surface with Lebedev spheres
	Using 302 Lebedev grid points for each H atom
	Using 302 Lebedev grid points for other atoms
	Atomic van der Waals radii will be scaled by 1.20
 Remove points where switching function is < 1.0e-08
 Keep 3292 surface tesserae and discard 5768 interior tesserae
 Molecular Surface Area = 314.331 Angst**2
 A cutoff of  1.0D-14 yielded  30557 shell pairs
 There are    197553 function pairs (    250031 Cartesian)
 Smallest overlap matrix eigenvalue = 5.15E-07
 Linear dependence detected in AO basis
 Tighter screening thresholds may be required for diffuse basis sets
 Use S2THRESH > 14 and THRESH = 14 in case of SCF convergence issues
 Number of orthogonalized atomic orbitals = 659
 Maximum deviation from orthogonality = 1.600E-10

 Scale SEOQF with 1.000000e-01/1.000000e-01/1.000000e-01

 Standard Electronic Orientation quadrupole field applied
 Nucleus-field energy     =     0.0000000142 hartrees

 -----------------------------------------------------------------------
  General SCF calculation program by
  Eric Jon Sundstrom, Paul Horn, Yuezhi Mao, Dmitri Zuev, Alec White,
  David Stuck, Shaama M.S., Shane Yost, Joonho Lee, David Small,
  Daniel Levine, Susi Lehtola, Hugh Burton, Evgeny Epifanovsky
 -----------------------------------------------------------------------
================================================================
                 ALMO-EDA with the EDA2 driver                  
================================================================
 The second-generation ALMO-EDA (for DFT):                      
 P. R. Horn, Y. Mao and M. Head-Gordon, PCCP, 18, 23067 (2016)  
 Decomposition of the frozen energy:                            
 P. R. Horn, Y. Mao and M. Head-Gordon, JCP, 144, 114107 (2016) 
 FERF model for polarization:                                   
 P. R. Horn and M. Head-Gordon, JCP, 143, 114111 (2015)         
Using eda2 option set 1
Option set summary: Frozen orbital wavefunction, initial wavefunction decomposition, and nDQ polarization.
--------------------------------
Printing EDA Options
--------------------------------
eda_child_super_basis      0
fragmo_guess_mode          0
child_mp                   1
child_mp_orders            232
cls_elec                   1
cls_disp                   0
scfmi_mode                 1
scfmi_occs                 0
scfmi_virts                0
frz_relax                  0
frz_relax_method           0
dc_pen_start               0
dc_pen_conv                0
dc_pen_increment           0
dc_pen_steps               0
dc_pen_thresh_factor       0
dc_pen_pre_newton_thresh   0
frz_ortho_decomp           1
frz_ortho_decomp_conv      6
frgm_method                2
scfmi_freeze_ss            0
separate_rehyb             0
plot_diff_den              0
eda_nocv                   0
eda_vct_relax              1
disp_free_x                0
disp_free_c                0
eda_bsse                   0
eda_pct_a                  0
eda_covp                   0
--------------------------------
Attempting to make child job directory: /tmp/qchem63139//Frg1/
Attempting to make child job directory: /tmp/qchem63139//Frg2/
Creating input file /tmp/qchem63139/Frg1.input
using default PutDataFrgm: nothing
calling putenv with: QCSCRATCH=/tmp/qchem63139/ 
calling putenv with: QCLOCALSCR=/tmp/qchem63139/ 
Spawning Job For Fragment 0
                  Welcome to Q-Chem
     A Quantum Leap Into The Future Of Chemistry


 Q-Chem 5.2, Q-Chem, Inc., Pleasanton, CA (2019)

 License issued to: National Energy Research Scientific Computing Center

 Yihan Shao,  Zhengting Gan,  E. Epifanovsky,  A. T. B. Gilbert,  M. Wormit,  
 J. Kussmann,  A. W. Lange,  A. Behn,  Jia Deng,  Xintian Feng,  D. Ghosh,  
 M. Goldey,  P. R. Horn,  L. D. Jacobson,  I. Kaliman,  T. Kus,  A. Landau,  
 Jie Liu,  E. I. Proynov,  R. M. Richard,  R. P. Steele,  E. J. Sundstrom,  
 H. L. Woodcock III,  P. M. Zimmerman,  D. Zuev,  B. Albrecht,  E. Alguire,  
 S. A. Baeppler,  D. Barton,  Z. Benda,  Y. A. Bernard,  E. J. Berquist,  
 K. B. Bravaya,  H. Burton,  D. Casanova,  Chun-Min Chang,  Yunqing Chen,  
 A. Chien,  K. D. Closser,  M. P. Coons,  S. Coriani,  S. Dasgupta,  
 A. L. Dempwolff,  M. Diedenhofen,  Hainam Do,  R. G. Edgar,  Po-Tung Fang,  
 S. Faraji,  S. Fatehi,  Qingguo Feng,  K. D. Fenk,  J. Fosso-Tande,  
 J. Gayvert,  Qinghui Ge,  A. Ghysels,  G. Gidofalvi,  J. Gomes,  
 J. Gonthier,  A. Gunina,  D. Hait,  M. W. D. Hanson-Heine,  
 P. H. P. Harbach,  A. W. Hauser,  M. F. Herbst,  J. E. Herr,  
 E. G. Hohenstein,  Z. C. Holden,  Kerwin Hui,  B. C. Huynh,  T.-C. Jagau,  
 Hyunjun Ji,  B. Kaduk,  K. Khistyaev,  Jaehoon Kim,  P. Klunzinger,  K. Koh,  
 D. Kosenkov,  L. Koulias,  T. Kowalczyk,  C. M. Krauter,  A. Kunitsa,  
 Ka Un Lao,  A. Laurent,  K. V. Lawler,  Joonho Lee,  D. Lefrancois,  
 S. Lehtola,  D. S. Levine,  Yi-Pei Li,  You-Sheng Lin,  Fenglai Liu,  
 E. Livshits,  A. Luenser,  P. Manohar,  E. Mansoor,  S. F. Manzer,  
 Shan-Ping Mao,  Yuezhi Mao,  N. Mardirossian,  A. V. Marenich,  
 T. Markovich,  L. A. Martinez-Martinez,  S. A. Maurer,  N. J. Mayhall,  
 S. C. McKenzie,  J.-M. Mewes,  P. Morgante,  A. F. Morrison,  
 J. W. Mullinax,  K. Nanda,  T. S. Nguyen-Beck,  R. Olivares-Amaya,  
 J. A. Parkhill,  Zheng Pei,  T. M. Perrine,  F. Plasser,  P. Pokhilko,  
 S. Prager,  A. Prociuk,  E. Ramos,  D. R. Rehn,  F. Rob,  M. Scheurer,  
 M. Schneider,  N. Sergueev,  S. M. Sharada,  S. Sharma,  D. W. Small,  
 T. Stauch,  T. Stein,  Yu-Chuan Su,  A. J. W. Thom,  A. Tkatchenko,  
 T. Tsuchimochi,  N. M. Tubman,  L. Vogt,  M. L. Vidal,  O. Vydrov,  
 M. A. Watson,  J. Wenzel,  M. de Wergifosse,  T. A. Wesolowski,  A. White,  
 J. Witte,  A. Yamada,  Jun Yang,  K. Yao,  S. Yeganeh,  S. R. Yost,  
 Zhi-Qiang You,  A. Zech,  Igor Ying Zhang,  Xing Zhang,  Yan Zhao,  
 Ying Zhu,  B. R. Brooks,  G. K. L. Chan,  C. J. Cramer,  M. S. Gordon,  
 W. J. Hehre,  A. Klamt,  M. W. Schmidt,  C. D. Sherrill,  D. G. Truhlar,  
 A. Aspuru-Guzik,  R. Baer,  A. T. Bell,  N. A. Besley,  Jeng-Da Chai,  
 A. E. DePrince, III,  R. A. DiStasio Jr.,  A. Dreuw,  B. D. Dunietz,  
 T. R. Furlani,  Chao-Ping Hsu,  Yousung Jung,  Jing Kong,  D. S. Lambrecht,  
 WanZhen Liang,  C. Ochsenfeld,  V. A. Rassolov,  L. V. Slipchenko,  
 J. E. Subotnik,  T. Van Voorhis,  J. M. Herbert,  A. I. Krylov,  
 P. M. W. Gill,  M. Head-Gordon

 Contributors to earlier versions of Q-Chem not listed above: 
 R. D. Adamson,  B. Austin,  J. Baker,  G. J. O. Beran,  K. Brandhorst,  
 S. T. Brown,  E. F. C. Byrd,  A. K. Chakraborty,  C.-L. Cheng,  
 Siu Hung Chien,  D. M. Chipman,  D. L. Crittenden,  H. Dachsel,  
 R. J. Doerksen,  A. D. Dutoi,  L. Fusti-Molnar,  W. A. Goddard III,  
 A. Golubeva-Zadorozhnaya,  S. R. Gwaltney,  G. Hawkins,  A. Heyden,  
 S. Hirata,  G. Kedziora,  F. J. Keil,  C. Kelley,  Jihan Kim,  R. A. King,  
 R. Z. Khaliullin,  P. P. Korambath,  W. Kurlancheek,  A. M. Lee,  M. S. Lee,  
 S. V. Levchenko,  Ching Yeh Lin,  D. Liotard,  R. C. Lochan,  I. Lotan,  
 P. E. Maslen,  N. Nair,  D. P. O'Neill,  D. Neuhauser,  E. Neuscamman,  
 C. M. Oana,  R. Olson,  B. Peters,  R. Peverati,  P. A. Pieniazek,  
 Y. M. Rhee,  J. Ritchie,  M. A. Rohrdanz,  E. Rosta,  N. J. Russ,  
 H. F. Schaefer III,  N. E. Schultz,  N. Shenvi,  A. C. Simmonett,  A. Sodt,  
 D. Stuck,  K. S. Thanthiriwatte,  V. Vanovschi,  Tao Wang,  A. Warshel,  
 C. F. Williams,  Q. Wu,  X. Xu,  W. Zhang

 Please cite Q-Chem as follows:
 Y. Shao et al., Mol. Phys. 113, 184-215 (2015)
 DOI: 10.1080/00268976.2014.952696

 Q-Chem 5.2.0 for Intel X86 EM64T Linux

 Parts of Q-Chem use Armadillo 8.300.2 (Tropical Shenanigans).
 http://arma.sourceforge.net/

 Q-Chem begins on Sun Sep 26 13:58:40 2021  

Host: cori01
0

     Scratch files written to /tmp/qchem63139//Frg1//
 May1019 |scratch|qcdevops|jenkins|workspace|build_RNUM -1
Processing $rem in /global/common/cori/software/qchem/5.2/config/preferences:
	 MEM_TOTAL  96000 
NAlpha2: 50
NElect   50
Mult     1
Symmetry turned off for PCM/SM12/SMD calculation

Checking the input file for inconsistencies... 	...done.

--------------------------------------------------------------
User input:
--------------------------------------------------------------
$molecule
0 1
 6	-1.7189157591	3.0886911602	-1.5996326594
 6	-2.2409157591	1.7016911602	0.4363673406
 6	-1.2939157591	2.3166911602	-0.3866326594
 6	-1.8489157591	1.0566911602	1.6193673406
 6	-0.4859157591	1.0236911602	1.9833673406
 6	0.0710842409	2.2686911602	-0.0346326594
 6	0.4710842409	1.6286911602	1.1473673406
 1	-3.2879157591	1.7426911602	0.1763673406
 1	-2.5869157591	0.6066911602	2.2653673406
 1	-2.8059157591	3.0736911602	-1.6996326594
 1	-1.2949157591	2.5956911602	-2.4686326594
 1	-0.1769157591	0.5296911602	2.8943673406
 1	0.8200842409	2.7186911602	-0.6686326594
 1	1.5180842409	1.5906911602	1.4113673406
 1	-1.3662357591	4.1301611602	-1.5686836594
$end
$rem
EDA2		1
METHOD		WB97X-V
BASIS		DEF2-TZVPD
XC_GRID		000099000590
NL_GRID		1
UNRESTRICTED		FALSE
MAX_SCF_CYCLES		200
SYMMETRY		FALSE
SYM_IGNORE		TRUE
BASIS_LIN_DEP_THRESH		6
THRESH		14
SCF_CONVERGENCE		8
SCF_PRINT_FRGM		TRUE
SOLVENT_METHOD		PCM
!required keywords
JOBTYPE		SP
SYM_IGNORE		TRUE
SUBSYSTEM		TRUE
GEN_SCFMAN		TRUE
CHILD_INSTRUCTION		2
SYM_IGNORE		TRUE
SCFMI		0
RI_K 0		
PARI_K 0		
MIN_PARI_K 0		
IARI_K 0		
OCC_RI_K 0		
PURECART		1111
MEM_STATIC		2000
MEM_TOTAL		96000
GUI		0
CHILD_MP		1
CHILD_MP_ORDERS		232
FRZ_RELAX		0
FRZ_RELAX_METHOD		0
EDA_CLS_ELEC		1
EDA_CLS_DISP		0
FRZ_ORTHO_DECOMP		1
EDA2		FALSE
FRGM_METHOD		FALSE
CIS_N_ROOTS  0
LOCAL_CIS    0
CIS_RLX_DNS  1
$end
$pcm
THEORY                  CPCM
METHOD                  SWIG
SOLVER                  INVERSION
RADII                   UFF
HPOINTS                 302
HEAVYPOINTS             302
PRINTLEVEL              0
$end
$solvent
DIELECTRIC              78.390000 ! water
$end
--------------------------------------------------------------
 ----------------------------------------------------------------
             Standard Nuclear Orientation (Angstroms)
    I     Atom           X                Y                Z
 ----------------------------------------------------------------
    1      C      -1.7189157591     3.0886911602    -1.5996326594
    2      C      -2.2409157591     1.7016911602     0.4363673406
    3      C      -1.2939157591     2.3166911602    -0.3866326594
    4      C      -1.8489157591     1.0566911602     1.6193673406
    5      C      -0.4859157591     1.0236911602     1.9833673406
    6      C       0.0710842409     2.2686911602    -0.0346326594
    7      C       0.4710842409     1.6286911602     1.1473673406
    8      H      -3.2879157591     1.7426911602     0.1763673406
    9      H      -2.5869157591     0.6066911602     2.2653673406
   10      H      -2.8059157591     3.0736911602    -1.6996326594
   11      H      -1.2949157591     2.5956911602    -2.4686326594
   12      H      -0.1769157591     0.5296911602     2.8943673406
   13      H       0.8200842409     2.7186911602    -0.6686326594
   14      H       1.5180842409     1.5906911602     1.4113673406
   15      H      -1.3662357591     4.1301611602    -1.5686836594
 ----------------------------------------------------------------
 Nuclear Repulsion Energy =         268.37313059 hartrees
 There are       25 alpha and       25 beta electrons
 Requested basis set is def2-TZVPD
 There are 131 shells and 331 basis functions

 Total QAlloc Memory Limit  96000 MB
 Mega-Array Size      1956 MB
 MEM_STATIC part      2000 MB
 Discretize the solute cavity surface with Lebedev spheres
	Using 302 Lebedev grid points for each H atom
	Using 302 Lebedev grid points for other atoms
	Atomic van der Waals radii will be scaled by 1.20
 Remove points where switching function is < 1.0e-08
 Keep 1788 surface tesserae and discard 2742 interior tesserae
 Molecular Surface Area = 178.734 Angst**2

                       Distance Matrix (Angstroms)
             C (  1)   C (  2)   C (  3)   C (  4)   C (  5)   C (  6)
   C (  2)  2.518243
   C (  3)  1.499326  1.397270
   C (  4)  3.808922  1.403274  2.433035
   C (  5)  4.315368  2.435758  2.818087  1.411153
   C (  6)  2.515099  2.426659  1.410473  2.809103  2.435693
   C (  7)  3.804433  2.804602  2.437565  2.435645  1.407398  1.402399
   H (  8)  2.725372  1.079579  2.149996  2.150248  3.410779  3.406476
   H (  9)  4.674609  2.159625  3.410140  1.079101  2.160466  3.888085
   H ( 10)  1.091693  2.600789  2.140832  3.999987  4.811381  3.420143
   H ( 11)  1.085351  3.183265  2.100611  4.403088  4.790195  2.810203
   H ( 12)  5.396506  3.416935  3.899490  2.167703  1.081406  3.415357
   H ( 13)  2.729502  3.409551  2.170282  3.888541  3.407604  1.079563
   H ( 14)  4.667793  3.884975  3.415732  3.415422  2.159789  2.155089
   H ( 15)  1.100000  3.268449  2.165906  4.454533  4.800228  2.807895
             C (  7)   H (  8)   H (  9)   H ( 10)   H ( 11)   H ( 12)
   H (  8)  3.884059
   H (  9)  3.412590  2.479076
   H ( 10)  4.575168  2.350162  4.674963
   H ( 11)  4.138756  3.419895  5.294917  1.761524
   H ( 12)  2.163265  4.305486  2.491921  5.872684  5.854917
   H ( 13)  2.146569  4.306073  4.967550  3.786405  2.779992  4.298918
   H ( 14)  1.080439  4.964470  4.306808  5.529429  4.896672  2.489585
   H ( 15)  4.124322  3.526765  5.348350  1.790518  1.780335  5.856338
             H ( 13)   H ( 14)
   H ( 14)  2.466980
   H ( 15)  2.753604  4.863015
 
 A cutoff of  1.0D-14 yielded   8360 shell pairs
 There are     54484 function pairs (     69429 Cartesian)
 Smallest overlap matrix eigenvalue = 6.42E-07
 Linear dependence detected in AO basis
 Tighter screening thresholds may be required for diffuse basis sets
 Use S2THRESH > 14 and THRESH = 14 in case of SCF convergence issues
 Number of orthogonalized atomic orbitals = 330
 Maximum deviation from orthogonality = 3.087E-10

 Scale SEOQF with 1.000000e-01/1.000000e-01/1.000000e-01

 Standard Electronic Orientation quadrupole field applied
 Nucleus-field energy     =     0.0000000094 hartrees
 Guess from superposition of atomic densities
 Warning:  Energy on first SCF cycle will be non-variational
 SAD guess density has 49.913408 electrons

 -----------------------------------------------------------------------
  General SCF calculation program by
  Eric Jon Sundstrom, Paul Horn, Yuezhi Mao, Dmitri Zuev, Alec White,
  David Stuck, Shaama M.S., Shane Yost, Joonho Lee, David Small,
  Daniel Levine, Susi Lehtola, Hugh Burton, Evgeny Epifanovsky
 -----------------------------------------------------------------------
 Exchange:     0.1670 Hartree-Fock + 1.0000 wB97X-V + LR-HF
 Correlation:  1.0000 wB97X-V
 Using Euler-Maclaurin-Lebedev (99,590) quadrature formula
 Nonlocal Correlation:  VV10 with C = 0.0100 and b = 6.00 and scale = 1.00000
 Grid used for NLC:  SG-1 standard quadrature
Energy prior to optimization (guess energy) = -271.521328545519
Begin Timing: Total SCF Calculation
begin iterations for algorithm: DIIS         
the SCF tolerance is set to 1.00e-08
    1    -271.5213285455      1.91e-03     00000 
    2    -271.5596293733      1.21e-03     00000 
    3    -271.5800064582      1.37e-04     00000 
    4    -271.5804264934      4.85e-05     00000 
    5    -271.5804605832      1.82e-05     00000 
    6    -271.5804660147      4.91e-06     00000 
    7    -271.5804664617      2.04e-06     00000 
    8    -271.5804665391      3.40e-07     00000 
    9    -271.5804665435      9.92e-08     00000 
   10    -271.5804665441      5.86e-08     00000 
   11    -271.5804665442      2.40e-08     00000 
   12    -271.5804665443      5.89e-09     00000 Convergence criterion met
Timing for Total SCF: 1419.00s (wall), 2804.17s (cpu)

************** Final PCM Free Energy Summary **************
 G_electrostatic  =      -0.00266055 hartree =      -1.66952329 kcal/mol
 G_cavitation     =       0.00000000 hartree =       0.00000000 kcal/mol
 G_dispersion     =       0.00000000 hartree =       0.00000000 kcal/mol
 G_repulsion      =       0.00000000 hartree =       0.00000000 kcal/mol
 --------------------------------------------------
 Non-electrostatic Free Energy =       0.00000000 hartree =       0.00000000 kcal/mol
 Total                         =      -0.00266055 hartree =      -1.66952329 kcal/mol
 --------------------------------------------------
 SCF Energy (H0 + V/2)                       =    -271.58046654 
 Solute Internal Energy (H0)                 =    -271.57780599 
 Total Free Energy (H0 + V/2 + non-elec)     =    -271.58046654 hartree
                                             = -170419.31489516 kcal/mol
***********************************************************

E_pcm = -0.0026605547
Multipole orders to be included
        2
        3
computing dipole RHS
computing quadrupole RHS
total number of RHS in solve_reponses: 8
RHS batch sizes
        8
Beginning Block Conjugate Gradient Iterations. Batch Number: 0
computing hessian-vector products by finite difference
              1      5.84e-01     00000 Conjugate Gradient Iteration
computing hessian-vector products by finite difference
              2      1.95e-01     00000 Conjugate Gradient Iteration
computing hessian-vector products by finite difference
              3      4.51e-02     00000 Conjugate Gradient Iteration
computing hessian-vector products by finite difference
              4      1.03e-02     00000 Conjugate Gradient Iteration
computing hessian-vector products by finite difference
              5      2.09e-03     00000 Conjugate Gradient Iteration
computing hessian-vector products by finite difference
              6      6.19e-04     00000 Conjugate Gradient Iteration
computing hessian-vector products by finite difference
              7      1.74e-04     00000 Conjugate Gradient Iteration
computing hessian-vector products by finite difference
              8      2.59e-05     00000 Conjugate Gradient Iteration
computing hessian-vector products by finite difference
              9      3.18e-06     00000 Conjugate Gradient Iteration
computing hessian-vector products by finite difference
             10      6.36e-07     00000 Conjugate Gradient Iteration
computing hessian-vector products by finite difference
             11      1.41e-07     00000 Conjugate Gradient Iteration
computing hessian-vector products by finite difference
             12      2.24e-08     00000 Conjugate Gradient Iteration
computing hessian-vector products by finite difference
             13      4.04e-09     00000 CG Converged
batch 0 complete
Done Calculating Responses
TESTING ORTHOGONALIZATION OF MULTIPOLE BASIS
Multipole virts passed orthogonality test
Virts Per Order
           75
          125
 
 --------------------------------------------------------------
 
                    Orbital Energies (a.u.)
 --------------------------------------------------------------
 
 Alpha MOs
 -- Occupied --
-10.2851 -10.2776 -10.2773 -10.2751 -10.2733 -10.2724 -10.2623  -0.9924
 -0.9059  -0.8774  -0.8126  -0.7297  -0.7053  -0.6278  -0.5724  -0.5703
 -0.5367  -0.5305  -0.5137  -0.4893  -0.4699  -0.4432  -0.4416  -0.3486
 -0.3353
 -- Virtual --
  0.0588   0.0634   0.0668   0.0790   0.0844   0.1042   0.1097   0.1132
  0.1351   0.1532   0.1650   0.1728   0.1806   0.1913   0.1936   0.1982
  0.2228   0.2271   0.2312   0.2405   0.2434   0.2549   0.2588   0.2704
  0.2771   0.2825   0.2869   0.2889   0.2929   0.2993   0.3022   0.3131
  0.3223   0.3229   0.3275   0.3396   0.3493   0.3514   0.3675   0.3703
  0.3708   0.3790   0.3853   0.3907   0.3920   0.3975   0.3986   0.4030
  0.4142   0.4252   0.4278   0.4339   0.4414   0.4440   0.4488   0.4593
  0.4656   0.4704   0.4796   0.4852   0.4919   0.5003   0.5056   0.5068
  0.5146   0.5177   0.5256   0.5410   0.5476   0.5487   0.5567   0.5633
  0.5703   0.5732   0.5852   0.5948   0.5977   0.6230   0.6295   0.6395
  0.6615   0.6739   0.6795   0.6819   0.6893   0.7000   0.7160   0.7240
  0.7281   0.7337   0.7430   0.7603   0.7626   0.7627   0.7731   0.7820
  0.7829   0.7839   0.7949   0.8030   0.8127   0.8215   0.8238   0.8277
  0.8330   0.8342   0.8473   0.8503   0.8594   0.8714   0.8744   0.8939
  0.9138   0.9212   0.9372   0.9483   0.9522   0.9972   1.0339   1.0351
  1.0470   1.0531   1.0602   1.0711   1.0873   1.0943   1.0997   1.1372
  1.1542   1.1693   1.2587   1.2731   1.2892   1.3283   1.3515   1.3537
  1.3661   1.4344   1.4469   1.4530   1.4576   1.4682   1.5182   1.5285
  1.6023   1.6074   1.6154   1.6274   1.6382   1.6674   1.7302   1.7592
  1.7704   1.7881   1.8020   1.8051   1.8310   1.8444   1.8821   1.9060
  1.9168   1.9225   1.9241   1.9711   1.9836   1.9895   2.0137   2.0223
  2.0304   2.0400   2.0633   2.0803   2.1027   2.1209   2.1684   2.1924
  2.1978   2.2359   2.2497   2.2669   2.2927   2.3051   2.3758   2.3897
  2.3940   2.4271   2.4493   2.5197   2.5358   2.5452   2.5613   2.5931
  2.6189   2.6430   2.6569   2.6778   2.6962   2.7037   2.7508   2.7594
  2.7693   2.7927   2.8062   2.8323   2.8517   2.8901   2.9010   2.9137
  2.9221   2.9305   2.9663   2.9765   2.9900   3.0163   3.0252   3.0422
  3.0568   3.0771   3.0871   3.1447   3.1595   3.1840   3.1916   3.2204
  3.2266   3.2636   3.2647   3.2816   3.3374   3.3528   3.3682   3.3795
  3.4074   3.4180   3.4389   3.4478   3.4514   3.4719   3.4756   3.4882
  3.4943   3.5213   3.5311   3.5374   3.5432   3.5537   3.5605   3.6002
  3.6066   3.6260   3.6474   3.6790   3.6995   3.7396   3.7469   3.8054
  3.8433   3.8945   3.9132   3.9330   3.9444   3.9873   4.0136   4.0445
  4.1212   4.1988   4.2515   4.2572   4.2633   4.2871   4.3076   4.3141
  4.3300   4.3501   4.3674   4.3723   4.3995   4.4200   4.4822   4.5162
  4.5885   4.6082   4.7638   4.7789   4.8019   4.8098   4.9075   4.9334
  4.9993   5.0288   5.1542   5.2514   5.3232   5.3470   5.4738   5.5177
  5.6435   5.8354  22.5918  22.6918  22.8463  22.8619  22.9666  23.0189
 23.3636
 --------------------------------------------------------------
 
          Ground-State Mulliken Net Atomic Charges

     Atom                 Charge (a.u.)
  ----------------------------------------
      1 C                    -1.007374
      2 C                    -0.428214
      3 C                     0.865034
      4 C                    -0.535984
      5 C                    -0.469751
      6 C                    -0.291805
      7 C                    -0.469797
      8 H                     0.286480
      9 H                     0.317302
     10 H                     0.268868
     11 H                     0.228934
     12 H                     0.337616
     13 H                     0.348843
     14 H                     0.317299
     15 H                     0.232549
  ----------------------------------------
  Sum of atomic charges =     0.000000

 -----------------------------------------------------------------
                    Cartesian Multipole Moments
 -----------------------------------------------------------------
    Charge (ESU x 10^10)
                -0.0000
    Dipole Moment (Debye)
         X      -0.1046      Y       0.3029      Z      -0.4304
       Tot       0.5366
    Quadrupole Moments (Debye-Ang)
        XX     -38.0103     XY       0.1893     YY     -43.0717
        XZ       0.7715     YZ      -4.4017     ZZ     -40.5932
    Octopole Moments (Debye-Ang^2)
       XXX     118.0698    XXY     -74.0993    XYY      45.8735
       YYY    -245.0619    XXZ     -14.8808    XYZ       5.1025
       YYZ     -32.5728    XZZ      42.8856    YZZ     -84.6038
       ZZZ     -46.7302
    Hexadecapole Moments (Debye-Ang^3)
      XXXX    -552.5756   XXXY     241.8633   XXYY    -283.6367
      XYYY     266.5035   YYYY   -1128.5411   XXXZ       5.1387
      XXYZ      -0.1188   XYYZ      16.9713   YYYZ     -22.1191
      XXZZ    -178.2382   XYZZ      92.6791   YYZZ    -287.9671
      XZZZ       4.1337   YZZZ      11.7908   ZZZZ    -492.9662
 -----------------------------------------------------------------
Archival summary:
1\1\nid00548\SP\ProcedureUnspecified\BasisUnspecified\78\meili\SunSep2622:29:562021SunSep2622:29:562021\0\\#,ProcedureUnspecified,BasisUnspecified,\\0,1\C\C,1,1.39727\H,2,1.07958,1,119.916\C,2,1.40327,1,120.632,3,-178.417,0\H,4,1.0791,2,120.352,1,178.315,0\C,1,1.41047,2,119.599,3,179.466,0\H,6,1.07956,1,120.709,2,178.629,0\C,6,1.4024,1,120.126,2,-1.18221,0\H,8,1.08044,6,119.894,1,179.755,0\C,8,1.4074,6,120.191,1,0.423026,0\H,10,1.08141,8,120.164,6,179.957,0\C,1,1.49933,2,120.733,3,2.74723,0\H,12,1.08535,1,107.646,2,-117.76,0\H,12,1.09169,1,110.443,2,-0.0453687,0\H,12,1.1,1,111.954,2,122.334,0\\\@

 Total job time:  30679.60s(wall), 60839.43s(cpu) 
 Sun Sep 26 22:30:00 2021

        *************************************************************
        *                                                           *
        *  Thank you very much for using Q-Chem.  Have a nice day.  *
        *                                                           *
        *************************************************************


Done Job For Fragment 0
calling putenv with: QCSCRATCH=/global/cscratch1/sd/meili 
calling putenv with: QCLOCALSCR=/tmp 
calling putenv with: QCTHREADS=32 
Creating input file /tmp/qchem63139/Frg2.input
using default PutDataFrgm: nothing
calling putenv with: QCSCRATCH=/tmp/qchem63139/ 
calling putenv with: QCLOCALSCR=/tmp/qchem63139/ 
Spawning Job For Fragment 1
                  Welcome to Q-Chem
     A Quantum Leap Into The Future Of Chemistry


 Q-Chem 5.2, Q-Chem, Inc., Pleasanton, CA (2019)

 License issued to: National Energy Research Scientific Computing Center

 Yihan Shao,  Zhengting Gan,  E. Epifanovsky,  A. T. B. Gilbert,  M. Wormit,  
 J. Kussmann,  A. W. Lange,  A. Behn,  Jia Deng,  Xintian Feng,  D. Ghosh,  
 M. Goldey,  P. R. Horn,  L. D. Jacobson,  I. Kaliman,  T. Kus,  A. Landau,  
 Jie Liu,  E. I. Proynov,  R. M. Richard,  R. P. Steele,  E. J. Sundstrom,  
 H. L. Woodcock III,  P. M. Zimmerman,  D. Zuev,  B. Albrecht,  E. Alguire,  
 S. A. Baeppler,  D. Barton,  Z. Benda,  Y. A. Bernard,  E. J. Berquist,  
 K. B. Bravaya,  H. Burton,  D. Casanova,  Chun-Min Chang,  Yunqing Chen,  
 A. Chien,  K. D. Closser,  M. P. Coons,  S. Coriani,  S. Dasgupta,  
 A. L. Dempwolff,  M. Diedenhofen,  Hainam Do,  R. G. Edgar,  Po-Tung Fang,  
 S. Faraji,  S. Fatehi,  Qingguo Feng,  K. D. Fenk,  J. Fosso-Tande,  
 J. Gayvert,  Qinghui Ge,  A. Ghysels,  G. Gidofalvi,  J. Gomes,  
 J. Gonthier,  A. Gunina,  D. Hait,  M. W. D. Hanson-Heine,  
 P. H. P. Harbach,  A. W. Hauser,  M. F. Herbst,  J. E. Herr,  
 E. G. Hohenstein,  Z. C. Holden,  Kerwin Hui,  B. C. Huynh,  T.-C. Jagau,  
 Hyunjun Ji,  B. Kaduk,  K. Khistyaev,  Jaehoon Kim,  P. Klunzinger,  K. Koh,  
 D. Kosenkov,  L. Koulias,  T. Kowalczyk,  C. M. Krauter,  A. Kunitsa,  
 Ka Un Lao,  A. Laurent,  K. V. Lawler,  Joonho Lee,  D. Lefrancois,  
 S. Lehtola,  D. S. Levine,  Yi-Pei Li,  You-Sheng Lin,  Fenglai Liu,  
 E. Livshits,  A. Luenser,  P. Manohar,  E. Mansoor,  S. F. Manzer,  
 Shan-Ping Mao,  Yuezhi Mao,  N. Mardirossian,  A. V. Marenich,  
 T. Markovich,  L. A. Martinez-Martinez,  S. A. Maurer,  N. J. Mayhall,  
 S. C. McKenzie,  J.-M. Mewes,  P. Morgante,  A. F. Morrison,  
 J. W. Mullinax,  K. Nanda,  T. S. Nguyen-Beck,  R. Olivares-Amaya,  
 J. A. Parkhill,  Zheng Pei,  T. M. Perrine,  F. Plasser,  P. Pokhilko,  
 S. Prager,  A. Prociuk,  E. Ramos,  D. R. Rehn,  F. Rob,  M. Scheurer,  
 M. Schneider,  N. Sergueev,  S. M. Sharada,  S. Sharma,  D. W. Small,  
 T. Stauch,  T. Stein,  Yu-Chuan Su,  A. J. W. Thom,  A. Tkatchenko,  
 T. Tsuchimochi,  N. M. Tubman,  L. Vogt,  M. L. Vidal,  O. Vydrov,  
 M. A. Watson,  J. Wenzel,  M. de Wergifosse,  T. A. Wesolowski,  A. White,  
 J. Witte,  A. Yamada,  Jun Yang,  K. Yao,  S. Yeganeh,  S. R. Yost,  
 Zhi-Qiang You,  A. Zech,  Igor Ying Zhang,  Xing Zhang,  Yan Zhao,  
 Ying Zhu,  B. R. Brooks,  G. K. L. Chan,  C. J. Cramer,  M. S. Gordon,  
 W. J. Hehre,  A. Klamt,  M. W. Schmidt,  C. D. Sherrill,  D. G. Truhlar,  
 A. Aspuru-Guzik,  R. Baer,  A. T. Bell,  N. A. Besley,  Jeng-Da Chai,  
 A. E. DePrince, III,  R. A. DiStasio Jr.,  A. Dreuw,  B. D. Dunietz,  
 T. R. Furlani,  Chao-Ping Hsu,  Yousung Jung,  Jing Kong,  D. S. Lambrecht,  
 WanZhen Liang,  C. Ochsenfeld,  V. A. Rassolov,  L. V. Slipchenko,  
 J. E. Subotnik,  T. Van Voorhis,  J. M. Herbert,  A. I. Krylov,  
 P. M. W. Gill,  M. Head-Gordon

 Contributors to earlier versions of Q-Chem not listed above: 
 R. D. Adamson,  B. Austin,  J. Baker,  G. J. O. Beran,  K. Brandhorst,  
 S. T. Brown,  E. F. C. Byrd,  A. K. Chakraborty,  C.-L. Cheng,  
 Siu Hung Chien,  D. M. Chipman,  D. L. Crittenden,  H. Dachsel,  
 R. J. Doerksen,  A. D. Dutoi,  L. Fusti-Molnar,  W. A. Goddard III,  
 A. Golubeva-Zadorozhnaya,  S. R. Gwaltney,  G. Hawkins,  A. Heyden,  
 S. Hirata,  G. Kedziora,  F. J. Keil,  C. Kelley,  Jihan Kim,  R. A. King,  
 R. Z. Khaliullin,  P. P. Korambath,  W. Kurlancheek,  A. M. Lee,  M. S. Lee,  
 S. V. Levchenko,  Ching Yeh Lin,  D. Liotard,  R. C. Lochan,  I. Lotan,  
 P. E. Maslen,  N. Nair,  D. P. O'Neill,  D. Neuhauser,  E. Neuscamman,  
 C. M. Oana,  R. Olson,  B. Peters,  R. Peverati,  P. A. Pieniazek,  
 Y. M. Rhee,  J. Ritchie,  M. A. Rohrdanz,  E. Rosta,  N. J. Russ,  
 H. F. Schaefer III,  N. E. Schultz,  N. Shenvi,  A. C. Simmonett,  A. Sodt,  
 D. Stuck,  K. S. Thanthiriwatte,  V. Vanovschi,  Tao Wang,  A. Warshel,  
 C. F. Williams,  Q. Wu,  X. Xu,  W. Zhang

 Please cite Q-Chem as follows:
 Y. Shao et al., Mol. Phys. 113, 184-215 (2015)
 DOI: 10.1080/00268976.2014.952696

 Q-Chem 5.2.0 for Intel X86 EM64T Linux

 Parts of Q-Chem use Armadillo 8.300.2 (Tropical Shenanigans).
 http://arma.sourceforge.net/

 Q-Chem begins on Sun Sep 26 22:30:04 2021  

Host: cori01
0

     Scratch files written to /tmp/qchem63139//Frg2//
 May1019 |scratch|qcdevops|jenkins|workspace|build_RNUM -1
Processing $rem in /global/common/cori/software/qchem/5.2/config/preferences:
	 MEM_TOTAL  96000 
NAlpha2: 52
NElect   52
Mult     1
Symmetry turned off for PCM/SM12/SMD calculation

Checking the input file for inconsistencies... 	...done.

--------------------------------------------------------------
User input:
--------------------------------------------------------------
$molecule
0 1
 6	-0.3539157591	-1.0633088398	-1.3866326594
 6	-0.1419157591	-1.5303088398	-2.8576326594
 6	0.6510842409	-1.6183088398	-0.3946326594
 6	0.4480842409	-2.3503088398	0.7363673406
 6	2.6180842409	-2.0463088398	0.5023673406
 7	2.0210842409	-1.4403088398	-0.5296326594
 7	1.6940842409	-2.6063088398	1.2793673406
 1	-0.2819157591	0.0176911602	-1.3566326594
 1	-1.3349157591	-1.3503088398	-1.0286326594
 1	0.8790842409	-1.3143088398	-3.1706326594
 1	-0.5069157591	-2.6443088398	1.1423673406
 1	3.6760842409	-2.0563088398	0.6933673406
 1	1.8620842409	-3.0923088398	2.1613673406
 1	-0.8664157591	-1.0073088398	-3.4991646594
 1	-0.3228057591	-2.6141788398	-2.9077576594
$end
$rem
EDA2		1
METHOD		WB97X-V
BASIS		DEF2-TZVPD
XC_GRID		000099000590
NL_GRID		1
UNRESTRICTED		FALSE
MAX_SCF_CYCLES		200
SYMMETRY		FALSE
SYM_IGNORE		TRUE
BASIS_LIN_DEP_THRESH		6
THRESH		14
SCF_CONVERGENCE		8
SCF_PRINT_FRGM		TRUE
SOLVENT_METHOD		PCM
!required keywords
JOBTYPE		SP
SYM_IGNORE		TRUE
SUBSYSTEM		TRUE
GEN_SCFMAN		TRUE
CHILD_INSTRUCTION		2
SYM_IGNORE		TRUE
SCFMI		0
RI_K 0		
PARI_K 0		
MIN_PARI_K 0		
IARI_K 0		
OCC_RI_K 0		
PURECART		1111
MEM_STATIC		2000
MEM_TOTAL		96000
GUI		0
CHILD_MP		1
CHILD_MP_ORDERS		232
FRZ_RELAX		0
FRZ_RELAX_METHOD		0
EDA_CLS_ELEC		1
EDA_CLS_DISP		0
FRZ_ORTHO_DECOMP		1
EDA2		FALSE
FRGM_METHOD		FALSE
CIS_N_ROOTS  0
LOCAL_CIS    0
CIS_RLX_DNS  1
$end
$pcm
THEORY                  CPCM
METHOD                  SWIG
SOLVER                  INVERSION
RADII                   UFF
HPOINTS                 302
HEAVYPOINTS             302
PRINTLEVEL              0
$end
$solvent
DIELECTRIC              78.390000 ! water
$end
--------------------------------------------------------------
 ----------------------------------------------------------------
             Standard Nuclear Orientation (Angstroms)
    I     Atom           X                Y                Z
 ----------------------------------------------------------------
    1      C      -0.3539157591    -1.0633088398    -1.3866326594
    2      C      -0.1419157591    -1.5303088398    -2.8576326594
    3      C       0.6510842409    -1.6183088398    -0.3946326594
    4      C       0.4480842409    -2.3503088398     0.7363673406
    5      C       2.6180842409    -2.0463088398     0.5023673406
    6      N       2.0210842409    -1.4403088398    -0.5296326594
    7      N       1.6940842409    -2.6063088398     1.2793673406
    8      H      -0.2819157591     0.0176911602    -1.3566326594
    9      H      -1.3349157591    -1.3503088398    -1.0286326594
   10      H       0.8790842409    -1.3143088398    -3.1706326594
   11      H      -0.5069157591    -2.6443088398     1.1423673406
   12      H       3.6760842409    -2.0563088398     0.6933673406
   13      H       1.8620842409    -3.0923088398     2.1613673406
   14      H      -0.8664157591    -1.0073088398    -3.4991646594
   15      H      -0.3228057591    -2.6141788398    -2.9077576594
 ----------------------------------------------------------------
 Nuclear Repulsion Energy =         289.29120020 hartrees
 There are       26 alpha and       26 beta electrons
 Requested basis set is def2-TZVPD
 There are 131 shells and 331 basis functions

 Total QAlloc Memory Limit  96000 MB
 Mega-Array Size      1956 MB
 MEM_STATIC part      2000 MB
 Discretize the solute cavity surface with Lebedev spheres
	Using 302 Lebedev grid points for each H atom
	Using 302 Lebedev grid points for other atoms
	Atomic van der Waals radii will be scaled by 1.20
 Remove points where switching function is < 1.0e-08
 Keep 1811 surface tesserae and discard 2719 interior tesserae
 Molecular Surface Area = 181.621 Angst**2

                       Distance Matrix (Angstroms)
             C (  1)   C (  2)   C (  3)   C (  4)   C (  5)   N (  6)
   C (  2)  1.557843
   C (  3)  1.517272  2.589008
   C (  4)  2.608966  3.733274  1.362422
   C (  5)  3.656145  4.378751  2.203833  2.203650
   N (  6)  2.552881  3.179033  1.388095  2.214765  1.337411
   N (  7)  3.699015  4.652251  2.205962  1.383077  1.330829  2.176917
   H (  8)  1.083810  2.160765  2.114812  3.243605  4.015716  2.848421
   H (  9)  1.083002  2.191093  2.101898  2.700799  4.295880  3.394089
   H ( 10)  2.183105  1.089526  2.801888  4.064936  4.129270  2.880090
   H ( 11)  2.986438  4.168240  2.180828  1.078562  3.245432  3.261286
   H ( 12)  4.642558  5.240554  3.244413  3.241646  1.075149  2.148071
   H ( 13)  4.649280  5.625497  3.189410  2.140230  2.101888  3.161624
   H ( 14)  2.174531  1.099997  3.509166  4.633712  5.406803  4.164525
   H ( 15)  2.172553  1.100004  2.873328  3.734106  4.538751  3.539388
             N (  7)   H (  8)   H (  9)   H ( 10)   H ( 11)   H ( 12)
   H (  8)  4.211704
   H (  9)  4.009893  1.757219
   H ( 10)  4.704890  2.532339  3.080788
   H ( 11)  2.205587  3.658124  2.659560  4.721426
   H ( 12)  2.138743  4.916273  5.345450  4.827450  4.247921
   H ( 13)  1.020952  5.161895  4.840607  5.705944  2.617485  2.553217
   H ( 14)  5.652197  2.445958  2.537847  1.802485  4.934859  6.269931
   H ( 15)  4.647572  3.055225  2.480493  1.789778  4.054419  5.410216
             H ( 13)   H ( 14)
   H ( 14)  6.620692
   H ( 15)  5.540612  1.796470
 
 A cutoff of  1.0D-14 yielded   8276 shell pairs
 There are     53826 function pairs (     68538 Cartesian)
 Smallest overlap matrix eigenvalue = 1.50E-06

 Scale SEOQF with 1.000000e-01/1.000000e-01/1.000000e-01

 Standard Electronic Orientation quadrupole field applied
 Nucleus-field energy     =     0.0000000048 hartrees
 Guess from superposition of atomic densities
 Warning:  Energy on first SCF cycle will be non-variational
 SAD guess density has 51.546797 electrons

 -----------------------------------------------------------------------
  General SCF calculation program by
  Eric Jon Sundstrom, Paul Horn, Yuezhi Mao, Dmitri Zuev, Alec White,
  David Stuck, Shaama M.S., Shane Yost, Joonho Lee, David Small,
  Daniel Levine, Susi Lehtola, Hugh Burton, Evgeny Epifanovsky
 -----------------------------------------------------------------------
 Exchange:     0.1670 Hartree-Fock + 1.0000 wB97X-V + LR-HF
 Correlation:  1.0000 wB97X-V
 Using Euler-Maclaurin-Lebedev (99,590) quadrature formula
 Nonlocal Correlation:  VV10 with C = 0.0100 and b = 6.00 and scale = 1.00000
 Grid used for NLC:  SG-1 standard quadrature
Energy prior to optimization (guess energy) = -304.452907591128
Begin Timing: Total SCF Calculation
begin iterations for algorithm: DIIS         
the SCF tolerance is set to 1.00e-08
    1    -304.4529075911      6.05e-03     00000 
    2    -304.4012506242      6.24e-03     00000 
    3    -304.8750260024      6.50e-04     00000 
    4    -304.8791669559      3.70e-04     00000 
    5    -304.8807973876      7.36e-05     00000 
    6    -304.8808892348      2.67e-05     00000 
    7    -304.8809037045      8.15e-06     00000 
    8    -304.8809052573      2.67e-06     00000 
    9    -304.8809054563      1.18e-06     00000 
   10    -304.8809055017      3.30e-07     00000 
   11    -304.8809055074      7.42e-08     00000 
   12    -304.8809055077      4.08e-08     00000 
   13    -304.8809055077      9.15e-09     00000 Convergence criterion met
Timing for Total SCF: 1568.00s (wall), 3107.09s (cpu)

************** Final PCM Free Energy Summary **************
 G_electrostatic  =      -0.01040222 hartree =      -6.52749322 kcal/mol
 G_cavitation     =       0.00000000 hartree =       0.00000000 kcal/mol
 G_dispersion     =       0.00000000 hartree =       0.00000000 kcal/mol
 G_repulsion      =       0.00000000 hartree =       0.00000000 kcal/mol
 --------------------------------------------------
 Non-electrostatic Free Energy =       0.00000000 hartree =       0.00000000 kcal/mol
 Total                         =      -0.01040222 hartree =      -6.52749322 kcal/mol
 --------------------------------------------------
 SCF Energy (H0 + V/2)                       =    -304.88090551 
 Solute Internal Energy (H0)                 =    -304.87050329 
 Total Free Energy (H0 + V/2 + non-elec)     =    -304.88090551 hartree
                                             = -191315.65573315 kcal/mol
***********************************************************

E_pcm = -0.0104022226
Multipole orders to be included
        2
        3
computing dipole RHS
computing quadrupole RHS
total number of RHS in solve_reponses: 8
RHS batch sizes
        8
Beginning Block Conjugate Gradient Iterations. Batch Number: 0
computing hessian-vector products by finite difference
              1      5.69e-01     00000 Conjugate Gradient Iteration
computing hessian-vector products by finite difference
              2      1.78e-01     00000 Conjugate Gradient Iteration
computing hessian-vector products by finite difference
              3      4.32e-02     00000 Conjugate Gradient Iteration
computing hessian-vector products by finite difference
              4      1.29e-02     00000 Conjugate Gradient Iteration
computing hessian-vector products by finite difference
              5      2.75e-03     00000 Conjugate Gradient Iteration
computing hessian-vector products by finite difference
              6      5.94e-04     00000 Conjugate Gradient Iteration
computing hessian-vector products by finite difference
              7      1.25e-04     00000 Conjugate Gradient Iteration
computing hessian-vector products by finite difference
              8      1.82e-05     00000 Conjugate Gradient Iteration
computing hessian-vector products by finite difference
              9      3.49e-06     00000 Conjugate Gradient Iteration
computing hessian-vector products by finite difference
             10      6.62e-07     00000 Conjugate Gradient Iteration
computing hessian-vector products by finite difference
             11      1.85e-07     00000 Conjugate Gradient Iteration
computing hessian-vector products by finite difference
             12      3.40e-08     00000 Conjugate Gradient Iteration
computing hessian-vector products by finite difference
             13      1.02e-08     00000 Conjugate Gradient Iteration
computing hessian-vector products by finite difference
             14      1.94e-09     00000 CG Converged
batch 0 complete
Done Calculating Responses
TESTING ORTHOGONALIZATION OF MULTIPOLE BASIS
Multipole virts passed orthogonality test
Virts Per Order
           78
          130
 
 --------------------------------------------------------------
 
                    Orbital Energies (a.u.)
 --------------------------------------------------------------
 
 Alpha MOs
 -- Occupied --
-14.4686 -14.3896 -10.3244 -10.2909 -10.2868 -10.2705 -10.2590  -1.1533
 -0.9962  -0.9118  -0.8607  -0.7617  -0.7303  -0.6869  -0.6615  -0.5720
 -0.5635  -0.5468  -0.5370  -0.5178  -0.4745  -0.4556  -0.4533  -0.3774
 -0.3756  -0.3253
 -- Virtual --
  0.0628   0.0803   0.0869   0.0945   0.1025   0.1133   0.1217   0.1346
  0.1404   0.1579   0.1668   0.1687   0.1801   0.1871   0.1957   0.2036
  0.2134   0.2217   0.2321   0.2435   0.2471   0.2588   0.2656   0.2688
  0.2748   0.2858   0.2915   0.2987   0.3038   0.3066   0.3113   0.3202
  0.3221   0.3361   0.3408   0.3467   0.3509   0.3584   0.3614   0.3634
  0.3702   0.3727   0.3861   0.3928   0.4017   0.4030   0.4045   0.4111
  0.4174   0.4256   0.4266   0.4386   0.4464   0.4563   0.4683   0.4704
  0.4728   0.4862   0.4899   0.4960   0.5092   0.5130   0.5225   0.5287
  0.5395   0.5497   0.5545   0.5567   0.5616   0.5828   0.5863   0.5934
  0.5980   0.6087   0.6191   0.6291   0.6377   0.6412   0.6490   0.6614
  0.6678   0.6867   0.6984   0.7009   0.7155   0.7231   0.7242   0.7455
  0.7525   0.7574   0.7632   0.7735   0.7796   0.7836   0.7954   0.7996
  0.8098   0.8127   0.8187   0.8239   0.8386   0.8416   0.8537   0.8677
  0.8777   0.8883   0.8937   0.9224   0.9416   0.9621   0.9727   0.9911
  1.0011   1.0209   1.0232   1.0535   1.0773   1.0841   1.0933   1.0995
  1.1260   1.1437   1.1678   1.1801   1.1924   1.1982   1.2193   1.2551
  1.2604   1.2848   1.3356   1.3462   1.3639   1.3861   1.4181   1.4254
  1.4478   1.4659   1.4900   1.5278   1.5577   1.5874   1.6130   1.6617
  1.6666   1.7037   1.7136   1.7578   1.8125   1.8391   1.8512   1.8658
  1.8697   1.8950   1.9098   1.9180   1.9321   1.9469   1.9680   1.9790
  1.9887   1.9931   2.0027   2.0093   2.0195   2.0237   2.0427   2.0934
  2.1141   2.1806   2.1972   2.2150   2.2706   2.2739   2.3005   2.3252
  2.3308   2.3614   2.3834   2.4321   2.4614   2.4704   2.5062   2.5254
  2.5312   2.5781   2.6064   2.6125   2.6380   2.6491   2.6688   2.6879
  2.6993   2.7302   2.7430   2.7545   2.7871   2.8072   2.8192   2.8471
  2.8810   2.8925   2.9252   2.9664   2.9843   3.0177   3.0262   3.0464
  3.0755   3.0881   3.1094   3.1181   3.1190   3.1500   3.1900   3.2139
  3.2462   3.2630   3.2745   3.2994   3.3001   3.3082   3.3312   3.3466
  3.3790   3.3858   3.4029   3.4146   3.4299   3.4537   3.4833   3.5044
  3.5200   3.5382   3.5729   3.5942   3.6017   3.6282   3.6351   3.6510
  3.6804   3.6875   3.7097   3.7351   3.7664   3.7922   3.8323   3.8720
  3.8866   3.9234   3.9811   3.9892   4.0413   4.0903   4.1128   4.1329
  4.1576   4.2345   4.3011   4.3194   4.4410   4.4648   4.5185   4.5417
  4.5781   4.6084   4.6400   4.6593   4.7720   4.7823   4.8269   4.8520
  4.8680   4.9528   4.9690   4.9944   5.0296   5.0449   5.0632   5.1205
  5.1561   5.2121   5.2234   5.3023   5.3716   5.4361   5.4954   5.5272
  5.5768   5.5946   5.6795   5.6926   5.7648   5.7958   5.8780   6.0517
  6.2413   6.2472  22.6037  22.7506  22.8924  23.1239  23.3732  32.6468
 32.8058
 --------------------------------------------------------------
 
          Ground-State Mulliken Net Atomic Charges

     Atom                 Charge (a.u.)
  ----------------------------------------
      1 C                    -0.129743
      2 C                    -0.813475
      3 C                     0.412333
      4 C                    -0.575291
      5 C                    -0.282673
      6 N                    -0.459518
      7 N                     0.099140
      8 H                     0.178305
      9 H                     0.170810
     10 H                     0.221873
     11 H                     0.261505
     12 H                     0.291319
     13 H                     0.181704
     14 H                     0.201699
     15 H                     0.242011
  ----------------------------------------
  Sum of atomic charges =     0.000000

 -----------------------------------------------------------------
                    Cartesian Multipole Moments
 -----------------------------------------------------------------
    Charge (ESU x 10^10)
                 0.0000
    Dipole Moment (Debye)
         X      -0.8558      Y      -2.2464      Z       3.7951
       Tot       4.4924
    Quadrupole Moments (Debye-Ang)
        XX     -40.3779     XY      -3.5708     YY     -34.9659
        XZ       9.4737     YZ     -10.9293     ZZ     -38.8329
    Octopole Moments (Debye-Ang^2)
       XXX    -102.0795    XXY      59.0905    XYY     -25.2282
       YYY     207.9629    XXZ      44.7582    XYZ     -21.2962
       YYZ      52.5979    XZZ     -34.1239    YZZ      60.9141
       ZZZ      79.3740
    Hexadecapole Moments (Debye-Ang^3)
      XXXX    -515.3467   XXXY     184.1795   XXYY    -209.7704
      XYYY     202.6031   YYYY    -900.6308   XXXZ      -2.6091
      XXYZ     -66.3997   XYYZ      35.0429   YYYZ    -130.7614
      XXZZ    -191.9440   XYZZ      52.6768   YYZZ    -209.1877
      XZZZ     -34.8790   YZZZ     -94.3161   ZZZZ    -621.4416
 -----------------------------------------------------------------
Archival summary:
1\1\nid00548\SP\ProcedureUnspecified\BasisUnspecified\258\meili\MonSep2706:57:522021MonSep2706:57:522021\0\\#,ProcedureUnspecified,BasisUnspecified,\\0,1\N\C,1,1.33741\H,2,1.07515,1,125.49\N,2,1.33083,1,109.345,3,178.31,0\H,4,1.02095,2,126.188,1,-176.608,0\C,4,1.38308,2,108.565,1,-0.277727,0\H,6,1.07856,4,126.83,2,-178.188,0\C,6,1.36242,4,106.926,2,0.0528846,0\C,8,1.51727,6,129.836,4,179.876,0\H,9,1.083,8,106.674,6,0.56552,0\H,9,1.08381,8,107.622,6,116.703,0\C,9,1.55784,8,114.681,6,-122.568,0\H,12,1.08953,9,109.838,8,-54.0264,0\H,12,1.1,9,108.575,8,-175.347,0\H,12,1.1,9,108.423,8,65.7794,0\\\@

 Total job time:  30471.58s(wall), 60379.88s(cpu) 
 Mon Sep 27 06:57:56 2021

        *************************************************************
        *                                                           *
        *  Thank you very much for using Q-Chem.  Have a nice day.  *
        *                                                           *
        *************************************************************


Done Job For Fragment 1
calling putenv with: QCSCRATCH=/global/cscratch1/sd/meili 
calling putenv with: QCLOCALSCR=/tmp 
calling putenv with: QCTHREADS=32 
Doing General SCFMI
 Exchange:     0.1670 Hartree-Fock + 1.0000 wB97X-V + LR-HF
 Correlation:  1.0000 wB97X-V
 Using Euler-Maclaurin-Lebedev (99,590) quadrature formula
 Nonlocal Correlation:  VV10 with C = 0.0100 and b = 6.00 and scale = 1.00000
 Grid used for NLC:  SG-1 standard quadrature
performing fock build before subrot guess so that all methods have access
Printing subrot_rss_gen Method Specification:
Occupied Subspace Method is 0
Virtual Subspace Method is 0
Energy of the unrelaxed supersystem initial determinant -576.451039326587
performing fock build before subrot guess so that all methods have access
Printing subrot_rss_gen Method Specification:
Occupied Subspace Method is 0
Virtual Subspace Method is 0
Energy of the unrelaxed supersystem initial determinant w/ solvent -576.463304056716
write pseudocanon occs and virts to disk
write pseudocanon orbital energies to disk
Tolerance of ortho_decomp_scf: 1.00e-06
GDM subspace size: 20
Beginning the Orthogonal Decomposition of the Initial Supersystem Wavefunction
    1    -576.4227207724      2.32e-02     ortho_decomp Preconditoned Steepest Descent
    2    -576.4250862973      5.76e-04     ortho_decomp BFGS Step
    3    -576.4250939593      4.70e-05     ortho_decomp BFGS Step
    4    -576.4250939761      1.93e-06     ortho_decomp BFGS Step
    5    -576.4250939761      5.36e-08     ortho_decomp 00000 Convergence criterion met
 Hartree-Fock
 Hartree-Fock
 Hartree-Fock
Doing General SCFMI
 Exchange:     0.1670 Hartree-Fock + 1.0000 wB97X-V + LR-HF
 Correlation:  1.0000 wB97X-V
 Using Euler-Maclaurin-Lebedev (99,590) quadrature formula
 Nonlocal Correlation:  VV10 with C = 0.0100 and b = 6.00 and scale = 1.00000
 Grid used for NLC:  SG-1 standard quadrature
performing fock build at end of subrot_r(subrot) constructor so that all methods have access
<S^2> of initial wavefunction before polarization iterations 0.0000000000
Beginning iterations for the determination of the polarized wavefunction
Energy prior to optimization (guess energy) = -576.463304056716
Begin Timing: Total SCF Calculation
begin iterations for algorithm: DIIS         
the SCF tolerance is set to 1.00e-08
    1    -576.4633040567      7.28e-05     00000 
    2    -576.4636744154      4.57e-05     00000 
    3    -576.4637813140      1.34e-05     00000 
    4    -576.4637926222      6.09e-06     00000 
    5    -576.4637947894      2.33e-06     00000 
    6    -576.4637951760      1.23e-06     00000 
    7    -576.4637952859      5.46e-07     00000 
    8    -576.4637953102      2.63e-07     00000 
    9    -576.4637953167      1.44e-07     00000 
   10    -576.4637953183      8.81e-08     00000 
   11    -576.4637953187      4.78e-08     00000 
   12    -576.4637953188      2.46e-08     00000 
   13    -576.4637953188      1.23e-08     00000 
   14    -576.4637953188      5.29e-09     00000 Convergence criterion met
write pseudocanon occs and virts to disk
write pseudocanon orbital energies to disk
Timing for Total SCF: 13775.00s (wall), 27389.61s (cpu)
<S^2> of polarized wavefunction after polarization iterations 0.0000000000
relaxing scfmi constraint to allow all rotations in the entire AO span
Doing General SCFMI
 Exchange:     0.1670 Hartree-Fock + 1.0000 wB97X-V + LR-HF
 Correlation:  1.0000 wB97X-V
 Using Euler-Maclaurin-Lebedev (99,590) quadrature formula
 Nonlocal Correlation:  VV10 with C = 0.0100 and b = 6.00 and scale = 1.00000
 Grid used for NLC:  SG-1 standard quadrature
performing fock build at end of subrot_r(subrot) constructor so that all methods have access
<S^2> of polarized wavefunction before ct-allowed iterations 0.0000000000
Beginning iterations for the determination of the CT-Allowed wavefunction
Energy prior to optimization (guess energy) = -576.463795318830
Begin Timing: Total SCF Calculation
begin iterations for algorithm: DIIS         
the SCF tolerance is set to 1.00e-08
    1    -576.4637953188      7.48e-05     00000 
    2    -576.4649662781      7.77e-06     00000 
    3    -576.4650044822      1.50e-06     00000 
    4    -576.4650059718      8.71e-07     00000 
    5    -576.4650061540      1.66e-07     00000 
    6    -576.4650061667      8.03e-08     00000 
    7    -576.4650061685      1.55e-08     00000 
    8    -576.4650061687      5.63e-09     00000 Convergence criterion met
write pseudocanon occs and virts to disk
write pseudocanon orbital energies to disk
Timing for Total SCF: 7480.00s (wall), 14881.56s (cpu)
<S^2> of ct_allowed wavefunction after ct-allowed iterations 0.0000000000

================================
        Results of EDA2         
================================
Basic EDA Quantities
--------------------
Fragment Energies (Ha):
1 -271.5804665443
2 -304.8809055077
--------------------
  E_prp (kJ/mol) = -0.0000
  E_sol (kJ/mol) = 2.0953
  E_frz (kJ/mol) = -7.1678
  E_pol (kJ/mol) = -1.2898
  E_vct (kJ/mol) = -3.1791
  E_int (kJ/mol) = -9.5415
--------------------


Initial Wavefunction Decomposition
--------------------
  --------------------
  Orthogonal Fragment Subspace Decomposition:
  --------------------
     E_elec   (ELEC)   (kJ/mol) = -27.4909
     E_pauli  (PAULI)  (kJ/mol) = 47.3222
     E_disp   (DISP)   (kJ/mol) = -26.9991
     --------------------
     Terms summing to E_pauli:
     --------------------
        E_kep_pauli       (kJ/mol) = 60.9525
        E_disp_free_pauli (kJ/mol) = -13.6303
  --------------------
  Classical Frozen Decomposition:
  --------------------
     E_cls_elec  (CLS ELEC)  (kJ/mol) = -7.4647
     E_cls_pauli (CLS PAULI) (kJ/mol) = 0.2969
    [E_mod_pauli (MOD PAULI) (kJ/mol) = 27.2960 (CLS PAULI - DISP from orthogonal decomposition) ]
  --------------------
--------------------

Simplified EDA Summary (kJ/mol)
--------------------
 PREPARATION     -0.0000
 SOLVATION       2.0953
 FROZEN          19.8313      (does not include dispersion)
[PAULI           47.3222]     (if this is negligible, then frozen describes electrostatics)
 DISPERSION      -26.9991
 POLARIZATION    -1.2898
 CHARGE TRANSFER -3.1791
 TOTAL           -9.5415     (PRP + SOL + FRZ + DISP + POL + CT)
--------------------
 
 --------------------------------------------------------------
 
                    Orbital Energies (a.u.)
 --------------------------------------------------------------
 
 Alpha MOs
 -- Occupied --
-14.4660 -14.3867 -10.3215 -10.2867 -10.2827 -10.2824 -10.2757 -10.2748
-10.2729 -10.2710 -10.2704 -10.2633 -10.2618 -10.2564  -1.1501  -0.9931
 -0.9902  -0.9072  -0.9041  -0.8753  -0.8571  -0.8111  -0.7577  -0.7277
 -0.7272  -0.7034  -0.6839  -0.6577  -0.6259  -0.5706  -0.5687  -0.5684
 -0.5607  -0.5441  -0.5385  -0.5306  -0.5284  -0.5147  -0.5118  -0.4882
 -0.4764  -0.4639  -0.4494  -0.4473  -0.4413  -0.4397  -0.3746  -0.3727
 -0.3453  -0.3377  -0.3152
 -- Virtual --
  0.0568   0.0589   0.0658   0.0693   0.0764   0.0793   0.0920   0.0962
  0.0973   0.1039   0.1085   0.1147   0.1177   0.1207   0.1310   0.1372
  0.1406   0.1438   0.1553   0.1589   0.1596   0.1707   0.1739   0.1804
  0.1872   0.1967   0.2015   0.2045   0.2092   0.2115   0.2235   0.2242
  0.2296   0.2314   0.2347   0.2399   0.2433   0.2542   0.2565   0.2589
  0.2611   0.2670   0.2683   0.2722   0.2736   0.2780   0.2827   0.2845
  0.2890   0.2920   0.2932   0.2972   0.3024   0.3088   0.3113   0.3138
  0.3174   0.3181   0.3218   0.3278   0.3300   0.3346   0.3368   0.3447
  0.3457   0.3478   0.3512   0.3559   0.3611   0.3630   0.3645   0.3694
  0.3717   0.3738   0.3778   0.3818   0.3845   0.3857   0.3880   0.3914
  0.3939   0.3986   0.4036   0.4065   0.4100   0.4152   0.4172   0.4200
  0.4217   0.4244   0.4304   0.4318   0.4390   0.4402   0.4424   0.4464
  0.4500   0.4507   0.4571   0.4651   0.4681   0.4707   0.4753   0.4799
  0.4836   0.4853   0.4874   0.4890   0.4949   0.4989   0.5035   0.5061
  0.5125   0.5143   0.5158   0.5218   0.5258   0.5312   0.5321   0.5341
  0.5439   0.5467   0.5511   0.5530   0.5562   0.5627   0.5670   0.5710
  0.5736   0.5795   0.5824   0.5916   0.5947   0.5974   0.6045   0.6076
  0.6085   0.6112   0.6198   0.6219   0.6270   0.6348   0.6408   0.6428
  0.6456   0.6472   0.6559   0.6584   0.6635   0.6666   0.6687   0.6796
  0.6842   0.6876   0.6925   0.6951   0.7023   0.7040   0.7118   0.7127
  0.7191   0.7217   0.7259   0.7334   0.7393   0.7434   0.7489   0.7516
  0.7583   0.7591   0.7639   0.7654   0.7716   0.7759   0.7783   0.7835
  0.7850   0.7904   0.7923   0.7977   0.8011   0.8071   0.8077   0.8095
  0.8162   0.8170   0.8202   0.8265   0.8303   0.8346   0.8413   0.8479
  0.8500   0.8514   0.8561   0.8595   0.8668   0.8682   0.8697   0.8758
  0.8816   0.8857   0.8902   0.8943   0.9023   0.9069   0.9108   0.9180
  0.9208   0.9271   0.9312   0.9410   0.9475   0.9521   0.9607   0.9654
  0.9775   0.9878   0.9905   0.9952   1.0059   1.0192   1.0213   1.0400
  1.0468   1.0488   1.0545   1.0673   1.0754   1.0838   1.0858   1.0917
  1.0959   1.1064   1.1132   1.1316   1.1413   1.1501   1.1584   1.1676
  1.1717   1.1786   1.1833   1.1909   1.1944   1.2040   1.2176   1.2318
  1.2422   1.2473   1.2638   1.2793   1.2879   1.2914   1.3063   1.3096
  1.3307   1.3435   1.3515   1.3650   1.3774   1.3870   1.3939   1.3976
  1.4100   1.4200   1.4269   1.4401   1.4564   1.4619   1.4681   1.4843
  1.4948   1.4999   1.5177   1.5213   1.5299   1.5403   1.5626   1.5752
  1.5893   1.5918   1.6078   1.6183   1.6289   1.6413   1.6459   1.6629
  1.6682   1.6867   1.6980   1.7033   1.7199   1.7458   1.7509   1.7717
  1.7843   1.7985   1.8114   1.8201   1.8364   1.8535   1.8649   1.8715
  1.8920   1.9077   1.9120   1.9183   1.9212   1.9378   1.9430   1.9564
  1.9609   1.9677   1.9764   1.9833   1.9903   1.9934   2.0034   2.0086
  2.0219   2.0275   2.0301   2.0360   2.0454   2.0494   2.0554   2.0596
  2.0683   2.0723   2.0736   2.0989   2.1186   2.1218   2.1287   2.1430
  2.1647   2.1894   2.1969   2.2105   2.2250   2.2306   2.2449   2.2510
  2.2614   2.2783   2.2803   2.3010   2.3063   2.3122   2.3174   2.3302
  2.3412   2.3526   2.3661   2.3807   2.3920   2.4128   2.4238   2.4370
  2.4453   2.4645   2.4703   2.4842   2.5031   2.5342   2.5414   2.5478
  2.5584   2.5719   2.5798   2.5929   2.6007   2.6105   2.6193   2.6436
  2.6476   2.6602   2.6646   2.6766   2.6837   2.6985   2.7038   2.7085
  2.7181   2.7302   2.7437   2.7544   2.7609   2.7697   2.7761   2.7950
  2.8024   2.8131   2.8284   2.8454   2.8486   2.8588   2.8633   2.8653
  2.8732   2.8848   2.9044   2.9161   2.9331   2.9354   2.9497   2.9552
  2.9680   2.9813   2.9918   2.9955   3.0102   3.0181   3.0227   3.0344
  3.0384   3.0507   3.0560   3.0679   3.0806   3.0898   3.0914   3.1078
  3.1117   3.1271   3.1316   3.1373   3.1557   3.1650   3.1802   3.2024
  3.2065   3.2152   3.2364   3.2459   3.2559   3.2813   3.2854   3.2882
  3.2888   3.2992   3.3237   3.3292   3.3327   3.3408   3.3540   3.3633
  3.3702   3.3837   3.3964   3.4091   3.4133   3.4230   3.4274   3.4355
  3.4519   3.4556   3.4585   3.4653   3.4737   3.4848   3.4967   3.4980
  3.5051   3.5124   3.5260   3.5287   3.5311   3.5385   3.5454   3.5563
  3.5574   3.5640   3.5732   3.5805   3.5865   3.5961   3.6048   3.6092
  3.6282   3.6296   3.6356   3.6506   3.6514   3.6686   3.6726   3.6889
  3.6998   3.7020   3.7076   3.7240   3.7355   3.7393   3.7426   3.7579
  3.7703   3.7976   3.8204   3.8317   3.8599   3.8729   3.9114   3.9193
  3.9298   3.9358   3.9538   3.9594   3.9772   4.0023   4.0109   4.0188
  4.0460   4.0628   4.0944   4.1293   4.1376   4.1448   4.1844   4.2127
  4.2313   4.2567   4.2653   4.2789   4.2878   4.3100   4.3230   4.3301
  4.3382   4.3571   4.3579   4.3701   4.3823   4.3910   4.4303   4.4452
  4.4633   4.4945   4.5016   4.5405   4.5524   4.5568   4.6015   4.6174
  4.6304   4.6374   4.6787   4.6968   4.7727   4.7862   4.7893   4.8061
  4.8143   4.8250   4.8501   4.8751   4.9028   4.9349   4.9581   4.9716
  4.9984   5.0227   5.0285   5.0449   5.0590   5.0713   5.0884   5.1592
  5.1662   5.1728   5.2431   5.2633   5.2724   5.3266   5.3323   5.3489
  5.3813   5.4511   5.4855   5.5135   5.5197   5.5412   5.5909   5.6151
  5.6585   5.6889   5.7123   5.7836   5.8106   5.8427   5.9027   6.0682
  6.2526   6.2593  22.6621  22.7023  22.7627  22.8723  22.9245  22.9480
 22.9806  23.0175  23.0794  23.1471  23.3832  23.4222  32.6985  32.8849
 --------------------------------------------------------------
 
          Ground-State Mulliken Net Atomic Charges

     Atom                 Charge (a.u.)
  ----------------------------------------
      1 C                    -1.219635
      2 C                    -0.343759
      3 C                     0.699292
      4 C                    -0.399407
      5 C                    -0.464876
      6 C                    -0.254549
      7 C                    -0.306866
      8 H                     0.296209
      9 H                     0.317214
     10 H                     0.282441
     11 H                     0.223517
     12 H                     0.352366
     13 H                     0.314817
     14 H                     0.295404
     15 H                     0.254580
     16 C                     0.571636
     17 C                    -1.059240
     18 C                     0.051961
     19 C                    -0.202669
     20 C                    -0.329632
     21 N                    -0.452479
     22 N                     0.072873
     23 H                    -0.447494
     24 H                     0.223475
     25 H                     0.247843
     26 H                     0.281324
     27 H                     0.293458
     28 H                     0.190619
     29 H                     0.247110
     30 H                     0.264467
  ----------------------------------------
  Sum of atomic charges =     0.000000

 -----------------------------------------------------------------
                    Cartesian Multipole Moments
 -----------------------------------------------------------------
    Charge (ESU x 10^10)
                -0.0000
    Dipole Moment (Debye)
         X      -0.9871      Y      -1.8528      Z       3.5072
       Tot       4.0875
    Quadrupole Moments (Debye-Ang)
        XX     -79.2160     XY      -2.9075     YY     -79.5675
        XZ      10.2041     YZ     -15.6536     ZZ     -80.3306
    Octopole Moments (Debye-Ang^2)
       XXX      15.2725    XXY     -14.4778    XYY      20.3557
       YYY     -36.2562    XXZ      29.6614    XYZ     -15.9113
       YYZ      20.1225    XZZ       8.8698    YZZ     -23.1115
       ZZZ      33.9974
    Hexadecapole Moments (Debye-Ang^3)
      XXXX   -1077.7126   XXXY     430.8913   XXYY    -498.7817
      XYYY     473.6734   YYYY   -2047.4417   XXXZ       2.3380
      XXYZ     -66.6539   XYYZ      51.3610   YYYZ    -154.1541
      XXZZ    -373.0037   XYZZ     146.5881   YYZZ    -502.7034
      XZZZ     -31.0718   YZZZ     -86.0993   ZZZZ   -1126.3094
 -----------------------------------------------------------------
Archival summary:
1\1\nid00548\SP\ProcedureUnspecified\BasisUnspecified\21216\meili\MonSep2717:13:262021MonSep2717:13:262021\0\\#,ProcedureUnspecified,BasisUnspecified,\\0,1\N\C,1,1.33741\H,2,1.07515,1,125.49\N,2,1.33083,1,109.345,3,178.31,0\H,4,1.02095,2,126.188,1,-176.608,0\C,4,1.38308,2,108.565,1,-0.277727,0\H,6,1.07856,4,126.83,2,-178.188,0\C,6,1.36242,4,106.926,2,0.0528846,0\C,8,1.51727,6,129.836,4,179.876,0\H,9,1.083,8,106.674,6,0.56552,0\H,9,1.08381,8,107.622,6,116.703,0\C,9,1.55784,8,114.681,6,-122.568,0\H,12,1.08953,9,109.838,8,-54.0264,0\H,12,1.1,9,108.575,8,-175.347,0\H,12,1.1,9,108.423,8,65.7794,0\C,11,2.63425,9,151.056,8,-36.8233,0\H,16,1.07956,11,98.8842,9,130.485,0\C,16,1.4024,11,94.085,9,10.1101,0\H,18,1.08044,16,119.894,11,102.484,0\C,18,1.4074,16,120.191,11,-76.848,0\H,20,1.08141,18,120.164,16,179.957,0\C,16,1.41047,11,76.9474,9,-109.888,0\C,22,1.39727,16,119.599,11,85.9526,0\H,23,1.07958,22,119.916,16,179.466,0\C,23,1.40327,22,120.632,16,1.0496,0\H,25,1.0791,23,120.352,22,178.315,0\C,22,1.49933,16,119.587,11,-97.2904,0\H,27,1.08535,22,107.646,16,65.5205,0\H,27,1.09169,22,110.443,16,-176.765,0\H,27,1.1,22,111.954,16,-54.3857,0\\\@

 Total job time:  98095.89s(wall), 73542.05s(cpu) 
 Mon Sep 27 17:13:29 2021

        *************************************************************
        *                                                           *
        *  Thank you very much for using Q-Chem.  Have a nice day.  *
        *                                                           *
        *************************************************************


