                  Welcome to Q-Chem
     A Quantum Leap Into The Future Of Chemistry


 Q-Chem 5.2 (devel), Q-Chem, Inc., Pleasanton, CA (2019)

 Yihan Shao,  Zhengting Gan,  E. Epifanovsky,  A. T. B. Gilbert,  M. Wormit,  
 J. Kussmann,  A. W. Lange,  A. Behn,  Jia Deng,  Xintian Feng,  D. Ghosh,  
 M. Goldey,  P. R. Horn,  L. D. Jacobson,  I. Kaliman,  T. Kus,  A. Landau,  
 Jie Liu,  E. I. Proynov,  R. M. Richard,  R. P. Steele,  E. J. Sundstrom,  
 H. L. Woodcock III,  P. M. Zimmerman,  D. Zuev,  B. Albrecht,  E. Alguire,  
 S. A. Baeppler,  D. Barton,  Z. Benda,  Y. A. Bernard,  E. J. Berquist,  
 K. B. Bravaya,  H. Burton,  D. Casanova,  Chun-Min Chang,  Yunqing Chen,  
 A. Chien,  K. D. Closser,  M. P. Coons,  S. Coriani,  S. Dasgupta,  
 A. L. Dempwolff,  M. Diedenhofen,  Hainam Do,  R. G. Edgar,  Po-Tung Fang,  
 S. Faraji,  S. Fatehi,  Qingguo Feng,  K. D. Fenk,  J. Fosso-Tande,  
 J. Gayvert,  Qinghui Ge,  A. Ghysels,  G. Gidofalvi,  J. Gomes,  
 J. Gonthier,  A. Gunina,  D. Hait,  M. W. D. Hanson-Heine,  
 P. H. P. Harbach,  A. W. Hauser,  M. F. Herbst,  J. E. Herr,  
 E. G. Hohenstein,  Z. C. Holden,  Kerwin Hui,  B. C. Huynh,  T.-C. Jagau,  
 Hyunjun Ji,  B. Kaduk,  K. Khistyaev,  Jaehoon Kim,  P. Klunzinger,  K. Koh,  
 D. Kosenkov,  L. Koulias,  T. Kowalczyk,  C. M. Krauter,  A. Kunitsa,  
 Ka Un Lao,  A. Laurent,  K. V. Lawler,  Joonho Lee,  D. Lefrancois,  
 S. Lehtola,  D. S. Levine,  Yi-Pei Li,  You-Sheng Lin,  Fenglai Liu,  
 E. Livshits,  A. Luenser,  P. Manohar,  E. Mansoor,  S. F. Manzer,  
 Shan-Ping Mao,  Yuezhi Mao,  N. Mardirossian,  A. V. Marenich,  
 T. Markovich,  L. A. Martinez-Martinez,  S. A. Maurer,  N. J. Mayhall,  
 S. C. McKenzie,  J.-M. Mewes,  P. Morgante,  A. F. Morrison,  
 J. W. Mullinax,  K. Nanda,  T. S. Nguyen-Beck,  R. Olivares-Amaya,  
 J. A. Parkhill,  Zheng Pei,  T. M. Perrine,  F. Plasser,  P. Pokhilko,  
 S. Prager,  A. Prociuk,  E. Ramos,  D. R. Rehn,  F. Rob,  M. Scheurer,  
 M. Schneider,  N. Sergueev,  S. M. Sharada,  S. Sharma,  D. W. Small,  
 T. Stauch,  T. Stein,  Yu-Chuan Su,  A. J. W. Thom,  A. Tkatchenko,  
 T. Tsuchimochi,  N. M. Tubman,  L. Vogt,  M. L. Vidal,  O. Vydrov,  
 M. A. Watson,  J. Wenzel,  M. de Wergifosse,  T. A. Wesolowski,  A. White,  
 J. Witte,  A. Yamada,  Jun Yang,  K. Yao,  S. Yeganeh,  S. R. Yost,  
 Zhi-Qiang You,  A. Zech,  Igor Ying Zhang,  Xing Zhang,  Yan Zhao,  
 Ying Zhu,  B. R. Brooks,  G. K. L. Chan,  C. J. Cramer,  M. S. Gordon,  
 W. J. Hehre,  A. Klamt,  M. W. Schmidt,  C. D. Sherrill,  D. G. Truhlar,  
 A. Aspuru-Guzik,  R. Baer,  A. T. Bell,  N. A. Besley,  Jeng-Da Chai,  
 A. E. DePrince, III,  R. A. DiStasio Jr.,  A. Dreuw,  B. D. Dunietz,  
 T. R. Furlani,  Chao-Ping Hsu,  Yousung Jung,  Jing Kong,  D. S. Lambrecht,  
 WanZhen Liang,  C. Ochsenfeld,  V. A. Rassolov,  L. V. Slipchenko,  
 J. E. Subotnik,  T. Van Voorhis,  J. M. Herbert,  A. I. Krylov,  
 P. M. W. Gill,  M. Head-Gordon

 Contributors to earlier versions of Q-Chem not listed above: 
 R. D. Adamson,  B. Austin,  J. Baker,  G. J. O. Beran,  K. Brandhorst,  
 S. T. Brown,  E. F. C. Byrd,  A. K. Chakraborty,  C.-L. Cheng,  
 Siu Hung Chien,  D. M. Chipman,  D. L. Crittenden,  H. Dachsel,  
 R. J. Doerksen,  A. D. Dutoi,  L. Fusti-Molnar,  W. A. Goddard III,  
 A. Golubeva-Zadorozhnaya,  S. R. Gwaltney,  G. Hawkins,  A. Heyden,  
 S. Hirata,  G. Kedziora,  F. J. Keil,  C. Kelley,  Jihan Kim,  R. A. King,  
 R. Z. Khaliullin,  P. P. Korambath,  W. Kurlancheek,  A. M. Lee,  M. S. Lee,  
 S. V. Levchenko,  Ching Yeh Lin,  D. Liotard,  R. C. Lochan,  I. Lotan,  
 P. E. Maslen,  N. Nair,  D. P. O'Neill,  D. Neuhauser,  E. Neuscamman,  
 C. M. Oana,  R. Olson,  B. Peters,  R. Peverati,  P. A. Pieniazek,  
 Y. M. Rhee,  J. Ritchie,  M. A. Rohrdanz,  E. Rosta,  N. J. Russ,  
 H. F. Schaefer III,  N. E. Schultz,  N. Shenvi,  A. C. Simmonett,  A. Sodt,  
 D. Stuck,  K. S. Thanthiriwatte,  V. Vanovschi,  Tao Wang,  A. Warshel,  
 C. F. Williams,  Q. Wu,  X. Xu,  W. Zhang

 Please cite Q-Chem as follows:
 Y. Shao et al., Mol. Phys. 113, 184-215 (2015)
 DOI: 10.1080/00268976.2014.952696

 Q-Chem 5.2.1 for Intel X86 EM64T Linux

 Parts of Q-Chem use Armadillo 8.300.2 (Tropical Shenanigans).
 http://arma.sourceforge.net/

 Q-Chem begins on Tue Sep 28 21:42:15 2021  

compute-0-14.local
Host: 0

     Scratch files written to /home/meili/scratch/qchem40298//
NAlpha2: 90
NElect   90
Mult     1
Symmetry turned off for PCM/SM12/SMD calculation

 Q-Chem warning in module libgen/rem_setup.C, line 2813:

 Neither GIA nor STOLL is specified by user. Use STOLL as the default


Checking the input file for inconsistencies... 	...done.

--------------------------------------------------------------
User input:
--------------------------------------------------------------
$comment
SSI-032PHE-058ASP-1.pdb
$end

$molecule
-1 1
--
0 1
C   -0.422922695881   -2.705141631150    2.722626576774
C   -1.746922695881    0.003858368850    0.355626576774
C   -2.453922695881    0.809858368850    1.261626576774
C   -1.059922695881   -1.132141631150    0.852626576774
C   -1.107922695881   -1.462141631150    2.211626576774
C   -2.494922695881    0.467858368850    2.608626576774
C   -1.834922695881   -0.648141631150    3.090626576774
H   -1.713922695881    0.254858368850   -0.696373423226
H   -2.974922695881    1.689858368850    0.909626576774
H   -0.505922695881   -1.758141631150    0.165626576774
H   -3.054922695881    1.090858368850    3.293626576774
H   -0.062922695881   -2.519141631150    3.734626576774
H    0.441077304119   -2.903141631150    2.094626576774
H   -1.894922695881   -0.897141631150    4.142626576774
H   -1.087561695881   -3.581481631150    2.739186576774
--
-1 1
C    1.318077304119    0.864858368850   -1.542373423226
C    2.380077304119    1.273858368850   -0.485373423226
C    1.904077304119    0.779858368850   -2.926373423226
O    2.668077304119    1.709858368850   -3.294373423226
O    1.571077304119   -0.217141631150   -3.629373423226
H    0.888077304119   -0.097141631150   -1.253373423226
H    0.514077304119    1.600858368850   -1.572373423226
H    2.814077304119    2.216858368850   -0.819373423226
H    3.174343304119    0.522388368850   -0.365253423226
H    1.901475304119    1.496198368850    0.479776576774
$end

$rem
JOBTYPE			EDA
EDA2			1
method			wB97X-V
BASIS			def2-TZVPD
XC_GRID			000099000590
NL_GRID			1
UNRESTRICTED		FALSE
MAX_SCF_CYCLES		200
SYMMETRY		FALSE
SYM_IGNORE		TRUE
MEM_STATIC		2000
BASIS_LIN_DEP_THRESH 	6
THRESH 			14
SCF_CONVERGENCE 	8
SCF_PRINT_FRGM 		TRUE
SOLVENT_METHOD          PCM
$end

$PCM
THEORY                  CPCM
METHOD                  SWIG
SOLVER                  INVERSION
RADII                   UFF
HPOINTS                 302
HEAVYPOINTS             302
PRINTLEVEL              0
$END

$SOLVENT
DIELECTRIC              78.390000 ! water
$END
--------------------------------------------------------------
 ----------------------------------------------------------------
             Standard Nuclear Orientation (Angstroms)
    I     Atom           X                Y                Z
 ----------------------------------------------------------------
    1      C      -0.4229226959    -2.7051416312     2.7226265768
    2      C      -1.7469226959     0.0038583689     0.3556265768
    3      C      -2.4539226959     0.8098583688     1.2616265768
    4      C      -1.0599226959    -1.1321416312     0.8526265768
    5      C      -1.1079226959    -1.4621416311     2.2116265768
    6      C      -2.4949226959     0.4678583688     2.6086265768
    7      C      -1.8349226959    -0.6481416312     3.0906265768
    8      H      -1.7139226959     0.2548583689    -0.6963734232
    9      H      -2.9749226959     1.6898583688     0.9096265768
   10      H      -0.5059226959    -1.7581416311     0.1656265768
   11      H      -3.0549226959     1.0908583688     3.2936265768
   12      H      -0.0629226959    -2.5191416312     3.7346265768
   13      H       0.4410773041    -2.9031416312     2.0946265768
   14      H      -1.8949226959    -0.8971416312     4.1426265768
   15      H      -1.0875616959    -3.5814816311     2.7391865768
   16      C       1.3180773041     0.8648583689    -1.5423734232
   17      C       2.3800773041     1.2738583689    -0.4853734232
   18      C       1.9040773041     0.7798583689    -2.9263734232
   19      O       2.6680773041     1.7098583688    -3.2943734232
   20      O       1.5710773041    -0.2171416311    -3.6293734232
   21      H       0.8880773041    -0.0971416312    -1.2533734232
   22      H       0.5140773041     1.6008583688    -1.5723734232
   23      H       2.8140773041     2.2168583689    -0.8193734232
   24      H       3.1743433041     0.5223883688    -0.3652534232
   25      H       1.9014753041     1.4961983689     0.4797765768
 ----------------------------------------------------------------
 Nuclear Repulsion Energy =         616.18740166 hartrees
 There are       45 alpha and       45 beta electrons
 Requested basis set is def2-TZVPD
 There are 223 shells and 567 basis functions

 Total QAlloc Memory Limit   2000 MB
 Mega-Array Size      1956 MB
 MEM_STATIC part      2000 MB
 Discretize the solute cavity surface with Lebedev spheres
	Using 302 Lebedev grid points for each H atom
	Using 302 Lebedev grid points for other atoms
	Atomic van der Waals radii will be scaled by 1.20
 Remove points where switching function is < 1.0e-08
 Keep 2912 surface tesserae and discard 4638 interior tesserae
 Molecular Surface Area = 298.372 Angst**2
 A cutoff of  1.0D-14 yielded  21247 shell pairs
 There are    136783 function pairs (    172092 Cartesian)
 Smallest overlap matrix eigenvalue = 5.51E-07
 Linear dependence detected in AO basis
 Tighter screening thresholds may be required for diffuse basis sets
 Use S2THRESH > 14 and THRESH = 14 in case of SCF convergence issues
 Number of orthogonalized atomic orbitals = 566
 Maximum deviation from orthogonality = 1.425E-10

 Scale SEOQF with 1.000000e-01/1.000000e-01/1.000000e-01

 Standard Electronic Orientation quadrupole field applied
 Nucleus-field energy     =    -0.0000000314 hartrees

 -----------------------------------------------------------------------
  General SCF calculation program by
  Eric Jon Sundstrom, Paul Horn, Yuezhi Mao, Dmitri Zuev, Alec White,
  David Stuck, Shaama M.S., Shane Yost, Joonho Lee, David Small,
  Daniel Levine, Susi Lehtola, Hugh Burton, Evgeny Epifanovsky,
  Bang C. Huynh
 -----------------------------------------------------------------------
================================================================
                 ALMO-EDA with the EDA2 driver                  
================================================================
 The second-generation ALMO-EDA (for DFT):                      
 P. R. Horn, Y. Mao and M. Head-Gordon, PCCP, 18, 23067 (2016)  
 Decomposition of the frozen energy:                            
 P. R. Horn, Y. Mao and M. Head-Gordon, JCP, 144, 114107 (2016) 
 FERF model for polarization:                                   
 P. R. Horn and M. Head-Gordon, JCP, 143, 114111 (2015)         
Using eda2 option set 1
Option set summary: Frozen orbital wavefunction, initial wavefunction decomposition, and nDQ polarization.
--------------------------------
Printing EDA Options
--------------------------------
eda_child_super_basis      0
fragmo_guess_mode          0
child_mp                   1
child_mp_orders            232
cls_elec                   1
cls_disp                   0
scfmi_mode                 1
scfmi_occs                 0
scfmi_virts                0
frz_relax                  0
frz_relax_method           0
dc_pen_start               0
dc_pen_conv                0
dc_pen_increment           0
dc_pen_steps               0
dc_pen_thresh_factor       0
dc_pen_pre_newton_thresh   0
frz_ortho_decomp           1
frz_ortho_decomp_conv      6
frgm_method                2
scfmi_freeze_ss            0
separate_rehyb             0
plot_diff_den              0
eda_nocv                   0
eda_vct_relax              1
disp_free_x                0
disp_free_c                0
eda_bsse                   0
eda_pct_a                  0
eda_covp                   0
--------------------------------
Attempting to make child job directory: /home/meili/scratch/qchem40298//Frg1/
Attempting to make child job directory: /home/meili/scratch/qchem40298//Frg2/
Creating input file /home/meili/scratch/qchem40298/Frg1.input
using default PutDataFrgm: nothing
calling putenv with: QCSCRATCH=/home/meili/scratch/qchem40298/ 
Spawning Job For Fragment 0
                  Welcome to Q-Chem
     A Quantum Leap Into The Future Of Chemistry


 Q-Chem 5.2 (devel), Q-Chem, Inc., Pleasanton, CA (2019)

 Yihan Shao,  Zhengting Gan,  E. Epifanovsky,  A. T. B. Gilbert,  M. Wormit,  
 J. Kussmann,  A. W. Lange,  A. Behn,  Jia Deng,  Xintian Feng,  D. Ghosh,  
 M. Goldey,  P. R. Horn,  L. D. Jacobson,  I. Kaliman,  T. Kus,  A. Landau,  
 Jie Liu,  E. I. Proynov,  R. M. Richard,  R. P. Steele,  E. J. Sundstrom,  
 H. L. Woodcock III,  P. M. Zimmerman,  D. Zuev,  B. Albrecht,  E. Alguire,  
 S. A. Baeppler,  D. Barton,  Z. Benda,  Y. A. Bernard,  E. J. Berquist,  
 K. B. Bravaya,  H. Burton,  D. Casanova,  Chun-Min Chang,  Yunqing Chen,  
 A. Chien,  K. D. Closser,  M. P. Coons,  S. Coriani,  S. Dasgupta,  
 A. L. Dempwolff,  M. Diedenhofen,  Hainam Do,  R. G. Edgar,  Po-Tung Fang,  
 S. Faraji,  S. Fatehi,  Qingguo Feng,  K. D. Fenk,  J. Fosso-Tande,  
 J. Gayvert,  Qinghui Ge,  A. Ghysels,  G. Gidofalvi,  J. Gomes,  
 J. Gonthier,  A. Gunina,  D. Hait,  M. W. D. Hanson-Heine,  
 P. H. P. Harbach,  A. W. Hauser,  M. F. Herbst,  J. E. Herr,  
 E. G. Hohenstein,  Z. C. Holden,  Kerwin Hui,  B. C. Huynh,  T.-C. Jagau,  
 Hyunjun Ji,  B. Kaduk,  K. Khistyaev,  Jaehoon Kim,  P. Klunzinger,  K. Koh,  
 D. Kosenkov,  L. Koulias,  T. Kowalczyk,  C. M. Krauter,  A. Kunitsa,  
 Ka Un Lao,  A. Laurent,  K. V. Lawler,  Joonho Lee,  D. Lefrancois,  
 S. Lehtola,  D. S. Levine,  Yi-Pei Li,  You-Sheng Lin,  Fenglai Liu,  
 E. Livshits,  A. Luenser,  P. Manohar,  E. Mansoor,  S. F. Manzer,  
 Shan-Ping Mao,  Yuezhi Mao,  N. Mardirossian,  A. V. Marenich,  
 T. Markovich,  L. A. Martinez-Martinez,  S. A. Maurer,  N. J. Mayhall,  
 S. C. McKenzie,  J.-M. Mewes,  P. Morgante,  A. F. Morrison,  
 J. W. Mullinax,  K. Nanda,  T. S. Nguyen-Beck,  R. Olivares-Amaya,  
 J. A. Parkhill,  Zheng Pei,  T. M. Perrine,  F. Plasser,  P. Pokhilko,  
 S. Prager,  A. Prociuk,  E. Ramos,  D. R. Rehn,  F. Rob,  M. Scheurer,  
 M. Schneider,  N. Sergueev,  S. M. Sharada,  S. Sharma,  D. W. Small,  
 T. Stauch,  T. Stein,  Yu-Chuan Su,  A. J. W. Thom,  A. Tkatchenko,  
 T. Tsuchimochi,  N. M. Tubman,  L. Vogt,  M. L. Vidal,  O. Vydrov,  
 M. A. Watson,  J. Wenzel,  M. de Wergifosse,  T. A. Wesolowski,  A. White,  
 J. Witte,  A. Yamada,  Jun Yang,  K. Yao,  S. Yeganeh,  S. R. Yost,  
 Zhi-Qiang You,  A. Zech,  Igor Ying Zhang,  Xing Zhang,  Yan Zhao,  
 Ying Zhu,  B. R. Brooks,  G. K. L. Chan,  C. J. Cramer,  M. S. Gordon,  
 W. J. Hehre,  A. Klamt,  M. W. Schmidt,  C. D. Sherrill,  D. G. Truhlar,  
 A. Aspuru-Guzik,  R. Baer,  A. T. Bell,  N. A. Besley,  Jeng-Da Chai,  
 A. E. DePrince, III,  R. A. DiStasio Jr.,  A. Dreuw,  B. D. Dunietz,  
 T. R. Furlani,  Chao-Ping Hsu,  Yousung Jung,  Jing Kong,  D. S. Lambrecht,  
 WanZhen Liang,  C. Ochsenfeld,  V. A. Rassolov,  L. V. Slipchenko,  
 J. E. Subotnik,  T. Van Voorhis,  J. M. Herbert,  A. I. Krylov,  
 P. M. W. Gill,  M. Head-Gordon

 Contributors to earlier versions of Q-Chem not listed above: 
 R. D. Adamson,  B. Austin,  J. Baker,  G. J. O. Beran,  K. Brandhorst,  
 S. T. Brown,  E. F. C. Byrd,  A. K. Chakraborty,  C.-L. Cheng,  
 Siu Hung Chien,  D. M. Chipman,  D. L. Crittenden,  H. Dachsel,  
 R. J. Doerksen,  A. D. Dutoi,  L. Fusti-Molnar,  W. A. Goddard III,  
 A. Golubeva-Zadorozhnaya,  S. R. Gwaltney,  G. Hawkins,  A. Heyden,  
 S. Hirata,  G. Kedziora,  F. J. Keil,  C. Kelley,  Jihan Kim,  R. A. King,  
 R. Z. Khaliullin,  P. P. Korambath,  W. Kurlancheek,  A. M. Lee,  M. S. Lee,  
 S. V. Levchenko,  Ching Yeh Lin,  D. Liotard,  R. C. Lochan,  I. Lotan,  
 P. E. Maslen,  N. Nair,  D. P. O'Neill,  D. Neuhauser,  E. Neuscamman,  
 C. M. Oana,  R. Olson,  B. Peters,  R. Peverati,  P. A. Pieniazek,  
 Y. M. Rhee,  J. Ritchie,  M. A. Rohrdanz,  E. Rosta,  N. J. Russ,  
 H. F. Schaefer III,  N. E. Schultz,  N. Shenvi,  A. C. Simmonett,  A. Sodt,  
 D. Stuck,  K. S. Thanthiriwatte,  V. Vanovschi,  Tao Wang,  A. Warshel,  
 C. F. Williams,  Q. Wu,  X. Xu,  W. Zhang

 Please cite Q-Chem as follows:
 Y. Shao et al., Mol. Phys. 113, 184-215 (2015)
 DOI: 10.1080/00268976.2014.952696

 Q-Chem 5.2.1 for Intel X86 EM64T Linux

 Parts of Q-Chem use Armadillo 8.300.2 (Tropical Shenanigans).
 http://arma.sourceforge.net/

 Q-Chem begins on Tue Sep 28 21:42:19 2021  

compute-0-14.local
Host: 0

     Scratch files written to /home/meili/scratch/qchem40298//Frg1//
NAlpha2: 50
NElect   50
Mult     1
Symmetry turned off for PCM/SM12/SMD calculation

Checking the input file for inconsistencies... 	...done.

--------------------------------------------------------------
User input:
--------------------------------------------------------------
$molecule
0 1
 6	-0.4229226959	-2.7051416312	2.7226265768
 6	-1.7469226959	0.0038583689	0.3556265768
 6	-2.4539226959	0.8098583688	1.2616265768
 6	-1.0599226959	-1.1321416312	0.8526265768
 6	-1.1079226959	-1.4621416311	2.2116265768
 6	-2.4949226959	0.4678583688	2.6086265768
 6	-1.8349226959	-0.6481416312	3.0906265768
 1	-1.7139226959	0.2548583689	-0.6963734232
 1	-2.9749226959	1.6898583688	0.9096265768
 1	-0.5059226959	-1.7581416311	0.1656265768
 1	-3.0549226959	1.0908583688	3.2936265768
 1	-0.0629226959	-2.5191416312	3.7346265768
 1	0.4410773041	-2.9031416312	2.0946265768
 1	-1.8949226959	-0.8971416312	4.1426265768
 1	-1.0875616959	-3.5814816311	2.7391865768
$end
$rem
EDA2		1
METHOD		WB97X-V
BASIS		DEF2-TZVPD
XC_GRID		000099000590
NL_GRID		1
UNRESTRICTED		FALSE
MAX_SCF_CYCLES		200
SYMMETRY		FALSE
SYM_IGNORE		TRUE
BASIS_LIN_DEP_THRESH		6
THRESH		14
SCF_CONVERGENCE		8
SCF_PRINT_FRGM		TRUE
SOLVENT_METHOD		PCM
!required keywords
JOBTYPE		SP
SYM_IGNORE		TRUE
SUBSYSTEM		TRUE
GEN_SCFMAN		TRUE
CHILD_INSTRUCTION		2
SYM_IGNORE		TRUE
SCFMI		0
RI_K 0		
PARI_K 0		
MIN_PARI_K 0		
IARI_K 0		
OCC_RI_K 0		
PURECART		1111
MEM_STATIC		2000
MEM_TOTAL		2000
GUI		0
CHILD_MP		1
CHILD_MP_ORDERS		232
FRZ_RELAX		0
FRZ_RELAX_METHOD		0
EDA_CLS_ELEC		1
EDA_CLS_DISP		0
FRZ_ORTHO_DECOMP		1
EDA2		FALSE
FRGM_METHOD		FALSE
CIS_N_ROOTS  0
LOCAL_CIS    0
CIS_RLX_DNS  1
$end
$pcm
THEORY                  CPCM
METHOD                  SWIG
SOLVER                  INVERSION
RADII                   UFF
HPOINTS                 302
HEAVYPOINTS             302
PRINTLEVEL              0
$end
$solvent
DIELECTRIC              78.390000 ! water
$end
--------------------------------------------------------------
 ----------------------------------------------------------------
             Standard Nuclear Orientation (Angstroms)
    I     Atom           X                Y                Z
 ----------------------------------------------------------------
    1      C      -0.4229226959    -2.7051416312     2.7226265768
    2      C      -1.7469226959     0.0038583689     0.3556265768
    3      C      -2.4539226959     0.8098583688     1.2616265768
    4      C      -1.0599226959    -1.1321416312     0.8526265768
    5      C      -1.1079226959    -1.4621416311     2.2116265768
    6      C      -2.4949226959     0.4678583688     2.6086265768
    7      C      -1.8349226959    -0.6481416312     3.0906265768
    8      H      -1.7139226959     0.2548583689    -0.6963734232
    9      H      -2.9749226959     1.6898583688     0.9096265768
   10      H      -0.5059226959    -1.7581416311     0.1656265768
   11      H      -3.0549226959     1.0908583688     3.2936265768
   12      H      -0.0629226959    -2.5191416312     3.7346265768
   13      H       0.4410773041    -2.9031416312     2.0946265768
   14      H      -1.8949226959    -0.8971416312     4.1426265768
   15      H      -1.0875616959    -3.5814816311     2.7391865768
 ----------------------------------------------------------------
 Nuclear Repulsion Energy =         268.89990250 hartrees
 There are       25 alpha and       25 beta electrons
 Requested basis set is def2-TZVPD
 There are 131 shells and 331 basis functions

 Total QAlloc Memory Limit   2000 MB
 Mega-Array Size      1956 MB
 MEM_STATIC part      2000 MB
 Discretize the solute cavity surface with Lebedev spheres
	Using 302 Lebedev grid points for each H atom
	Using 302 Lebedev grid points for other atoms
	Atomic van der Waals radii will be scaled by 1.20
 Remove points where switching function is < 1.0e-08
 Keep 1796 surface tesserae and discard 2734 interior tesserae
 Molecular Surface Area = 178.659 Angst**2

                       Distance Matrix (Angstroms)
             C (  1)   C (  2)   C (  3)   C (  4)   C (  5)   C (  6)
   C (  2)  3.833320
   C (  3)  4.314476  1.403681
   C (  4)  2.525272  1.417559  2.425259
   C (  5)  1.508441  2.449941  2.806457  1.399316
   C (  6)  3.791320  2.418845  1.390343  2.775385  2.409622
   C (  7)  2.521987  2.813018  2.419538  2.417338  1.401344  1.383250
   H (  8)  4.702961  1.082032  2.165500  2.179653  3.431004  3.402698
   H (  9)  5.395896  2.158123  1.081548  3.410888  3.887930  2.147157
   H ( 10)  2.727993  2.163521  3.404489  1.082017  2.153169  3.857388
   H ( 11)  4.654362  3.394743  2.137565  3.857491  3.388118  1.082106
   H ( 12)  1.090110  4.540818  4.786946  3.350179  2.128098  4.013062
   H ( 13)  1.086317  4.032631  4.781347  2.632870  2.118861  4.499770
   H ( 14)  2.729844  3.895520  3.395069  3.402433  2.160406  2.139248
   H ( 15)  1.099996  4.355546  4.830527  3.091786  2.184110  4.288924
             C (  7)   H (  8)   H (  9)   H ( 10)   H ( 11)   H ( 12)
   H (  8)  3.895051
   H (  9)  3.394496  2.495713
   H ( 10)  3.399113  2.500895  4.305601
   H ( 11)  2.133947  4.291536  2.459402  4.939492
   H ( 12)  2.656193  5.482211  5.846029  3.676021  4.709421
   H ( 13)  3.355178  4.733568  5.845420  2.434928  5.441659  1.758144
   H ( 14)  1.082730  4.977528  4.279166  4.299671  2.453272  2.480639
   H ( 15)  3.047383  5.187765  5.890369  3.207193  5.099870  1.780267
             H ( 13)   H ( 14)
   H ( 14)  3.698004
   H ( 15)  1.792300  3.134830

 A cutoff of  1.0D-14 yielded   8360 shell pairs
 There are     54504 function pairs (     69458 Cartesian)
 Smallest overlap matrix eigenvalue = 6.03E-07
 Linear dependence detected in AO basis
 Tighter screening thresholds may be required for diffuse basis sets
 Use S2THRESH > 14 and THRESH = 14 in case of SCF convergence issues
 Number of orthogonalized atomic orbitals = 330
 Maximum deviation from orthogonality = 1.808E-10

 Scale SEOQF with 1.000000e-01/1.000000e-01/1.000000e-01

 Standard Electronic Orientation quadrupole field applied
 Nucleus-field energy     =    -0.0000000127 hartrees
 Guess from superposition of atomic densities
 Warning:  Energy on first SCF cycle will be non-variational
 SAD guess density has 50.000000 electrons

 -----------------------------------------------------------------------
  General SCF calculation program by
  Eric Jon Sundstrom, Paul Horn, Yuezhi Mao, Dmitri Zuev, Alec White,
  David Stuck, Shaama M.S., Shane Yost, Joonho Lee, David Small,
  Daniel Levine, Susi Lehtola, Hugh Burton, Evgeny Epifanovsky,
  Bang C. Huynh
 -----------------------------------------------------------------------
 Exchange:     0.1670 Hartree-Fock + 1.0000 wB97X-V + LR-HF
 Correlation:  1.0000 wB97X-V
 Using Euler-Maclaurin-Lebedev (99,590) quadrature formula
 Nonlocal Correlation:  VV10 with C = 0.0100 and b = 6.00 and scale = 1.00000
 Grid used for NLC:  SG-1 standard quadrature
Energy prior to optimization (guess energy) = -271.528045067056
Begin Timing: Total SCF Calculation
begin iterations for algorithm: DIIS         
the SCF tolerance is set to 1.00e-08
    1    -271.5280450671      1.80e-03     00000 
    2    -271.5633187236      1.11e-03     00000 
    3    -271.5804707805      1.42e-04     00000 
    4    -271.5808966964      4.78e-05     00000 
    5    -271.5809300783      1.79e-05     00000 
    6    -271.5809355512      4.54e-06     00000 
    7    -271.5809359562      1.83e-06     00000 
    8    -271.5809360170      3.08e-07     00000 
    9    -271.5809360204      8.63e-08     00000 
   10    -271.5809360208      4.82e-08     00000 
   11    -271.5809360208      1.94e-08     00000 
   12    -271.5809360209      5.56e-09     00000 Convergence criterion met
Timing for Total SCF: 476.00s (wall), 3189.05s (cpu)

************** Final PCM Free Energy Summary **************
 G_electrostatic  =      -0.00256956 hartree =      -1.61242356 kcal/mol
 G_cavitation     =       0.00000000 hartree =       0.00000000 kcal/mol
 G_dispersion     =       0.00000000 hartree =       0.00000000 kcal/mol
 G_repulsion      =       0.00000000 hartree =       0.00000000 kcal/mol
 --------------------------------------------------
 Non-electrostatic Free Energy =       0.00000000 hartree =       0.00000000 kcal/mol
 Total                         =      -0.00256956 hartree =      -1.61242356 kcal/mol
 --------------------------------------------------
 SCF Energy (H0 + V/2)                       =    -271.58093602 
 Solute Internal Energy (H0)                 =    -271.57836646 
 Total Free Energy (H0 + V/2 + non-elec)     =    -271.58093602 hartree
                                             = -170419.60949615 kcal/mol
***********************************************************

E_pcm = -0.0025695605
Multipole orders to be included
        2
        3
computing dipole RHS
computing quadrupole RHS
total number of RHS in solve_reponses: 8
RHS batch sizes
        8
Beginning Block Conjugate Gradient Iterations. Batch Number: 0
computing hessian-vector products by finite difference
              1      5.85e-01     00000 Conjugate Gradient Iteration
computing hessian-vector products by finite difference
              2      1.94e-01     00000 Conjugate Gradient Iteration
computing hessian-vector products by finite difference
              3      4.49e-02     00000 Conjugate Gradient Iteration
computing hessian-vector products by finite difference
              4      9.98e-03     00000 Conjugate Gradient Iteration
computing hessian-vector products by finite difference
              5      1.92e-03     00000 Conjugate Gradient Iteration
computing hessian-vector products by finite difference
              6      6.19e-04     00000 Conjugate Gradient Iteration
computing hessian-vector products by finite difference
              7      1.71e-04     00000 Conjugate Gradient Iteration
computing hessian-vector products by finite difference
              8      2.63e-05     00000 Conjugate Gradient Iteration
computing hessian-vector products by finite difference
              9      3.42e-06     00000 Conjugate Gradient Iteration
computing hessian-vector products by finite difference
             10      4.87e-07     00000 Conjugate Gradient Iteration
computing hessian-vector products by finite difference
             11      7.10e-08     00000 Conjugate Gradient Iteration
computing hessian-vector products by finite difference
             12      1.19e-08     00000 Conjugate Gradient Iteration
computing hessian-vector products by finite difference
             13      3.76e-09     00000 CG Converged
batch 0 complete
Done Calculating Responses
TESTING ORTHOGONALIZATION OF MULTIPOLE BASIS
Multipole virts passed orthogonality test
Virts Per Order
           75
          125

 --------------------------------------------------------------

                    Orbital Energies (a.u.)
 --------------------------------------------------------------

 Alpha MOs
 -- Occupied --
-10.2843 -10.2788 -10.2740 -10.2727 -10.2722 -10.2705 -10.2627  -0.9948
 -0.9064  -0.8778  -0.8132  -0.7305  -0.7051  -0.6290  -0.5730  -0.5687
 -0.5360  -0.5300  -0.5136  -0.4891  -0.4722  -0.4445  -0.4389  -0.3486
 -0.3379
 -- Virtual --
  0.0606   0.0633   0.0669   0.0789   0.0845   0.1043   0.1102   0.1137
  0.1353   0.1532   0.1658   0.1672   0.1861   0.1877   0.1946   0.2011
  0.2222   0.2245   0.2331   0.2373   0.2486   0.2574   0.2593   0.2665
  0.2786   0.2811   0.2844   0.2892   0.2925   0.3005   0.3052   0.3102
  0.3187   0.3244   0.3326   0.3357   0.3490   0.3518   0.3659   0.3697
  0.3767   0.3799   0.3831   0.3870   0.3889   0.4022   0.4040   0.4070
  0.4081   0.4256   0.4278   0.4347   0.4383   0.4471   0.4499   0.4519
  0.4595   0.4674   0.4748   0.4794   0.4906   0.4934   0.5099   0.5133
  0.5168   0.5249   0.5306   0.5363   0.5385   0.5444   0.5491   0.5655
  0.5817   0.5848   0.5960   0.5976   0.6033   0.6171   0.6408   0.6421
  0.6582   0.6710   0.6820   0.6850   0.6870   0.6926   0.7181   0.7200
  0.7280   0.7304   0.7446   0.7561   0.7622   0.7639   0.7793   0.7834
  0.7880   0.7891   0.7945   0.8007   0.8060   0.8210   0.8245   0.8302
  0.8315   0.8347   0.8389   0.8515   0.8548   0.8752   0.8852   0.8949
  0.9063   0.9185   0.9288   0.9458   0.9519   1.0082   1.0176   1.0385
  1.0432   1.0591   1.0709   1.0749   1.0812   1.0867   1.1003   1.1394
  1.1620   1.1797   1.2460   1.2765   1.2916   1.3097   1.3436   1.3458
  1.3762   1.4326   1.4488   1.4550   1.4575   1.4824   1.5174   1.5303
  1.5945   1.5987   1.6148   1.6217   1.6561   1.6737   1.7323   1.7730
  1.7869   1.7966   1.7993   1.8156   1.8270   1.8652   1.8863   1.9074
  1.9162   1.9220   1.9505   1.9572   1.9802   1.9929   2.0141   2.0213
  2.0282   2.0449   2.0666   2.0902   2.1099   2.1180   2.1658   2.1725
  2.1905   2.2354   2.2358   2.2623   2.2872   2.3063   2.3861   2.3938
  2.4002   2.4056   2.4857   2.5032   2.5324   2.5471   2.5598   2.6036
  2.6134   2.6170   2.6658   2.6686   2.6870   2.7085   2.7444   2.7598
  2.7797   2.8062   2.8153   2.8404   2.8582   2.9015   2.9045   2.9082
  2.9339   2.9379   2.9497   2.9690   2.9864   3.0101   3.0204   3.0420
  3.0625   3.0789   3.0933   3.1293   3.1739   3.1920   3.1956   3.2192
  3.2329   3.2383   3.2850   3.3077   3.3213   3.3521   3.3645   3.3709
  3.3944   3.4377   3.4426   3.4488   3.4579   3.4660   3.4834   3.4940
  3.5036   3.5185   3.5348   3.5393   3.5523   3.5630   3.5866   3.6001
  3.6043   3.6303   3.6488   3.6794   3.6975   3.7437   3.7825   3.8010
  3.8273   3.8817   3.9023   3.9426   3.9523   3.9781   4.0225   4.0442
  4.1090   4.1916   4.2527   4.2657   4.2782   4.3011   4.3124   4.3148
  4.3332   4.3569   4.3662   4.3914   4.4168   4.4297   4.4616   4.5198
  4.5921   4.6216   4.7387   4.7571   4.8090   4.8808   4.8989   4.9375
  5.0054   5.0394   5.1512   5.2582   5.3403   5.3593   5.4863   5.5223
  5.6561   5.8368  22.5760  22.6622  22.8605  22.8773  22.9753  23.0586
 23.3815
 --------------------------------------------------------------

          Ground-State Mulliken Net Atomic Charges

     Atom                 Charge (a.u.)
  ----------------------------------------
      1 C                    -1.030847
      2 C                    -0.545817
      3 C                    -0.470453
      4 C                    -0.368210
      5 C                     0.888817
      6 C                    -0.462758
      7 C                    -0.367429
      8 H                     0.314810
      9 H                     0.329279
     10 H                     0.317939
     11 H                     0.311621
     12 H                     0.272203
     13 H                     0.277852
     14 H                     0.320138
     15 H                     0.212855
  ----------------------------------------
  Sum of atomic charges =     0.000000

 -----------------------------------------------------------------
                    Cartesian Multipole Moments
 -----------------------------------------------------------------
    Charge (ESU x 10^10)
                 0.0000
    Dipole Moment (Debye)
         X       0.1686      Y      -0.4190      Z       0.1835
       Tot       0.4875
    Quadrupole Moments (Debye-Ang)
        XX     -44.2896     XY      -3.1304     YY     -39.9876
        XZ      -1.0322     YZ      -1.8440     ZZ     -37.6384
    Octopole Moments (Debye-Ang^2)
       XXX     208.0456    XXY      42.9883    XYY      62.9879
       YYY      87.4107    XXZ     -79.2189    XYZ      -2.7201
       YYZ     -75.1546    XZZ      55.1774    YZZ      24.0427
       ZZZ    -217.4278
    Hexadecapole Moments (Debye-Ang^3)
      XXXX    -873.8069   XXXY     -63.3405   XXYY    -226.0267
      XYYY     -23.3087   YYYY    -566.8690   XXXZ     370.6623
      XXYZ      95.8109   XYYZ     112.8259   YYYZ     219.1234
      XXZZ    -327.6785   XYZZ     -12.9174   YYZZ    -292.4346
      XZZZ     315.6165   YZZZ     204.7555   ZZZZ   -1148.3581
 -----------------------------------------------------------------
Archival summary:
1\1\compute-0-14.local\SP\ProcedureUnspecified\BasisUnspecified\78\meili\WedSep2900:20:582021WedSep2900:20:582021\0\\#,ProcedureUnspecified,BasisUnspecified,\\0,1\C\C,1,1.39932\H,2,1.08202,1,119.852\C,1,1.40134,2,119.34,3,-179.636,0\H,4,1.08273,1,120.306,2,179.075,0\C,4,1.38325,1,119.842,2,0.0142687,0\H,6,1.08211,4,119.396,1,179.943,0\C,6,1.39034,4,121.465,1,-0.153827,0\H,8,1.08155,6,120.083,4,-179.744,0\C,8,1.40368,6,119.929,4,0.924026,0\H,10,1.08203,8,120.643,6,179.514,0\C,1,1.50844,2,120.514,3,-1.61258,0\H,12,1.08632,1,108.393,2,30.281,0\H,12,1.09011,1,108.896,2,147.261,0\H,12,1.1,1,112.78,2,-91.9208,0\\\@

 Total job time:  9518.14s(wall), 64066.43s(cpu) 
 Wed Sep 29 00:20:58 2021

        *************************************************************
        *                                                           *
        *  Thank you very much for using Q-Chem.  Have a nice day.  *
        *                                                           *
        *************************************************************


Done Job For Fragment 0
calling putenv with: QCSCRATCH=/home/meili/scratch 
calling putenv with: QCTHREADS=8 
Creating input file /home/meili/scratch/qchem40298/Frg2.input
using default PutDataFrgm: nothing
calling putenv with: QCSCRATCH=/home/meili/scratch/qchem40298/ 
Spawning Job For Fragment 1
                  Welcome to Q-Chem
     A Quantum Leap Into The Future Of Chemistry


 Q-Chem 5.2 (devel), Q-Chem, Inc., Pleasanton, CA (2019)

 Yihan Shao,  Zhengting Gan,  E. Epifanovsky,  A. T. B. Gilbert,  M. Wormit,  
 J. Kussmann,  A. W. Lange,  A. Behn,  Jia Deng,  Xintian Feng,  D. Ghosh,  
 M. Goldey,  P. R. Horn,  L. D. Jacobson,  I. Kaliman,  T. Kus,  A. Landau,  
 Jie Liu,  E. I. Proynov,  R. M. Richard,  R. P. Steele,  E. J. Sundstrom,  
 H. L. Woodcock III,  P. M. Zimmerman,  D. Zuev,  B. Albrecht,  E. Alguire,  
 S. A. Baeppler,  D. Barton,  Z. Benda,  Y. A. Bernard,  E. J. Berquist,  
 K. B. Bravaya,  H. Burton,  D. Casanova,  Chun-Min Chang,  Yunqing Chen,  
 A. Chien,  K. D. Closser,  M. P. Coons,  S. Coriani,  S. Dasgupta,  
 A. L. Dempwolff,  M. Diedenhofen,  Hainam Do,  R. G. Edgar,  Po-Tung Fang,  
 S. Faraji,  S. Fatehi,  Qingguo Feng,  K. D. Fenk,  J. Fosso-Tande,  
 J. Gayvert,  Qinghui Ge,  A. Ghysels,  G. Gidofalvi,  J. Gomes,  
 J. Gonthier,  A. Gunina,  D. Hait,  M. W. D. Hanson-Heine,  
 P. H. P. Harbach,  A. W. Hauser,  M. F. Herbst,  J. E. Herr,  
 E. G. Hohenstein,  Z. C. Holden,  Kerwin Hui,  B. C. Huynh,  T.-C. Jagau,  
 Hyunjun Ji,  B. Kaduk,  K. Khistyaev,  Jaehoon Kim,  P. Klunzinger,  K. Koh,  
 D. Kosenkov,  L. Koulias,  T. Kowalczyk,  C. M. Krauter,  A. Kunitsa,  
 Ka Un Lao,  A. Laurent,  K. V. Lawler,  Joonho Lee,  D. Lefrancois,  
 S. Lehtola,  D. S. Levine,  Yi-Pei Li,  You-Sheng Lin,  Fenglai Liu,  
 E. Livshits,  A. Luenser,  P. Manohar,  E. Mansoor,  S. F. Manzer,  
 Shan-Ping Mao,  Yuezhi Mao,  N. Mardirossian,  A. V. Marenich,  
 T. Markovich,  L. A. Martinez-Martinez,  S. A. Maurer,  N. J. Mayhall,  
 S. C. McKenzie,  J.-M. Mewes,  P. Morgante,  A. F. Morrison,  
 J. W. Mullinax,  K. Nanda,  T. S. Nguyen-Beck,  R. Olivares-Amaya,  
 J. A. Parkhill,  Zheng Pei,  T. M. Perrine,  F. Plasser,  P. Pokhilko,  
 S. Prager,  A. Prociuk,  E. Ramos,  D. R. Rehn,  F. Rob,  M. Scheurer,  
 M. Schneider,  N. Sergueev,  S. M. Sharada,  S. Sharma,  D. W. Small,  
 T. Stauch,  T. Stein,  Yu-Chuan Su,  A. J. W. Thom,  A. Tkatchenko,  
 T. Tsuchimochi,  N. M. Tubman,  L. Vogt,  M. L. Vidal,  O. Vydrov,  
 M. A. Watson,  J. Wenzel,  M. de Wergifosse,  T. A. Wesolowski,  A. White,  
 J. Witte,  A. Yamada,  Jun Yang,  K. Yao,  S. Yeganeh,  S. R. Yost,  
 Zhi-Qiang You,  A. Zech,  Igor Ying Zhang,  Xing Zhang,  Yan Zhao,  
 Ying Zhu,  B. R. Brooks,  G. K. L. Chan,  C. J. Cramer,  M. S. Gordon,  
 W. J. Hehre,  A. Klamt,  M. W. Schmidt,  C. D. Sherrill,  D. G. Truhlar,  
 A. Aspuru-Guzik,  R. Baer,  A. T. Bell,  N. A. Besley,  Jeng-Da Chai,  
 A. E. DePrince, III,  R. A. DiStasio Jr.,  A. Dreuw,  B. D. Dunietz,  
 T. R. Furlani,  Chao-Ping Hsu,  Yousung Jung,  Jing Kong,  D. S. Lambrecht,  
 WanZhen Liang,  C. Ochsenfeld,  V. A. Rassolov,  L. V. Slipchenko,  
 J. E. Subotnik,  T. Van Voorhis,  J. M. Herbert,  A. I. Krylov,  
 P. M. W. Gill,  M. Head-Gordon

 Contributors to earlier versions of Q-Chem not listed above: 
 R. D. Adamson,  B. Austin,  J. Baker,  G. J. O. Beran,  K. Brandhorst,  
 S. T. Brown,  E. F. C. Byrd,  A. K. Chakraborty,  C.-L. Cheng,  
 Siu Hung Chien,  D. M. Chipman,  D. L. Crittenden,  H. Dachsel,  
 R. J. Doerksen,  A. D. Dutoi,  L. Fusti-Molnar,  W. A. Goddard III,  
 A. Golubeva-Zadorozhnaya,  S. R. Gwaltney,  G. Hawkins,  A. Heyden,  
 S. Hirata,  G. Kedziora,  F. J. Keil,  C. Kelley,  Jihan Kim,  R. A. King,  
 R. Z. Khaliullin,  P. P. Korambath,  W. Kurlancheek,  A. M. Lee,  M. S. Lee,  
 S. V. Levchenko,  Ching Yeh Lin,  D. Liotard,  R. C. Lochan,  I. Lotan,  
 P. E. Maslen,  N. Nair,  D. P. O'Neill,  D. Neuhauser,  E. Neuscamman,  
 C. M. Oana,  R. Olson,  B. Peters,  R. Peverati,  P. A. Pieniazek,  
 Y. M. Rhee,  J. Ritchie,  M. A. Rohrdanz,  E. Rosta,  N. J. Russ,  
 H. F. Schaefer III,  N. E. Schultz,  N. Shenvi,  A. C. Simmonett,  A. Sodt,  
 D. Stuck,  K. S. Thanthiriwatte,  V. Vanovschi,  Tao Wang,  A. Warshel,  
 C. F. Williams,  Q. Wu,  X. Xu,  W. Zhang

 Please cite Q-Chem as follows:
 Y. Shao et al., Mol. Phys. 113, 184-215 (2015)
 DOI: 10.1080/00268976.2014.952696

 Q-Chem 5.2.1 for Intel X86 EM64T Linux

 Parts of Q-Chem use Armadillo 8.300.2 (Tropical Shenanigans).
 http://arma.sourceforge.net/

 Q-Chem begins on Wed Sep 29 00:20:58 2021  

compute-0-14.local
Host: 0

     Scratch files written to /home/meili/scratch/qchem40298//Frg2//
NAlpha2: 40
NElect   40
Mult     1
Symmetry turned off for PCM/SM12/SMD calculation

Checking the input file for inconsistencies... 	...done.

--------------------------------------------------------------
User input:
--------------------------------------------------------------
$molecule
-1 1
 6	1.3180773041	0.8648583689	-1.5423734232
 6	2.3800773041	1.2738583689	-0.4853734232
 6	1.9040773041	0.7798583689	-2.9263734232
 8	2.6680773041	1.7098583688	-3.2943734232
 8	1.5710773041	-0.2171416311	-3.6293734232
 1	0.8880773041	-0.0971416312	-1.2533734232
 1	0.5140773041	1.6008583688	-1.5723734232
 1	2.8140773041	2.2168583689	-0.8193734232
 1	3.1743433041	0.5223883688	-0.3652534232
 1	1.9014753041	1.4961983689	0.4797765768
$end
$rem
EDA2		1
METHOD		WB97X-V
BASIS		DEF2-TZVPD
XC_GRID		000099000590
NL_GRID		1
UNRESTRICTED		FALSE
MAX_SCF_CYCLES		200
SYMMETRY		FALSE
SYM_IGNORE		TRUE
BASIS_LIN_DEP_THRESH		6
THRESH		14
SCF_CONVERGENCE		8
SCF_PRINT_FRGM		TRUE
SOLVENT_METHOD		PCM
!required keywords
JOBTYPE		SP
SYM_IGNORE		TRUE
SUBSYSTEM		TRUE
GEN_SCFMAN		TRUE
CHILD_INSTRUCTION		2
SYM_IGNORE		TRUE
SCFMI		0
RI_K 0		
PARI_K 0		
MIN_PARI_K 0		
IARI_K 0		
OCC_RI_K 0		
PURECART		1111
MEM_STATIC		2000
MEM_TOTAL		2000
GUI		0
CHILD_MP		1
CHILD_MP_ORDERS		232
FRZ_RELAX		0
FRZ_RELAX_METHOD		0
EDA_CLS_ELEC		1
EDA_CLS_DISP		0
FRZ_ORTHO_DECOMP		1
EDA2		FALSE
FRGM_METHOD		FALSE
CIS_N_ROOTS  0
LOCAL_CIS    0
CIS_RLX_DNS  1
$end
$pcm
THEORY                  CPCM
METHOD                  SWIG
SOLVER                  INVERSION
RADII                   UFF
HPOINTS                 302
HEAVYPOINTS             302
PRINTLEVEL              0
$end
$solvent
DIELECTRIC              78.390000 ! water
$end
--------------------------------------------------------------
 ----------------------------------------------------------------
             Standard Nuclear Orientation (Angstroms)
    I     Atom           X                Y                Z
 ----------------------------------------------------------------
    1      C       1.3180773041     0.8648583689    -1.5423734232
    2      C       2.3800773041     1.2738583689    -0.4853734232
    3      C       1.9040773041     0.7798583689    -2.9263734232
    4      O       2.6680773041     1.7098583688    -3.2943734232
    5      O       1.5710773041    -0.2171416311    -3.6293734232
    6      H       0.8880773041    -0.0971416312    -1.2533734232
    7      H       0.5140773041     1.6008583688    -1.5723734232
    8      H       2.8140773041     2.2168583689    -0.8193734232
    9      H       3.1743433041     0.5223883688    -0.3652534232
   10      H       1.9014753041     1.4961983689     0.4797765768
 ----------------------------------------------------------------
 Nuclear Repulsion Energy =         168.85013315 hartrees
 There are       20 alpha and       20 beta electrons
 Requested basis set is def2-TZVPD
 There are 92 shells and 236 basis functions

 Total QAlloc Memory Limit   2000 MB
 Mega-Array Size      1956 MB
 MEM_STATIC part      2000 MB
 Discretize the solute cavity surface with Lebedev spheres
	Using 302 Lebedev grid points for each H atom
	Using 302 Lebedev grid points for other atoms
	Atomic van der Waals radii will be scaled by 1.20
 Remove points where switching function is < 1.0e-08
 Keep 1302 surface tesserae and discard 1718 interior tesserae
 Molecular Surface Area = 143.633 Angst**2

                       Distance Matrix (Angstroms)
             C (  1)   C (  2)   C (  3)   O (  4)   O (  5)   H (  6)
   C (  2)  1.553182
   C (  3)  1.505349  2.535566
   O (  4)  2.367705  2.857188  1.258579
   O (  5)  2.364382  3.572436  1.264558  2.242535
   H (  6)  1.092641  2.166917  2.144834  3.255661  2.475129
   H (  7)  1.090418  2.184137  2.107002  2.759870  2.941704  1.767722
   H (  8)  2.142113  1.090487  2.707862  2.530611  3.919886  3.041780
   H (  9)  2.224550  1.099997  2.870401  3.200958  3.711044  2.529740
   H ( 10)  2.197279  1.100004  3.480662  3.857141  4.464282  2.563107
             H (  7)   H (  8)   H (  9)
   H (  8)  2.497292
   H (  9)  3.114041  1.790878
   H ( 10)  2.479344  1.743555  1.811788

 A cutoff of  1.0D-14 yielded   4191 shell pairs
 There are     28041 function pairs (     35734 Cartesian)
 Smallest overlap matrix eigenvalue = 1.01E-05

 Scale SEOQF with 1.000000e-01/1.000000e-01/1.000000e-01

 Standard Electronic Orientation quadrupole field applied
 Nucleus-field energy     =    -0.0000000187 hartrees
 Guess from superposition of atomic densities
 Warning:  Energy on first SCF cycle will be non-variational
 SAD guess density has 39.000000 electrons

 -----------------------------------------------------------------------
  General SCF calculation program by
  Eric Jon Sundstrom, Paul Horn, Yuezhi Mao, Dmitri Zuev, Alec White,
  David Stuck, Shaama M.S., Shane Yost, Joonho Lee, David Small,
  Daniel Levine, Susi Lehtola, Hugh Burton, Evgeny Epifanovsky,
  Bang C. Huynh
 -----------------------------------------------------------------------
 Exchange:     0.1670 Hartree-Fock + 1.0000 wB97X-V + LR-HF
 Correlation:  1.0000 wB97X-V
 Using Euler-Maclaurin-Lebedev (99,590) quadrature formula
 Nonlocal Correlation:  VV10 with C = 0.0100 and b = 6.00 and scale = 1.00000
 Grid used for NLC:  SG-1 standard quadrature
Energy prior to optimization (guess energy) = -267.665386243771
Begin Timing: Total SCF Calculation
begin iterations for algorithm: DIIS         
the SCF tolerance is set to 1.00e-08
    1    -267.6653862438      5.80e-03     00000 
    2    -267.7189626506      7.11e-03     00000 
    3    -267.9545855101      4.95e-04     00000 
    4    -267.9569296623      2.14e-04     00000 
    5    -267.9574428118      5.85e-05     00000 
    6    -267.9575040009      2.59e-05     00000 
    7    -267.9575088995      1.75e-05     00000 
    8    -267.9575109472      2.93e-06     00000 
    9    -267.9575111746      8.42e-07     00000 
   10    -267.9575111929      3.37e-07     00000 
   11    -267.9575111953      6.00e-08     00000 
   12    -267.9575111954      1.43e-08     00000 
   13    -267.9575111954      3.74e-09     00000 Convergence criterion met
Timing for Total SCF: 180.00s (wall), 1180.47s (cpu)

************** Final PCM Free Energy Summary **************
 G_electrostatic  =      -0.09994538 hartree =     -62.71667411 kcal/mol
 G_cavitation     =       0.00000000 hartree =       0.00000000 kcal/mol
 G_dispersion     =       0.00000000 hartree =       0.00000000 kcal/mol
 G_repulsion      =       0.00000000 hartree =       0.00000000 kcal/mol
 --------------------------------------------------
 Non-electrostatic Free Energy =       0.00000000 hartree =       0.00000000 kcal/mol
 Total                         =      -0.09994538 hartree =     -62.71667411 kcal/mol
 --------------------------------------------------
 SCF Energy (H0 + V/2)                       =    -267.95751120 
 Solute Internal Energy (H0)                 =    -267.85756581 
 Total Free Energy (H0 + V/2 + non-elec)     =    -267.95751120 hartree
                                             = -168145.87610069 kcal/mol
***********************************************************

E_pcm = -0.0999453825
Multipole orders to be included
        2
        3
computing dipole RHS
computing quadrupole RHS
total number of RHS in solve_reponses: 8
RHS batch sizes
        8
Beginning Block Conjugate Gradient Iterations. Batch Number: 0
computing hessian-vector products by finite difference
              1      6.49e-01     00000 Conjugate Gradient Iteration
computing hessian-vector products by finite difference
              2      2.20e-01     00000 Conjugate Gradient Iteration
computing hessian-vector products by finite difference
              3      5.84e-02     00000 Conjugate Gradient Iteration
computing hessian-vector products by finite difference
              4      1.56e-02     00000 Conjugate Gradient Iteration
computing hessian-vector products by finite difference
              5      2.90e-03     00000 Conjugate Gradient Iteration
computing hessian-vector products by finite difference
              6      6.63e-04     00000 Conjugate Gradient Iteration
computing hessian-vector products by finite difference
              7      1.08e-04     00000 Conjugate Gradient Iteration
computing hessian-vector products by finite difference
              8      3.15e-05     00000 Conjugate Gradient Iteration
computing hessian-vector products by finite difference
              9      4.78e-06     00000 Conjugate Gradient Iteration
computing hessian-vector products by finite difference
             10      9.12e-07     00000 Conjugate Gradient Iteration
computing hessian-vector products by finite difference
             11      1.78e-07     00000 Conjugate Gradient Iteration
computing hessian-vector products by finite difference
             12      2.71e-08     00000 Conjugate Gradient Iteration
computing hessian-vector products by finite difference
             13      4.94e-09     00000 CG Converged
batch 0 complete
Done Calculating Responses
TESTING ORTHOGONALIZATION OF MULTIPOLE BASIS
Multipole virts passed orthogonality test
Virts Per Order
           60
          100

 --------------------------------------------------------------

                    Orbital Energies (a.u.)
 --------------------------------------------------------------

 Alpha MOs
 -- Occupied --
-19.1240 -19.1234 -10.3233 -10.2452 -10.2425  -1.1261  -1.0311  -0.8764
 -0.7449  -0.5945  -0.5509  -0.5321  -0.5017  -0.4832  -0.4630  -0.4325
 -0.4253  -0.3296  -0.3210  -0.3112
 -- Virtual --
  0.0637   0.0853   0.0923   0.0992   0.1206   0.1307   0.1384   0.1445
  0.1473   0.1686   0.1802   0.1978   0.2011   0.2073   0.2281   0.2412
  0.2452   0.2618   0.2638   0.2917   0.2939   0.2991   0.3201   0.3308
  0.3436   0.3538   0.3600   0.3667   0.3752   0.3780   0.3844   0.3947
  0.4012   0.4136   0.4217   0.4266   0.4300   0.4443   0.4601   0.4658
  0.4773   0.4907   0.4994   0.5044   0.5170   0.5230   0.5341   0.5449
  0.5510   0.5625   0.5740   0.5975   0.6050   0.6391   0.6443   0.6554
  0.6615   0.6640   0.6962   0.7044   0.7091   0.7142   0.7428   0.7519
  0.7704   0.7804   0.7904   0.7948   0.7991   0.8102   0.8126   0.8242
  0.8478   0.8552   0.8852   0.8951   0.9054   0.9358   0.9855   0.9910
  1.0339   1.0517   1.0699   1.0892   1.1179   1.1261   1.1763   1.2149
  1.2406   1.2994   1.3040   1.3292   1.3412   1.3667   1.3994   1.4101
  1.4541   1.4872   1.5246   1.6214   1.6567   1.7675   1.8559   1.8797
  1.9018   1.9149   1.9200   1.9500   1.9643   1.9729   1.9835   1.9999
  2.0292   2.0573   2.0643   2.1442   2.1615   2.1887   2.2097   2.2642
  2.2939   2.3263   2.3805   2.4212   2.4709   2.4729   2.4948   2.5099
  2.5574   2.5996   2.6208   2.6369   2.6840   2.7285   2.7467   2.7891
  2.8126   2.8471   2.8884   2.9248   2.9677   2.9699   3.0362   3.0746
  3.1244   3.1678   3.2160   3.2576   3.2864   3.3104   3.3493   3.3667
  3.3718   3.4041   3.4537   3.4687   3.4992   3.5168   3.5378   3.5849
  3.6059   3.6264   3.6455   3.6739   3.6890   3.7109   3.7427   3.7663
  3.8148   3.8254   3.9576   4.0853   4.1080   4.1183   4.2089   4.2455
  4.3104   4.4153   4.5391   4.5876   4.6909   4.7345   4.7912   4.8588
  4.9099   5.0245   5.0863   5.3378   5.3706   5.3761   5.3870   5.5222
  5.7294   5.7309   5.7906   6.0121   6.2610   6.3170   6.3397   6.6282
  6.6461   6.7066   6.7618   6.7774   6.9630   6.9858   7.0619   7.2429
  7.3703   7.4037   7.4198  22.6106  22.7573  23.7219  44.2743  44.4133
 --------------------------------------------------------------

          Ground-State Mulliken Net Atomic Charges

     Atom                 Charge (a.u.)
  ----------------------------------------
      1 C                     0.171303
      2 C                    -0.723058
      3 C                     0.114679
      4 O                    -0.681644
      5 O                    -0.691277
      6 H                     0.120009
      7 H                     0.123935
      8 H                     0.159295
      9 H                     0.210110
     10 H                     0.196647
  ----------------------------------------
  Sum of atomic charges =    -1.000000

 -----------------------------------------------------------------
                    Cartesian Multipole Moments
 -----------------------------------------------------------------
    Charge (ESU x 10^10)
                -4.8032
    Dipole Moment (Debye)
         X     -10.8031      Y      -3.3231      Z      18.0143
       Tot      21.2665
    Quadrupole Moments (Debye-Ang)
        XX     -59.3502     XY     -12.3469     YY     -42.3176
        XZ      39.3260     YZ      11.1539     ZZ    -101.3776
    Octopole Moments (Debye-Ang^2)
       XXX    -263.0436    XXY     -68.1401    XYY     -92.5732
       YYY    -106.1737    XXZ     168.2045    XYZ      39.9518
       YYZ     106.3882    XZZ    -212.2270    YZZ     -68.8735
       ZZZ     481.4412
    Hexadecapole Moments (Debye-Ang^3)
      XXXX   -1060.3392   XXXY    -315.1795   XXYY    -272.5040
      XYYY    -250.2015   YYYY    -330.3955   XXXZ     674.1592
      XXYZ     178.9984   XYYZ     235.8581   YYYZ     227.8095
      XXZZ    -721.0832   XYZZ    -204.7324   YYZZ    -388.2432
      XZZZ     983.3987   YZZZ     307.8503   ZZZZ   -2344.6328
 -----------------------------------------------------------------
Archival summary:
1\1\compute-0-14.local\SP\ProcedureUnspecified\BasisUnspecified\235(1-,1)\meili\WedSep2901:21:012021WedSep2901:21:012021\0\\#,ProcedureUnspecified,BasisUnspecified,\\-1,1\C\O,1,1.25858\O,1,1.26456,2,125.443\C,1,1.50535,2,117.607,3,-179.053,0\H,4,1.09042,1,107.448,2,76.4432,0\H,4,1.09264,1,110.283,2,-165.903,0\C,4,1.55318,1,111.986,2,-44.6918,0\H,7,1.09049,4,106.942,1,55.9403,0\H,7,1.1,4,112.838,1,-64.7477,0\H,7,1.1,4,110.661,1,170.352,0\\\@

 Total job time:  3603.26s(wall), 23743.41s(cpu) 
 Wed Sep 29 01:21:01 2021

        *************************************************************
        *                                                           *
        *  Thank you very much for using Q-Chem.  Have a nice day.  *
        *                                                           *
        *************************************************************


Done Job For Fragment 1
calling putenv with: QCSCRATCH=/home/meili/scratch 
calling putenv with: QCTHREADS=8 
Doing General SCFMI
 Exchange:     0.1670 Hartree-Fock + 1.0000 wB97X-V + LR-HF
 Correlation:  1.0000 wB97X-V
 Using Euler-Maclaurin-Lebedev (99,590) quadrature formula
 Nonlocal Correlation:  VV10 with C = 0.0100 and b = 6.00 and scale = 1.00000
 Grid used for NLC:  SG-1 standard quadrature
performing fock build before subrot guess so that all methods have access
Printing subrot_rss_gen Method Specification:
Occupied Subspace Method is 0
Virtual Subspace Method is 0
Energy of the unrelaxed supersystem initial determinant -539.437786690166
performing fock build before subrot guess so that all methods have access
Printing subrot_rss_gen Method Specification:
Occupied Subspace Method is 0
Virtual Subspace Method is 0
Energy of the unrelaxed supersystem initial determinant w/ solvent -539.539940810005
write pseudocanon occs and virts to disk
write pseudocanon orbital energies to disk
Tolerance of ortho_decomp_scf: 1.00e-06
GDM subspace size: 20
Beginning the Orthogonal Decomposition of the Initial Supersystem Wavefunction
    1    -539.4274481225      1.53e-02     ortho_decomp Preconditoned Steepest Descent
    2    -539.4283528493      3.91e-04     ortho_decomp BFGS Step
    3    -539.4283555607      2.68e-05     ortho_decomp BFGS Step
    4    -539.4283555656      1.20e-06     ortho_decomp BFGS Step
    5    -539.4283555656      4.13e-08     ortho_decomp 00000 Convergence criterion met
 Hartree-Fock
 Hartree-Fock
 Hartree-Fock
Doing General SCFMI
 Exchange:     0.1670 Hartree-Fock + 1.0000 wB97X-V + LR-HF
 Correlation:  1.0000 wB97X-V
 Using Euler-Maclaurin-Lebedev (99,590) quadrature formula
 Nonlocal Correlation:  VV10 with C = 0.0100 and b = 6.00 and scale = 1.00000
 Grid used for NLC:  SG-1 standard quadrature
performing fock build at end of subrot_r(subrot) constructor so that all methods have access
<S^2> of initial wavefunction before polarization iterations 0.0000000000
Beginning iterations for the determination of the polarized wavefunction
Energy prior to optimization (guess energy) = -539.539940810004
Begin Timing: Total SCF Calculation
begin iterations for algorithm: DIIS         
the SCF tolerance is set to 1.00e-08
    1    -539.5399408100      3.11e-05     00000 
    2    -539.5400140815      1.52e-05     00000 
    3    -539.5400242044      7.27e-06     00000 
    4    -539.5400272803      2.42e-06     00000 
    5    -539.5400275738      1.25e-06     00000 
    6    -539.5400276668      5.11e-07     00000 
    7    -539.5400276774      2.72e-07     00000 
    8    -539.5400276802      1.12e-07     00000 
    9    -539.5400276806      5.88e-08     00000 
   10    -539.5400276807      2.01e-08     00000 
   11    -539.5400276807      7.16e-09     00000 Convergence criterion met
write pseudocanon occs and virts to disk
write pseudocanon orbital energies to disk
Timing for Total SCF: 1875.00s (wall), 12264.97s (cpu)
<S^2> of polarized wavefunction after polarization iterations 0.0000000000
relaxing scfmi constraint to allow all rotations in the entire AO span
Doing General SCFMI
 Exchange:     0.1670 Hartree-Fock + 1.0000 wB97X-V + LR-HF
 Correlation:  1.0000 wB97X-V
 Using Euler-Maclaurin-Lebedev (99,590) quadrature formula
 Nonlocal Correlation:  VV10 with C = 0.0100 and b = 6.00 and scale = 1.00000
 Grid used for NLC:  SG-1 standard quadrature
performing fock build at end of subrot_r(subrot) constructor so that all methods have access
<S^2> of polarized wavefunction before ct-allowed iterations 0.0000000000
Beginning iterations for the determination of the CT-Allowed wavefunction
Energy prior to optimization (guess energy) = -539.540027680709
Begin Timing: Total SCF Calculation
begin iterations for algorithm: DIIS         
the SCF tolerance is set to 1.00e-08
    1    -539.5400276807      5.10e-05     00000 
    2    -539.5403753762      4.42e-06     00000 
    3    -539.5403836938      7.17e-07     00000 
    4    -539.5403839474      3.57e-07     00000 
    5    -539.5403839666      1.19e-07     00000 
    6    -539.5403839692      5.34e-08     00000 
    7    -539.5403839696      1.26e-08     00000 
    8    -539.5403839696      7.06e-09     00000 Convergence criterion met
write pseudocanon occs and virts to disk
write pseudocanon orbital energies to disk
Timing for Total SCF: 1344.00s (wall), 8634.63s (cpu)
<S^2> of ct_allowed wavefunction after ct-allowed iterations 0.0000000000

================================
        Results of EDA2         
================================
Basic EDA Quantities
--------------------
Fragment Energies (Ha):
1 -271.5809360209
2 -267.9575111954
--------------------
  E_prp (kJ/mol) = 0.0000
  E_sol (kJ/mol) = 0.9474
  E_frz (kJ/mol) = -4.8688
  E_pol (kJ/mol) = -0.2281
  E_vct (kJ/mol) = -0.9354
  E_int (kJ/mol) = -5.0850
--------------------


Initial Wavefunction Decomposition
--------------------
  --------------------
  Orthogonal Fragment Subspace Decomposition:
  --------------------
     E_elec   (ELEC)   (kJ/mol) = -10.2924
     E_pauli  (PAULI)  (kJ/mol) = 15.2705
     E_disp   (DISP)   (kJ/mol) = -9.8469
     --------------------
     Terms summing to E_pauli:
     --------------------
        E_kep_pauli       (kJ/mol) = 19.8929
        E_disp_free_pauli (kJ/mol) = -4.6224
  --------------------
  Classical Frozen Decomposition:
  --------------------
     E_cls_elec  (CLS ELEC)  (kJ/mol) = -3.3526
     E_cls_pauli (CLS PAULI) (kJ/mol) = -1.5162
    [E_mod_pauli (MOD PAULI) (kJ/mol) = 8.3307 (CLS PAULI - DISP from orthogonal decomposition) ]
  --------------------
--------------------

Simplified EDA Summary (kJ/mol)
--------------------
 PREPARATION     0.0000
 SOLVATION       0.9474
 FROZEN          4.9781      (does not include dispersion)
[PAULI           15.2705]     (if this is negligible, then frozen describes electrostatics)
 DISPERSION      -9.8469
 POLARIZATION    -0.2281
 CHARGE TRANSFER -0.9354
 TOTAL           -5.0850     (PRP + SOL + FRZ + DISP + POL + CT)
--------------------

 --------------------------------------------------------------

                    Orbital Energies (a.u.)
 --------------------------------------------------------------

 Alpha MOs
 -- Occupied --
-19.1238 -19.1234 -10.3230 -10.2831 -10.2772 -10.2726 -10.2715 -10.2709
-10.2693 -10.2618 -10.2451 -10.2420  -1.1259  -1.0310  -0.9935  -0.9052
 -0.8776  -0.8749  -0.8121  -0.7447  -0.7292  -0.7039  -0.6280  -0.5944
 -0.5719  -0.5674  -0.5506  -0.5353  -0.5325  -0.5278  -0.5124  -0.5015
 -0.4880  -0.4831  -0.4710  -0.4627  -0.4435  -0.4378  -0.4317  -0.4248
 -0.3471  -0.3366  -0.3295  -0.3204  -0.3111
 -- Virtual --
  0.0565   0.0613   0.0667   0.0693   0.0766   0.0796   0.0905   0.0963
  0.1054   0.1090   0.1139   0.1185   0.1237   0.1343   0.1399   0.1451
  0.1492   0.1558   0.1613   0.1674   0.1693   0.1731   0.1859   0.1901
  0.1997   0.2032   0.2081   0.2135   0.2161   0.2211   0.2314   0.2336
  0.2338   0.2357   0.2456   0.2524   0.2604   0.2630   0.2693   0.2716
  0.2765   0.2781   0.2802   0.2848   0.2920   0.2943   0.2991   0.3048
  0.3130   0.3188   0.3199   0.3242   0.3252   0.3300   0.3349   0.3389
  0.3426   0.3491   0.3504   0.3559   0.3619   0.3650   0.3672   0.3698
  0.3740   0.3777   0.3805   0.3835   0.3888   0.3915   0.3957   0.3975
  0.4030   0.4043   0.4082   0.4109   0.4215   0.4239   0.4275   0.4291
  0.4344   0.4380   0.4438   0.4470   0.4500   0.4521   0.4556   0.4645
  0.4672   0.4688   0.4703   0.4726   0.4829   0.4880   0.4899   0.4957
  0.4995   0.5062   0.5083   0.5156   0.5182   0.5200   0.5245   0.5276
  0.5301   0.5366   0.5398   0.5442   0.5493   0.5554   0.5593   0.5604
  0.5667   0.5705   0.5783   0.5834   0.5881   0.5918   0.6000   0.6047
  0.6153   0.6173   0.6189   0.6298   0.6329   0.6362   0.6408   0.6447
  0.6511   0.6558   0.6570   0.6724   0.6791   0.6870   0.6897   0.6916
  0.6957   0.7024   0.7054   0.7116   0.7154   0.7185   0.7264   0.7274
  0.7311   0.7370   0.7412   0.7480   0.7583   0.7628   0.7651   0.7689
  0.7739   0.7758   0.7847   0.7888   0.7907   0.7920   0.7975   0.8001
  0.8047   0.8097   0.8157   0.8205   0.8235   0.8258   0.8371   0.8389
  0.8420   0.8442   0.8524   0.8556   0.8575   0.8652   0.8699   0.8748
  0.8780   0.8849   0.8951   0.9015   0.9075   0.9116   0.9170   0.9278
  0.9338   0.9440   0.9465   0.9534   0.9581   0.9658   0.9812   0.9832
  0.9870   1.0022   1.0156   1.0199   1.0329   1.0434   1.0511   1.0605
  1.0667   1.0764   1.0885   1.0970   1.1031   1.1154   1.1181   1.1276
  1.1333   1.1509   1.1569   1.1666   1.1876   1.2038   1.2244   1.2318
  1.2400   1.2507   1.2738   1.2801   1.3049   1.3198   1.3236   1.3275
  1.3482   1.3646   1.3758   1.3788   1.3964   1.4034   1.4100   1.4431
  1.4529   1.4648   1.4719   1.4734   1.4955   1.4996   1.5107   1.5298
  1.5393   1.5551   1.6070   1.6109   1.6234   1.6306   1.6402   1.6529
  1.6716   1.6950   1.7371   1.7527   1.7800   1.7951   1.8064   1.8104
  1.8266   1.8354   1.8733   1.8898   1.8951   1.9020   1.9066   1.9130
  1.9275   1.9380   1.9472   1.9511   1.9605   1.9713   1.9778   1.9861
  1.9997   2.0009   2.0080   2.0151   2.0310   2.0383   2.0402   2.0496
  2.0592   2.0710   2.0857   2.0931   2.1090   2.1211   2.1285   2.1413
  2.1560   2.1713   2.1815   2.1874   2.2011   2.2196   2.2382   2.2498
  2.2585   2.2676   2.2832   2.2903   2.3198   2.3372   2.3598   2.3673
  2.3938   2.4003   2.4091   2.4199   2.4258   2.4421   2.4790   2.4884
  2.4944   2.5156   2.5186   2.5213   2.5493   2.5693   2.5873   2.6057
  2.6133   2.6242   2.6251   2.6423   2.6552   2.6744   2.6824   2.6858
  2.7070   2.7142   2.7267   2.7436   2.7507   2.7643   2.7846   2.8002
  2.8163   2.8309   2.8364   2.8501   2.8691   2.8784   2.8939   2.9090
  2.9182   2.9256   2.9277   2.9500   2.9529   2.9584   2.9642   2.9843
  2.9988   3.0060   3.0166   3.0247   3.0388   3.0538   3.0735   3.0813
  3.0967   3.1039   3.1138   3.1340   3.1447   3.1861   3.1923   3.2111
  3.2273   3.2313   3.2431   3.2545   3.2664   3.2741   3.3008   3.3085
  3.3331   3.3359   3.3520   3.3692   3.3735   3.3824   3.3863   3.3981
  3.4042   3.4077   3.4442   3.4487   3.4568   3.4647   3.4723   3.4778
  3.4847   3.4971   3.5028   3.5067   3.5168   3.5254   3.5404   3.5468
  3.5513   3.5588   3.5702   3.5754   3.5842   3.5972   3.6078   3.6206
  3.6238   3.6318   3.6462   3.6488   3.6644   3.6773   3.6938   3.6963
  3.7046   3.7075   3.7269   3.7516   3.7566   3.7838   3.7949   3.8066
  3.8334   3.8392   3.8438   3.8889   3.9138   3.9504   3.9616   3.9818
  3.9865   4.0296   4.0634   4.1082   4.1233   4.1266   4.1481   4.2047
  4.2516   4.2581   4.2693   4.2839   4.2857   4.3092   4.3195   4.3229
  4.3288   4.3458   4.3629   4.3761   4.3995   4.4266   4.4292   4.4452
  4.4751   4.5272   4.5597   4.6022   4.6116   4.6284   4.7106   4.7458
  4.7521   4.7669   4.8043   4.8195   4.8761   4.8864   4.9163   4.9291
  4.9475   5.0145   5.0449   5.0576   5.1427   5.1632   5.2687   5.3398
  5.3452   5.3646   5.3753   5.3791   5.3911   5.4896   5.5240   5.5279
  5.6640   5.7310   5.7399   5.7924   5.8423   6.0137   6.2647   6.3194
  6.3449   6.6311   6.6544   6.7130   6.7666   6.7915   6.9731   6.9912
  7.0723   7.2477   7.3832   7.4111   7.4225  22.6170  22.6452  22.6796
 22.8426  22.8878  22.9055  22.9926  23.0787  23.3895  23.7425  44.3050
 44.4498
 --------------------------------------------------------------

          Ground-State Mulliken Net Atomic Charges

     Atom                 Charge (a.u.)
  ----------------------------------------
      1 C                    -1.037388
      2 C                    -0.420437
      3 C                    -0.518509
      4 C                    -0.331074
      5 C                     0.911730
      6 C                    -0.505328
      7 C                    -0.473540
      8 H                     0.297618
      9 H                     0.346073
     10 H                     0.315807
     11 H                     0.321038
     12 H                     0.284192
     13 H                     0.277480
     14 H                     0.335111
     15 H                     0.219407
     16 C                     0.714619
     17 C                    -0.857499
     18 C                    -0.006445
     19 O                    -0.687677
     20 O                    -0.698412
     21 H                    -0.166995
     22 H                     0.060508
     23 H                     0.196680
     24 H                     0.208560
     25 H                     0.214482
  ----------------------------------------
  Sum of atomic charges =    -1.000000

 -----------------------------------------------------------------
                    Cartesian Multipole Moments
 -----------------------------------------------------------------
    Charge (ESU x 10^10)
                -4.8032
    Dipole Moment (Debye)
         X     -10.6139      Y      -3.7271      Z      18.1649
       Tot      21.3661
    Quadrupole Moments (Debye-Ang)
        XX    -103.8232     XY     -15.4974     YY     -82.4101
        XZ      38.4333     YZ       9.3398     ZZ    -139.3038
    Octopole Moments (Debye-Ang^2)
       XXX     -54.6938    XXY     -25.1872    XYY     -29.5243
       YYY     -18.6878    XXZ      88.8372    XYZ      37.2697
       YYZ      31.1411    XZZ    -156.9311    YZZ     -44.7952
       ZZZ     263.7713
    Hexadecapole Moments (Debye-Ang^3)
      XXXX   -1936.7230   XXXY    -378.7663   XXYY    -499.0901
      XYYY    -273.7437   YYYY    -898.2702   XXXZ    1046.0213
      XXYZ     274.9443   XYYZ     349.0288   YYYZ     447.3279
      XXZZ   -1050.2464   XYZZ    -217.9268   YYZZ    -681.5263
      XZZZ    1301.0275   YZZZ     513.3398   ZZZZ   -3497.6103
 -----------------------------------------------------------------
Archival summary:
1\1\compute-0-14.local\SP\ProcedureUnspecified\BasisUnspecified\21013(1-,1)\meili\WedSep2902:56:562021WedSep2902:56:562021\0\\#,ProcedureUnspecified,BasisUnspecified,\\-1,1\C\C,1,1.39932\H,2,1.08202,1,119.852\C,1,1.40134,2,119.34,3,-179.636,0\H,4,1.08273,1,120.306,2,179.075,0\C,4,1.38325,1,119.842,2,0.0142687,0\H,6,1.08211,4,119.396,1,179.943,0\C,6,1.39034,4,121.465,1,-0.153827,0\H,8,1.08155,6,120.083,4,-179.744,0\C,8,1.40368,6,119.929,4,0.924026,0\H,10,1.08203,8,120.643,6,179.514,0\C,1,1.50844,2,120.514,3,-1.61258,0\H,12,1.08632,1,108.393,2,30.281,0\H,12,1.09011,1,108.896,2,147.261,0\H,12,1.1,1,112.78,2,-91.9208,0\H,3,2.59147,2,104.611,1,-133.323,0\C,16,1.09264,3,157.049,2,9.43324,0\H,17,1.09042,16,108.142,3,-50.5089,0\C,17,1.50535,16,110.283,3,-167.734,0\O,19,1.25858,17,117.607,16,-165.903,0\O,19,1.26456,17,116.944,16,14.9628,0\C,17,1.55318,16,108.719,3,69.1286,0\H,22,1.09049,17,106.942,16,178.05,0\H,22,1.1,17,112.838,16,57.3615,0\H,22,1.1,17,110.661,16,-67.5388,0\\\@

 Total job time:  18880.76s(wall), 39862.74s(cpu) 
 Wed Sep 29 02:56:56 2021

        *************************************************************
        *                                                           *
        *  Thank you very much for using Q-Chem.  Have a nice day.  *
        *                                                           *
        *************************************************************


