
Running Job 1 of 1 SSI-038GLN-042ASP-1_PCM_TZVPD.in
qchem SSI-038GLN-042ASP-1_PCM_TZVPD.in_49571.0 /tmp/qchem49571/ 0
/global/common/cori/software/qchem/5.2/exe/qcprog.exe_s SSI-038GLN-042ASP-1_PCM_TZVPD.in_49571.0 /tmp/qchem49571/
                  Welcome to Q-Chem
     A Quantum Leap Into The Future Of Chemistry


 Q-Chem 5.2, Q-Chem, Inc., Pleasanton, CA (2019)

 License issued to: National Energy Research Scientific Computing Center

 Yihan Shao,  Zhengting Gan,  E. Epifanovsky,  A. T. B. Gilbert,  M. Wormit,  
 J. Kussmann,  A. W. Lange,  A. Behn,  Jia Deng,  Xintian Feng,  D. Ghosh,  
 M. Goldey,  P. R. Horn,  L. D. Jacobson,  I. Kaliman,  T. Kus,  A. Landau,  
 Jie Liu,  E. I. Proynov,  R. M. Richard,  R. P. Steele,  E. J. Sundstrom,  
 H. L. Woodcock III,  P. M. Zimmerman,  D. Zuev,  B. Albrecht,  E. Alguire,  
 S. A. Baeppler,  D. Barton,  Z. Benda,  Y. A. Bernard,  E. J. Berquist,  
 K. B. Bravaya,  H. Burton,  D. Casanova,  Chun-Min Chang,  Yunqing Chen,  
 A. Chien,  K. D. Closser,  M. P. Coons,  S. Coriani,  S. Dasgupta,  
 A. L. Dempwolff,  M. Diedenhofen,  Hainam Do,  R. G. Edgar,  Po-Tung Fang,  
 S. Faraji,  S. Fatehi,  Qingguo Feng,  K. D. Fenk,  J. Fosso-Tande,  
 J. Gayvert,  Qinghui Ge,  A. Ghysels,  G. Gidofalvi,  J. Gomes,  
 J. Gonthier,  A. Gunina,  D. Hait,  M. W. D. Hanson-Heine,  
 P. H. P. Harbach,  A. W. Hauser,  M. F. Herbst,  J. E. Herr,  
 E. G. Hohenstein,  Z. C. Holden,  Kerwin Hui,  B. C. Huynh,  T.-C. Jagau,  
 Hyunjun Ji,  B. Kaduk,  K. Khistyaev,  Jaehoon Kim,  P. Klunzinger,  K. Koh,  
 D. Kosenkov,  L. Koulias,  T. Kowalczyk,  C. M. Krauter,  A. Kunitsa,  
 Ka Un Lao,  A. Laurent,  K. V. Lawler,  Joonho Lee,  D. Lefrancois,  
 S. Lehtola,  D. S. Levine,  Yi-Pei Li,  You-Sheng Lin,  Fenglai Liu,  
 E. Livshits,  A. Luenser,  P. Manohar,  E. Mansoor,  S. F. Manzer,  
 Shan-Ping Mao,  Yuezhi Mao,  N. Mardirossian,  A. V. Marenich,  
 T. Markovich,  L. A. Martinez-Martinez,  S. A. Maurer,  N. J. Mayhall,  
 S. C. McKenzie,  J.-M. Mewes,  P. Morgante,  A. F. Morrison,  
 J. W. Mullinax,  K. Nanda,  T. S. Nguyen-Beck,  R. Olivares-Amaya,  
 J. A. Parkhill,  Zheng Pei,  T. M. Perrine,  F. Plasser,  P. Pokhilko,  
 S. Prager,  A. Prociuk,  E. Ramos,  D. R. Rehn,  F. Rob,  M. Scheurer,  
 M. Schneider,  N. Sergueev,  S. M. Sharada,  S. Sharma,  D. W. Small,  
 T. Stauch,  T. Stein,  Yu-Chuan Su,  A. J. W. Thom,  A. Tkatchenko,  
 T. Tsuchimochi,  N. M. Tubman,  L. Vogt,  M. L. Vidal,  O. Vydrov,  
 M. A. Watson,  J. Wenzel,  M. de Wergifosse,  T. A. Wesolowski,  A. White,  
 J. Witte,  A. Yamada,  Jun Yang,  K. Yao,  S. Yeganeh,  S. R. Yost,  
 Zhi-Qiang You,  A. Zech,  Igor Ying Zhang,  Xing Zhang,  Yan Zhao,  
 Ying Zhu,  B. R. Brooks,  G. K. L. Chan,  C. J. Cramer,  M. S. Gordon,  
 W. J. Hehre,  A. Klamt,  M. W. Schmidt,  C. D. Sherrill,  D. G. Truhlar,  
 A. Aspuru-Guzik,  R. Baer,  A. T. Bell,  N. A. Besley,  Jeng-Da Chai,  
 A. E. DePrince, III,  R. A. DiStasio Jr.,  A. Dreuw,  B. D. Dunietz,  
 T. R. Furlani,  Chao-Ping Hsu,  Yousung Jung,  Jing Kong,  D. S. Lambrecht,  
 WanZhen Liang,  C. Ochsenfeld,  V. A. Rassolov,  L. V. Slipchenko,  
 J. E. Subotnik,  T. Van Voorhis,  J. M. Herbert,  A. I. Krylov,  
 P. M. W. Gill,  M. Head-Gordon

 Contributors to earlier versions of Q-Chem not listed above: 
 R. D. Adamson,  B. Austin,  J. Baker,  G. J. O. Beran,  K. Brandhorst,  
 S. T. Brown,  E. F. C. Byrd,  A. K. Chakraborty,  C.-L. Cheng,  
 Siu Hung Chien,  D. M. Chipman,  D. L. Crittenden,  H. Dachsel,  
 R. J. Doerksen,  A. D. Dutoi,  L. Fusti-Molnar,  W. A. Goddard III,  
 A. Golubeva-Zadorozhnaya,  S. R. Gwaltney,  G. Hawkins,  A. Heyden,  
 S. Hirata,  G. Kedziora,  F. J. Keil,  C. Kelley,  Jihan Kim,  R. A. King,  
 R. Z. Khaliullin,  P. P. Korambath,  W. Kurlancheek,  A. M. Lee,  M. S. Lee,  
 S. V. Levchenko,  Ching Yeh Lin,  D. Liotard,  R. C. Lochan,  I. Lotan,  
 P. E. Maslen,  N. Nair,  D. P. O'Neill,  D. Neuhauser,  E. Neuscamman,  
 C. M. Oana,  R. Olson,  B. Peters,  R. Peverati,  P. A. Pieniazek,  
 Y. M. Rhee,  J. Ritchie,  M. A. Rohrdanz,  E. Rosta,  N. J. Russ,  
 H. F. Schaefer III,  N. E. Schultz,  N. Shenvi,  A. C. Simmonett,  A. Sodt,  
 D. Stuck,  K. S. Thanthiriwatte,  V. Vanovschi,  Tao Wang,  A. Warshel,  
 C. F. Williams,  Q. Wu,  X. Xu,  W. Zhang

 Please cite Q-Chem as follows:
 Y. Shao et al., Mol. Phys. 113, 184-215 (2015)
 DOI: 10.1080/00268976.2014.952696

 Q-Chem 5.2.0 for Intel X86 EM64T Linux

 Parts of Q-Chem use Armadillo 8.300.2 (Tropical Shenanigans).
 http://arma.sourceforge.net/

 Q-Chem begins on Sun Sep 26 06:05:06 2021  

Host: cori01
0

     Scratch files written to /tmp/qchem49571//
 May1019 |scratch|qcdevops|jenkins|workspace|build_RNUM -1
Processing $rem in /global/common/cori/software/qchem/5.2/config/preferences:
	 MEM_TOTAL  96000 
NAlpha2: 64
NElect   64
Mult     1
Symmetry turned off for PCM/SM12/SMD calculation

 Q-Chem warning in module libgen/rem_setup.C, line 2803:

 Neither GIA nor STOLL is specified by user. Use STOLL as the default


Checking the input file for inconsistencies... 	...done.

--------------------------------------------------------------
User input:
--------------------------------------------------------------
$comment
SSI-038GLN-042ASP-1.pdb
$end

$molecule
-1 1
--
0 1
C    0.206309807952   -2.381925132590   -0.257100770991
C   -0.105690192048   -2.024925132590    1.190899229009
O   -0.156690192048   -2.896925132590    2.060899229009
N   -0.319690192048   -0.745925132590    1.463899229009
H   -0.516690192048   -0.484925132590    2.414899229009
H   -0.244690192048   -0.028925132590    0.742899229009
H    1.184309807952   -2.863925132590   -0.279100770991
H    0.280309807952   -1.478925132590   -0.862100770991
H   -0.532710192048   -3.070869132590   -0.692070770991
--
-1 1
C   -0.723690192048    2.756074867410   -2.036100770991
C    0.132309807952    1.947074867410   -1.062100770991
O   -0.116690192048    1.983074867410    0.162899229009
O    1.084309807952    1.284074867410   -1.532100770991
H   -1.016690192048    2.130074867410   -2.882100770991
H   -0.114690192048    3.576074867410   -2.420100770991
H   -1.623895192048    3.181844867410   -1.568820770991
$end

$rem
JOBTYPE			EDA
EDA2			1
method			wB97X-V
BASIS			def2-TZVPD
XC_GRID			000099000590
NL_GRID			1
UNRESTRICTED		FALSE
MAX_SCF_CYCLES		200
SYMMETRY		FALSE
SYM_IGNORE		TRUE
MEM_STATIC		2000
BASIS_LIN_DEP_THRESH 	6
THRESH 			14
SCF_CONVERGENCE 	8
SCF_PRINT_FRGM 		TRUE
SOLVENT_METHOD          PCM
$end

$PCM
THEORY                  CPCM
METHOD                  SWIG
SOLVER                  INVERSION
RADII                   UFF
HPOINTS                 302
HEAVYPOINTS             302
PRINTLEVEL              0
$END

$SOLVENT
DIELECTRIC              78.390000 ! water
$END
--------------------------------------------------------------
 ----------------------------------------------------------------
             Standard Nuclear Orientation (Angstroms)
    I     Atom           X                Y                Z
 ----------------------------------------------------------------
    1      C       0.2063098080    -2.3819251326    -0.2571007710
    2      C      -0.1056901920    -2.0249251326     1.1908992290
    3      O      -0.1566901920    -2.8969251326     2.0608992290
    4      N      -0.3196901920    -0.7459251326     1.4638992290
    5      H      -0.5166901920    -0.4849251326     2.4148992290
    6      H      -0.2446901920    -0.0289251326     0.7428992290
    7      H       1.1843098080    -2.8639251326    -0.2791007710
    8      H       0.2803098080    -1.4789251326    -0.8621007710
    9      H      -0.5327101920    -3.0708691326    -0.6920707710
   10      C      -0.7236901920     2.7560748674    -2.0361007710
   11      C       0.1323098080     1.9470748674    -1.0621007710
   12      O      -0.1166901920     1.9830748674     0.1628992290
   13      O       1.0843098080     1.2840748674    -1.5321007710
   14      H      -1.0166901920     2.1300748674    -2.8821007710
   15      H      -0.1146901920     3.5760748674    -2.4201007710
   16      H      -1.6238951920     3.1818448674    -1.5688207710
 ----------------------------------------------------------------
 Nuclear Repulsion Energy =         349.47108229 hartrees
 There are       32 alpha and       32 beta electrons
 Requested basis set is def2-TZVPD
 There are 147 shells and 377 basis functions

 Total QAlloc Memory Limit  96000 MB
 Mega-Array Size      1956 MB
 MEM_STATIC part      2000 MB
 Discretize the solute cavity surface with Lebedev spheres
	Using 302 Lebedev grid points for each H atom
	Using 302 Lebedev grid points for other atoms
	Atomic van der Waals radii will be scaled by 1.20
 Remove points where switching function is < 1.0e-08
 Keep 2017 surface tesserae and discard 2815 interior tesserae
 Molecular Surface Area = 218.324 Angst**2
 A cutoff of  1.0D-14 yielded   9711 shell pairs
 There are     64023 function pairs (     80882 Cartesian)
 Smallest overlap matrix eigenvalue = 7.63E-06

 Scale SEOQF with 1.000000e-01/1.000000e-01/1.000000e-01

 Standard Electronic Orientation quadrupole field applied
 Nucleus-field energy     =     0.0000000072 hartrees

 -----------------------------------------------------------------------
  General SCF calculation program by
  Eric Jon Sundstrom, Paul Horn, Yuezhi Mao, Dmitri Zuev, Alec White,
  David Stuck, Shaama M.S., Shane Yost, Joonho Lee, David Small,
  Daniel Levine, Susi Lehtola, Hugh Burton, Evgeny Epifanovsky
 -----------------------------------------------------------------------
================================================================
                 ALMO-EDA with the EDA2 driver                  
================================================================
 The second-generation ALMO-EDA (for DFT):                      
 P. R. Horn, Y. Mao and M. Head-Gordon, PCCP, 18, 23067 (2016)  
 Decomposition of the frozen energy:                            
 P. R. Horn, Y. Mao and M. Head-Gordon, JCP, 144, 114107 (2016) 
 FERF model for polarization:                                   
 P. R. Horn and M. Head-Gordon, JCP, 143, 114111 (2015)         
Using eda2 option set 1
Option set summary: Frozen orbital wavefunction, initial wavefunction decomposition, and nDQ polarization.
--------------------------------
Printing EDA Options
--------------------------------
eda_child_super_basis      0
fragmo_guess_mode          0
child_mp                   1
child_mp_orders            232
cls_elec                   1
cls_disp                   0
scfmi_mode                 1
scfmi_occs                 0
scfmi_virts                0
frz_relax                  0
frz_relax_method           0
dc_pen_start               0
dc_pen_conv                0
dc_pen_increment           0
dc_pen_steps               0
dc_pen_thresh_factor       0
dc_pen_pre_newton_thresh   0
frz_ortho_decomp           1
frz_ortho_decomp_conv      6
frgm_method                2
scfmi_freeze_ss            0
separate_rehyb             0
plot_diff_den              0
eda_nocv                   0
eda_vct_relax              1
disp_free_x                0
disp_free_c                0
eda_bsse                   0
eda_pct_a                  0
eda_covp                   0
--------------------------------
Attempting to make child job directory: /tmp/qchem49571//Frg1/
Attempting to make child job directory: /tmp/qchem49571//Frg2/
Creating input file /tmp/qchem49571/Frg1.input
using default PutDataFrgm: nothing
calling putenv with: QCSCRATCH=/tmp/qchem49571/ 
calling putenv with: QCLOCALSCR=/tmp/qchem49571/ 
Spawning Job For Fragment 0
                  Welcome to Q-Chem
     A Quantum Leap Into The Future Of Chemistry


 Q-Chem 5.2, Q-Chem, Inc., Pleasanton, CA (2019)

 License issued to: National Energy Research Scientific Computing Center

 Yihan Shao,  Zhengting Gan,  E. Epifanovsky,  A. T. B. Gilbert,  M. Wormit,  
 J. Kussmann,  A. W. Lange,  A. Behn,  Jia Deng,  Xintian Feng,  D. Ghosh,  
 M. Goldey,  P. R. Horn,  L. D. Jacobson,  I. Kaliman,  T. Kus,  A. Landau,  
 Jie Liu,  E. I. Proynov,  R. M. Richard,  R. P. Steele,  E. J. Sundstrom,  
 H. L. Woodcock III,  P. M. Zimmerman,  D. Zuev,  B. Albrecht,  E. Alguire,  
 S. A. Baeppler,  D. Barton,  Z. Benda,  Y. A. Bernard,  E. J. Berquist,  
 K. B. Bravaya,  H. Burton,  D. Casanova,  Chun-Min Chang,  Yunqing Chen,  
 A. Chien,  K. D. Closser,  M. P. Coons,  S. Coriani,  S. Dasgupta,  
 A. L. Dempwolff,  M. Diedenhofen,  Hainam Do,  R. G. Edgar,  Po-Tung Fang,  
 S. Faraji,  S. Fatehi,  Qingguo Feng,  K. D. Fenk,  J. Fosso-Tande,  
 J. Gayvert,  Qinghui Ge,  A. Ghysels,  G. Gidofalvi,  J. Gomes,  
 J. Gonthier,  A. Gunina,  D. Hait,  M. W. D. Hanson-Heine,  
 P. H. P. Harbach,  A. W. Hauser,  M. F. Herbst,  J. E. Herr,  
 E. G. Hohenstein,  Z. C. Holden,  Kerwin Hui,  B. C. Huynh,  T.-C. Jagau,  
 Hyunjun Ji,  B. Kaduk,  K. Khistyaev,  Jaehoon Kim,  P. Klunzinger,  K. Koh,  
 D. Kosenkov,  L. Koulias,  T. Kowalczyk,  C. M. Krauter,  A. Kunitsa,  
 Ka Un Lao,  A. Laurent,  K. V. Lawler,  Joonho Lee,  D. Lefrancois,  
 S. Lehtola,  D. S. Levine,  Yi-Pei Li,  You-Sheng Lin,  Fenglai Liu,  
 E. Livshits,  A. Luenser,  P. Manohar,  E. Mansoor,  S. F. Manzer,  
 Shan-Ping Mao,  Yuezhi Mao,  N. Mardirossian,  A. V. Marenich,  
 T. Markovich,  L. A. Martinez-Martinez,  S. A. Maurer,  N. J. Mayhall,  
 S. C. McKenzie,  J.-M. Mewes,  P. Morgante,  A. F. Morrison,  
 J. W. Mullinax,  K. Nanda,  T. S. Nguyen-Beck,  R. Olivares-Amaya,  
 J. A. Parkhill,  Zheng Pei,  T. M. Perrine,  F. Plasser,  P. Pokhilko,  
 S. Prager,  A. Prociuk,  E. Ramos,  D. R. Rehn,  F. Rob,  M. Scheurer,  
 M. Schneider,  N. Sergueev,  S. M. Sharada,  S. Sharma,  D. W. Small,  
 T. Stauch,  T. Stein,  Yu-Chuan Su,  A. J. W. Thom,  A. Tkatchenko,  
 T. Tsuchimochi,  N. M. Tubman,  L. Vogt,  M. L. Vidal,  O. Vydrov,  
 M. A. Watson,  J. Wenzel,  M. de Wergifosse,  T. A. Wesolowski,  A. White,  
 J. Witte,  A. Yamada,  Jun Yang,  K. Yao,  S. Yeganeh,  S. R. Yost,  
 Zhi-Qiang You,  A. Zech,  Igor Ying Zhang,  Xing Zhang,  Yan Zhao,  
 Ying Zhu,  B. R. Brooks,  G. K. L. Chan,  C. J. Cramer,  M. S. Gordon,  
 W. J. Hehre,  A. Klamt,  M. W. Schmidt,  C. D. Sherrill,  D. G. Truhlar,  
 A. Aspuru-Guzik,  R. Baer,  A. T. Bell,  N. A. Besley,  Jeng-Da Chai,  
 A. E. DePrince, III,  R. A. DiStasio Jr.,  A. Dreuw,  B. D. Dunietz,  
 T. R. Furlani,  Chao-Ping Hsu,  Yousung Jung,  Jing Kong,  D. S. Lambrecht,  
 WanZhen Liang,  C. Ochsenfeld,  V. A. Rassolov,  L. V. Slipchenko,  
 J. E. Subotnik,  T. Van Voorhis,  J. M. Herbert,  A. I. Krylov,  
 P. M. W. Gill,  M. Head-Gordon

 Contributors to earlier versions of Q-Chem not listed above: 
 R. D. Adamson,  B. Austin,  J. Baker,  G. J. O. Beran,  K. Brandhorst,  
 S. T. Brown,  E. F. C. Byrd,  A. K. Chakraborty,  C.-L. Cheng,  
 Siu Hung Chien,  D. M. Chipman,  D. L. Crittenden,  H. Dachsel,  
 R. J. Doerksen,  A. D. Dutoi,  L. Fusti-Molnar,  W. A. Goddard III,  
 A. Golubeva-Zadorozhnaya,  S. R. Gwaltney,  G. Hawkins,  A. Heyden,  
 S. Hirata,  G. Kedziora,  F. J. Keil,  C. Kelley,  Jihan Kim,  R. A. King,  
 R. Z. Khaliullin,  P. P. Korambath,  W. Kurlancheek,  A. M. Lee,  M. S. Lee,  
 S. V. Levchenko,  Ching Yeh Lin,  D. Liotard,  R. C. Lochan,  I. Lotan,  
 P. E. Maslen,  N. Nair,  D. P. O'Neill,  D. Neuhauser,  E. Neuscamman,  
 C. M. Oana,  R. Olson,  B. Peters,  R. Peverati,  P. A. Pieniazek,  
 Y. M. Rhee,  J. Ritchie,  M. A. Rohrdanz,  E. Rosta,  N. J. Russ,  
 H. F. Schaefer III,  N. E. Schultz,  N. Shenvi,  A. C. Simmonett,  A. Sodt,  
 D. Stuck,  K. S. Thanthiriwatte,  V. Vanovschi,  Tao Wang,  A. Warshel,  
 C. F. Williams,  Q. Wu,  X. Xu,  W. Zhang

 Please cite Q-Chem as follows:
 Y. Shao et al., Mol. Phys. 113, 184-215 (2015)
 DOI: 10.1080/00268976.2014.952696

 Q-Chem 5.2.0 for Intel X86 EM64T Linux

 Parts of Q-Chem use Armadillo 8.300.2 (Tropical Shenanigans).
 http://arma.sourceforge.net/

 Q-Chem begins on Sun Sep 26 06:05:10 2021  

Host: cori01
0

     Scratch files written to /tmp/qchem49571//Frg1//
 May1019 |scratch|qcdevops|jenkins|workspace|build_RNUM -1
Processing $rem in /global/common/cori/software/qchem/5.2/config/preferences:
	 MEM_TOTAL  96000 
NAlpha2: 32
NElect   32
Mult     1
Symmetry turned off for PCM/SM12/SMD calculation

Checking the input file for inconsistencies... 	...done.

--------------------------------------------------------------
User input:
--------------------------------------------------------------
$molecule
0 1
 6	0.2063098080	-2.3819251326	-0.2571007710
 6	-0.1056901920	-2.0249251326	1.1908992290
 8	-0.1566901920	-2.8969251326	2.0608992290
 7	-0.3196901920	-0.7459251326	1.4638992290
 1	-0.5166901920	-0.4849251326	2.4148992290
 1	-0.2446901920	-0.0289251326	0.7428992290
 1	1.1843098080	-2.8639251326	-0.2791007710
 1	0.2803098080	-1.4789251326	-0.8621007710
 1	-0.5327101920	-3.0708691326	-0.6920707710
$end
$rem
EDA2		1
METHOD		WB97X-V
BASIS		DEF2-TZVPD
XC_GRID		000099000590
NL_GRID		1
UNRESTRICTED		FALSE
MAX_SCF_CYCLES		200
SYMMETRY		FALSE
SYM_IGNORE		TRUE
BASIS_LIN_DEP_THRESH		6
THRESH		14
SCF_CONVERGENCE		8
SCF_PRINT_FRGM		TRUE
SOLVENT_METHOD		PCM
!required keywords
JOBTYPE		SP
SYM_IGNORE		TRUE
SUBSYSTEM		TRUE
GEN_SCFMAN		TRUE
CHILD_INSTRUCTION		2
SYM_IGNORE		TRUE
SCFMI		0
RI_K 0		
PARI_K 0		
MIN_PARI_K 0		
IARI_K 0		
OCC_RI_K 0		
PURECART		1111
MEM_STATIC		2000
MEM_TOTAL		96000
GUI		0
CHILD_MP		1
CHILD_MP_ORDERS		232
FRZ_RELAX		0
FRZ_RELAX_METHOD		0
EDA_CLS_ELEC		1
EDA_CLS_DISP		0
FRZ_ORTHO_DECOMP		1
EDA2		FALSE
FRGM_METHOD		FALSE
CIS_N_ROOTS  0
LOCAL_CIS    0
CIS_RLX_DNS  1
$end
$pcm
THEORY                  CPCM
METHOD                  SWIG
SOLVER                  INVERSION
RADII                   UFF
HPOINTS                 302
HEAVYPOINTS             302
PRINTLEVEL              0
$end
$solvent
DIELECTRIC              78.390000 ! water
$end
--------------------------------------------------------------
 ----------------------------------------------------------------
             Standard Nuclear Orientation (Angstroms)
    I     Atom           X                Y                Z
 ----------------------------------------------------------------
    1      C       0.2063098080    -2.3819251326    -0.2571007710
    2      C      -0.1056901920    -2.0249251326     1.1908992290
    3      O      -0.1566901920    -2.8969251326     2.0608992290
    4      N      -0.3196901920    -0.7459251326     1.4638992290
    5      H      -0.5166901920    -0.4849251326     2.4148992290
    6      H      -0.2446901920    -0.0289251326     0.7428992290
    7      H       1.1843098080    -2.8639251326    -0.2791007710
    8      H       0.2803098080    -1.4789251326    -0.8621007710
    9      H      -0.5327101920    -3.0708691326    -0.6920707710
 ----------------------------------------------------------------
 Nuclear Repulsion Energy =         121.99331423 hartrees
 There are       16 alpha and       16 beta electrons
 Requested basis set is def2-TZVPD
 There are 78 shells and 196 basis functions

 Total QAlloc Memory Limit  96000 MB
 Mega-Array Size      1956 MB
 MEM_STATIC part      2000 MB
 Discretize the solute cavity surface with Lebedev spheres
	Using 302 Lebedev grid points for each H atom
	Using 302 Lebedev grid points for other atoms
	Atomic van der Waals radii will be scaled by 1.20
 Remove points where switching function is < 1.0e-08
 Keep 1204 surface tesserae and discard 1514 interior tesserae
 Molecular Surface Area = 128.688 Angst**2

                       Distance Matrix (Angstroms)
             C (  1)   C (  2)   O (  3)   N (  4)   H (  5)   H (  6)
   C (  2)  1.523646
   O (  3)  2.402107  1.232836
   N (  4)  2.432080  1.325204  2.238254
   H (  5)  3.355730  2.009651  2.464277  1.005650
   H (  6)  2.596153  2.050376  3.157577  1.019586  1.754282
   H (  7)  1.090547  2.128126  2.697215  3.128257  3.976264  3.335229
   H (  8)  1.089454  2.159148  3.278052  2.511487  3.515960  2.225792
   H (  9)  1.099997  2.195887  2.783970  3.177884  4.042354  3.375725
             H (  7)   H (  8)
   H (  8)  1.753662
   H (  9)  1.778069  1.795605
 
 A cutoff of  1.0D-14 yielded   3053 shell pairs
 There are     19543 function pairs (     24701 Cartesian)
 Smallest overlap matrix eigenvalue = 1.13E-05

 Scale SEOQF with 1.000000e-01/1.000000e-01/1.000000e-01

 Standard Electronic Orientation quadrupole field applied
 Nucleus-field energy     =     0.0000000038 hartrees
 Guess from superposition of atomic densities
 Warning:  Energy on first SCF cycle will be non-variational
 SAD guess density has 31.604610 electrons

 -----------------------------------------------------------------------
  General SCF calculation program by
  Eric Jon Sundstrom, Paul Horn, Yuezhi Mao, Dmitri Zuev, Alec White,
  David Stuck, Shaama M.S., Shane Yost, Joonho Lee, David Small,
  Daniel Levine, Susi Lehtola, Hugh Burton, Evgeny Epifanovsky
 -----------------------------------------------------------------------
 Exchange:     0.1670 Hartree-Fock + 1.0000 wB97X-V + LR-HF
 Correlation:  1.0000 wB97X-V
 Using Euler-Maclaurin-Lebedev (99,590) quadrature formula
 Nonlocal Correlation:  VV10 with C = 0.0100 and b = 6.00 and scale = 1.00000
 Grid used for NLC:  SG-1 standard quadrature
Energy prior to optimization (guess energy) = -208.703320646461
Begin Timing: Total SCF Calculation
begin iterations for algorithm: DIIS         
the SCF tolerance is set to 1.00e-08
    1    -208.7033206465      1.26e-02     00000 
    2    -208.3080179345      1.56e-02     00000 
    3    -209.2229401076      2.51e-03     00000 
    4    -209.2432098421      8.35e-04     00000 
    5    -209.2459697832      1.26e-04     00000 
    6    -209.2460711247      4.98e-05     00000 
    7    -209.2460889911      1.12e-05     00000 
    8    -209.2460902003      2.16e-06     00000 
    9    -209.2460902956      7.74e-07     00000 
   10    -209.2460903014      3.25e-07     00000 
   11    -209.2460903023      7.34e-08     00000 
   12    -209.2460903024      1.75e-08     00000 
   13    -209.2460903024      4.54e-09     00000 Convergence criterion met
Timing for Total SCF: 377.00s (wall), 729.60s (cpu)

************** Final PCM Free Energy Summary **************
 G_electrostatic  =      -0.01235637 hartree =      -7.75374167 kcal/mol
 G_cavitation     =       0.00000000 hartree =       0.00000000 kcal/mol
 G_dispersion     =       0.00000000 hartree =       0.00000000 kcal/mol
 G_repulsion      =       0.00000000 hartree =       0.00000000 kcal/mol
 --------------------------------------------------
 Non-electrostatic Free Energy =       0.00000000 hartree =       0.00000000 kcal/mol
 Total                         =      -0.01235637 hartree =      -7.75374167 kcal/mol
 --------------------------------------------------
 SCF Energy (H0 + V/2)                       =    -209.24609030 
 Solute Internal Energy (H0)                 =    -209.23373393 
 Total Free Energy (H0 + V/2 + non-elec)     =    -209.24609030 hartree
                                             = -131303.90343450 kcal/mol
***********************************************************

E_pcm = -0.0123563739
Multipole orders to be included
        2
        3
computing dipole RHS
computing quadrupole RHS
total number of RHS in solve_reponses: 8
RHS batch sizes
        8
Beginning Block Conjugate Gradient Iterations. Batch Number: 0
computing hessian-vector products by finite difference
              1      6.10e-01     00000 Conjugate Gradient Iteration
computing hessian-vector products by finite difference
              2      2.13e-01     00000 Conjugate Gradient Iteration
computing hessian-vector products by finite difference
              3      5.75e-02     00000 Conjugate Gradient Iteration
computing hessian-vector products by finite difference
              4      1.46e-02     00000 Conjugate Gradient Iteration
computing hessian-vector products by finite difference
              5      2.18e-03     00000 Conjugate Gradient Iteration
computing hessian-vector products by finite difference
              6      4.71e-04     00000 Conjugate Gradient Iteration
computing hessian-vector products by finite difference
              7      6.94e-05     00000 Conjugate Gradient Iteration
computing hessian-vector products by finite difference
              8      8.04e-06     00000 Conjugate Gradient Iteration
computing hessian-vector products by finite difference
              9      1.07e-06     00000 Conjugate Gradient Iteration
computing hessian-vector products by finite difference
             10      1.12e-07     00000 Conjugate Gradient Iteration
computing hessian-vector products by finite difference
             11      1.76e-08     00000 Conjugate Gradient Iteration
computing hessian-vector products by finite difference
             12      3.69e-09     00000 CG Converged
batch 0 complete
Done Calculating Responses
TESTING ORTHOGONALIZATION OF MULTIPOLE BASIS
Multipole virts passed orthogonality test
Virts Per Order
        48
        80
 
 --------------------------------------------------------------
 
                    Orbital Energies (a.u.)
 --------------------------------------------------------------
 
 Alpha MOs
 -- Occupied --
-19.1777 -14.4369 -10.3790 -10.2740  -1.1700  -1.0465  -0.8700  -0.7166
 -0.6613  -0.5897  -0.5668  -0.5168  -0.5087  -0.4825  -0.3831  -0.3680
 -- Virtual --
  0.0596   0.0913   0.0927   0.0969   0.1275   0.1291   0.1309   0.1446
  0.1750   0.1829   0.1861   0.2059   0.2246   0.2440   0.2510   0.2571
  0.2610   0.2695   0.2940   0.3076   0.3243   0.3327   0.3398   0.3497
  0.3562   0.3568   0.3699   0.3715   0.3788   0.3948   0.4139   0.4264
  0.4351   0.4555   0.4604   0.4738   0.4769   0.4885   0.4969   0.5062
  0.5083   0.5302   0.5547   0.5605   0.5811   0.5854   0.6138   0.6331
  0.6395   0.6459   0.6719   0.6946   0.7009   0.7249   0.7309   0.7591
  0.7687   0.7745   0.7921   0.8040   0.8178   0.8285   0.8487   0.8818
  0.9090   0.9568   0.9635   0.9946   1.0195   1.0218   1.0558   1.1092
  1.1188   1.1600   1.2183   1.2386   1.2900   1.3131   1.3321   1.3868
  1.4661   1.4889   1.5244   1.6078   1.6789   1.7240   1.7249   1.8031
  1.8423   1.8676   1.8742   1.9122   1.9309   1.9551   1.9771   2.0381
  2.0520   2.0805   2.1232   2.1616   2.1858   2.2244   2.3170   2.3735
  2.4153   2.4269   2.4704   2.4810   2.4940   2.5685   2.6001   2.6213
  2.6395   2.6871   2.7761   2.7947   2.8528   2.8898   2.9395   2.9639
  3.0641   3.0998   3.1184   3.1565   3.1950   3.2137   3.2572   3.3035
  3.3095   3.3352   3.3821   3.4158   3.4485   3.4957   3.5215   3.5541
  3.5823   3.6767   3.6862   3.8244   3.8431   3.9362   4.0067   4.0298
  4.0577   4.1978   4.3071   4.4122   4.4531   4.6046   4.6271   4.6649
  4.7664   4.8864   4.8965   4.9225   5.1394   5.1735   5.2640   5.3462
  5.3699   5.3960   5.4029   5.4877   5.5328   5.7644   5.9150   6.1394
  6.2386   6.5199   6.6419   6.7369   6.8266   6.9690   7.2213   7.3247
 22.5777  23.5621  32.4017  44.2841
 --------------------------------------------------------------
 
          Ground-State Mulliken Net Atomic Charges

     Atom                 Charge (a.u.)
  ----------------------------------------
      1 C                    -0.553196
      2 C                     0.396871
      3 O                    -0.585625
      4 N                    -0.257142
      5 H                     0.199410
      6 H                     0.205506
      7 H                     0.179477
      8 H                     0.219643
      9 H                     0.195057
  ----------------------------------------
  Sum of atomic charges =     0.000000

 -----------------------------------------------------------------
                    Cartesian Multipole Moments
 -----------------------------------------------------------------
    Charge (ESU x 10^10)
                -0.0000
    Dipole Moment (Debye)
         X       0.0819      Y       4.3688      Z      -2.8479
       Tot       5.2157
    Quadrupole Moments (Debye-Ang)
        XX     -24.9933     XY      -1.4526     YY     -39.7121
        XZ      -0.3087     YZ      14.4344     ZZ     -30.5639
    Octopole Moments (Debye-Ang^2)
       XXX       7.0781    XXY      48.2686    XYY       5.6018
       YYY     199.5939    XXZ     -26.1245    XYZ      -2.7403
       YYZ     -71.8170    XZZ       0.1291    YZZ      81.1951
       ZZZ     -86.5286
    Hexadecapole Moments (Debye-Ang^3)
      XXXX     -39.8051   XXXY      -6.1233   XXYY    -123.5551
      XYYY     -13.0074   YYYY    -904.1472   XXXZ      20.0498
      XXYZ      50.3164   XYYZ      15.4219   YYYZ     291.9765
      XXZZ     -60.7523   XYZZ      -5.2882   YYZZ    -275.7386
      XZZZ      13.9607   YZZZ     215.5960   ZZZZ    -339.4463
 -----------------------------------------------------------------
Archival summary:
1\1\nid00566\SP\ProcedureUnspecified\BasisUnspecified\1125\meili\SunSep2607:53:142021SunSep2607:53:142021\0\\#,ProcedureUnspecified,BasisUnspecified,\\0,1\C\O,1,1.23284\N,1,1.3252,2,122.046\H,3,1.00565,1,118.485,2,0.859023,0\H,3,1.01959,1,121.41,2,177.944,0\C,1,1.52365,2,120.89,3,-179.851,0\H,6,1.08945,1,110.332,2,-175.848,0\H,6,1.09055,1,107.841,2,-59.1761,0\H,6,1.1,1,112.642,2,60.5515,0\\\@

 Total job time:  6484.91s(wall), 12542.57s(cpu) 
 Sun Sep 26 07:53:15 2021

        *************************************************************
        *                                                           *
        *  Thank you very much for using Q-Chem.  Have a nice day.  *
        *                                                           *
        *************************************************************


Done Job For Fragment 0
calling putenv with: QCSCRATCH=/global/cscratch1/sd/meili 
calling putenv with: QCLOCALSCR=/tmp 
calling putenv with: QCTHREADS=32 
Creating input file /tmp/qchem49571/Frg2.input
using default PutDataFrgm: nothing
calling putenv with: QCSCRATCH=/tmp/qchem49571/ 
calling putenv with: QCLOCALSCR=/tmp/qchem49571/ 
Spawning Job For Fragment 1
                  Welcome to Q-Chem
     A Quantum Leap Into The Future Of Chemistry


 Q-Chem 5.2, Q-Chem, Inc., Pleasanton, CA (2019)

 License issued to: National Energy Research Scientific Computing Center

 Yihan Shao,  Zhengting Gan,  E. Epifanovsky,  A. T. B. Gilbert,  M. Wormit,  
 J. Kussmann,  A. W. Lange,  A. Behn,  Jia Deng,  Xintian Feng,  D. Ghosh,  
 M. Goldey,  P. R. Horn,  L. D. Jacobson,  I. Kaliman,  T. Kus,  A. Landau,  
 Jie Liu,  E. I. Proynov,  R. M. Richard,  R. P. Steele,  E. J. Sundstrom,  
 H. L. Woodcock III,  P. M. Zimmerman,  D. Zuev,  B. Albrecht,  E. Alguire,  
 S. A. Baeppler,  D. Barton,  Z. Benda,  Y. A. Bernard,  E. J. Berquist,  
 K. B. Bravaya,  H. Burton,  D. Casanova,  Chun-Min Chang,  Yunqing Chen,  
 A. Chien,  K. D. Closser,  M. P. Coons,  S. Coriani,  S. Dasgupta,  
 A. L. Dempwolff,  M. Diedenhofen,  Hainam Do,  R. G. Edgar,  Po-Tung Fang,  
 S. Faraji,  S. Fatehi,  Qingguo Feng,  K. D. Fenk,  J. Fosso-Tande,  
 J. Gayvert,  Qinghui Ge,  A. Ghysels,  G. Gidofalvi,  J. Gomes,  
 J. Gonthier,  A. Gunina,  D. Hait,  M. W. D. Hanson-Heine,  
 P. H. P. Harbach,  A. W. Hauser,  M. F. Herbst,  J. E. Herr,  
 E. G. Hohenstein,  Z. C. Holden,  Kerwin Hui,  B. C. Huynh,  T.-C. Jagau,  
 Hyunjun Ji,  B. Kaduk,  K. Khistyaev,  Jaehoon Kim,  P. Klunzinger,  K. Koh,  
 D. Kosenkov,  L. Koulias,  T. Kowalczyk,  C. M. Krauter,  A. Kunitsa,  
 Ka Un Lao,  A. Laurent,  K. V. Lawler,  Joonho Lee,  D. Lefrancois,  
 S. Lehtola,  D. S. Levine,  Yi-Pei Li,  You-Sheng Lin,  Fenglai Liu,  
 E. Livshits,  A. Luenser,  P. Manohar,  E. Mansoor,  S. F. Manzer,  
 Shan-Ping Mao,  Yuezhi Mao,  N. Mardirossian,  A. V. Marenich,  
 T. Markovich,  L. A. Martinez-Martinez,  S. A. Maurer,  N. J. Mayhall,  
 S. C. McKenzie,  J.-M. Mewes,  P. Morgante,  A. F. Morrison,  
 J. W. Mullinax,  K. Nanda,  T. S. Nguyen-Beck,  R. Olivares-Amaya,  
 J. A. Parkhill,  Zheng Pei,  T. M. Perrine,  F. Plasser,  P. Pokhilko,  
 S. Prager,  A. Prociuk,  E. Ramos,  D. R. Rehn,  F. Rob,  M. Scheurer,  
 M. Schneider,  N. Sergueev,  S. M. Sharada,  S. Sharma,  D. W. Small,  
 T. Stauch,  T. Stein,  Yu-Chuan Su,  A. J. W. Thom,  A. Tkatchenko,  
 T. Tsuchimochi,  N. M. Tubman,  L. Vogt,  M. L. Vidal,  O. Vydrov,  
 M. A. Watson,  J. Wenzel,  M. de Wergifosse,  T. A. Wesolowski,  A. White,  
 J. Witte,  A. Yamada,  Jun Yang,  K. Yao,  S. Yeganeh,  S. R. Yost,  
 Zhi-Qiang You,  A. Zech,  Igor Ying Zhang,  Xing Zhang,  Yan Zhao,  
 Ying Zhu,  B. R. Brooks,  G. K. L. Chan,  C. J. Cramer,  M. S. Gordon,  
 W. J. Hehre,  A. Klamt,  M. W. Schmidt,  C. D. Sherrill,  D. G. Truhlar,  
 A. Aspuru-Guzik,  R. Baer,  A. T. Bell,  N. A. Besley,  Jeng-Da Chai,  
 A. E. DePrince, III,  R. A. DiStasio Jr.,  A. Dreuw,  B. D. Dunietz,  
 T. R. Furlani,  Chao-Ping Hsu,  Yousung Jung,  Jing Kong,  D. S. Lambrecht,  
 WanZhen Liang,  C. Ochsenfeld,  V. A. Rassolov,  L. V. Slipchenko,  
 J. E. Subotnik,  T. Van Voorhis,  J. M. Herbert,  A. I. Krylov,  
 P. M. W. Gill,  M. Head-Gordon

 Contributors to earlier versions of Q-Chem not listed above: 
 R. D. Adamson,  B. Austin,  J. Baker,  G. J. O. Beran,  K. Brandhorst,  
 S. T. Brown,  E. F. C. Byrd,  A. K. Chakraborty,  C.-L. Cheng,  
 Siu Hung Chien,  D. M. Chipman,  D. L. Crittenden,  H. Dachsel,  
 R. J. Doerksen,  A. D. Dutoi,  L. Fusti-Molnar,  W. A. Goddard III,  
 A. Golubeva-Zadorozhnaya,  S. R. Gwaltney,  G. Hawkins,  A. Heyden,  
 S. Hirata,  G. Kedziora,  F. J. Keil,  C. Kelley,  Jihan Kim,  R. A. King,  
 R. Z. Khaliullin,  P. P. Korambath,  W. Kurlancheek,  A. M. Lee,  M. S. Lee,  
 S. V. Levchenko,  Ching Yeh Lin,  D. Liotard,  R. C. Lochan,  I. Lotan,  
 P. E. Maslen,  N. Nair,  D. P. O'Neill,  D. Neuhauser,  E. Neuscamman,  
 C. M. Oana,  R. Olson,  B. Peters,  R. Peverati,  P. A. Pieniazek,  
 Y. M. Rhee,  J. Ritchie,  M. A. Rohrdanz,  E. Rosta,  N. J. Russ,  
 H. F. Schaefer III,  N. E. Schultz,  N. Shenvi,  A. C. Simmonett,  A. Sodt,  
 D. Stuck,  K. S. Thanthiriwatte,  V. Vanovschi,  Tao Wang,  A. Warshel,  
 C. F. Williams,  Q. Wu,  X. Xu,  W. Zhang

 Please cite Q-Chem as follows:
 Y. Shao et al., Mol. Phys. 113, 184-215 (2015)
 DOI: 10.1080/00268976.2014.952696

 Q-Chem 5.2.0 for Intel X86 EM64T Linux

 Parts of Q-Chem use Armadillo 8.300.2 (Tropical Shenanigans).
 http://arma.sourceforge.net/

 Q-Chem begins on Sun Sep 26 07:53:16 2021  

Host: cori01
0

     Scratch files written to /tmp/qchem49571//Frg2//
 May1019 |scratch|qcdevops|jenkins|workspace|build_RNUM -1
Processing $rem in /global/common/cori/software/qchem/5.2/config/preferences:
	 MEM_TOTAL  96000 
NAlpha2: 32
NElect   32
Mult     1
Symmetry turned off for PCM/SM12/SMD calculation

Checking the input file for inconsistencies... 	...done.

--------------------------------------------------------------
User input:
--------------------------------------------------------------
$molecule
-1 1
 6	-0.7236901920	2.7560748674	-2.0361007710
 6	0.1323098080	1.9470748674	-1.0621007710
 8	-0.1166901920	1.9830748674	0.1628992290
 8	1.0843098080	1.2840748674	-1.5321007710
 1	-1.0166901920	2.1300748674	-2.8821007710
 1	-0.1146901920	3.5760748674	-2.4201007710
 1	-1.6238951920	3.1818448674	-1.5688207710
$end
$rem
EDA2		1
METHOD		WB97X-V
BASIS		DEF2-TZVPD
XC_GRID		000099000590
NL_GRID		1
UNRESTRICTED		FALSE
MAX_SCF_CYCLES		200
SYMMETRY		FALSE
SYM_IGNORE		TRUE
BASIS_LIN_DEP_THRESH		6
THRESH		14
SCF_CONVERGENCE		8
SCF_PRINT_FRGM		TRUE
SOLVENT_METHOD		PCM
!required keywords
JOBTYPE		SP
SYM_IGNORE		TRUE
SUBSYSTEM		TRUE
GEN_SCFMAN		TRUE
CHILD_INSTRUCTION		2
SYM_IGNORE		TRUE
SCFMI		0
RI_K 0		
PARI_K 0		
MIN_PARI_K 0		
IARI_K 0		
OCC_RI_K 0		
PURECART		1111
MEM_STATIC		2000
MEM_TOTAL		96000
GUI		0
CHILD_MP		1
CHILD_MP_ORDERS		232
FRZ_RELAX		0
FRZ_RELAX_METHOD		0
EDA_CLS_ELEC		1
EDA_CLS_DISP		0
FRZ_ORTHO_DECOMP		1
EDA2		FALSE
FRGM_METHOD		FALSE
CIS_N_ROOTS  0
LOCAL_CIS    0
CIS_RLX_DNS  1
$end
$pcm
THEORY                  CPCM
METHOD                  SWIG
SOLVER                  INVERSION
RADII                   UFF
HPOINTS                 302
HEAVYPOINTS             302
PRINTLEVEL              0
$end
$solvent
DIELECTRIC              78.390000 ! water
$end
--------------------------------------------------------------
 ----------------------------------------------------------------
             Standard Nuclear Orientation (Angstroms)
    I     Atom           X                Y                Z
 ----------------------------------------------------------------
    1      C      -0.7236901920     2.7560748674    -2.0361007710
    2      C       0.1323098080     1.9470748674    -1.0621007710
    3      O      -0.1166901920     1.9830748674     0.1628992290
    4      O       1.0843098080     1.2840748674    -1.5321007710
    5      H      -1.0166901920     2.1300748674    -2.8821007710
    6      H      -0.1146901920     3.5760748674    -2.4201007710
    7      H      -1.6238951920     3.1818448674    -1.5688207710
 ----------------------------------------------------------------
 Nuclear Repulsion Energy =         112.50158987 hartrees
 There are       16 alpha and       16 beta electrons
 Requested basis set is def2-TZVPD
 There are 69 shells and 181 basis functions

 Total QAlloc Memory Limit  96000 MB
 Mega-Array Size      1956 MB
 MEM_STATIC part      2000 MB
 Discretize the solute cavity surface with Lebedev spheres
	Using 302 Lebedev grid points for each H atom
	Using 302 Lebedev grid points for other atoms
	Atomic van der Waals radii will be scaled by 1.20
 Remove points where switching function is < 1.0e-08
 Keep 1020 surface tesserae and discard 1094 interior tesserae
 Molecular Surface Area = 120.121 Angst**2

                       Distance Matrix (Angstroms)
             C (  1)   C (  2)   O (  3)   O (  4)   H (  5)   H (  6)
   C (  2)  1.528363
   O (  3)  2.408647  1.250569
   O (  4)  2.385302  1.251708  2.191809
   H (  5)  1.092447  2.160113  3.178621  2.636744
   H (  6)  1.091209  2.135138  3.034723  2.734851  1.765776
   H (  7)  1.100000  2.205828  2.589898  3.307152  1.788749  1.777018

 
 A cutoff of  1.0D-14 yielded   2391 shell pairs
 There are     16695 function pairs (     21491 Cartesian)
 Smallest overlap matrix eigenvalue = 1.69E-05

 Scale SEOQF with 1.000000e-01/1.000000e-01/1.000000e-01

 Standard Electronic Orientation quadrupole field applied
 Nucleus-field energy     =     0.0000000034 hartrees
 Guess from superposition of atomic densities
 Warning:  Energy on first SCF cycle will be non-variational
 SAD guess density has 30.625312 electrons

 -----------------------------------------------------------------------
  General SCF calculation program by
  Eric Jon Sundstrom, Paul Horn, Yuezhi Mao, Dmitri Zuev, Alec White,
  David Stuck, Shaama M.S., Shane Yost, Joonho Lee, David Small,
  Daniel Levine, Susi Lehtola, Hugh Burton, Evgeny Epifanovsky
 -----------------------------------------------------------------------
 Exchange:     0.1670 Hartree-Fock + 1.0000 wB97X-V + LR-HF
 Correlation:  1.0000 wB97X-V
 Using Euler-Maclaurin-Lebedev (99,590) quadrature formula
 Nonlocal Correlation:  VV10 with C = 0.0100 and b = 6.00 and scale = 1.00000
 Grid used for NLC:  SG-1 standard quadrature
Energy prior to optimization (guess energy) = -227.761377507655
Begin Timing: Total SCF Calculation
begin iterations for algorithm: DIIS         
the SCF tolerance is set to 1.00e-08
    1    -227.7613775077      1.66e-02     00000 
    2    -225.5801320616      2.55e-02     00000 
    3    -228.5768789998      4.14e-03     00000 
    4    -228.6359785827      1.40e-03     00000 
    5    -228.6421921424      2.74e-04     00000 
    6    -228.6424232061      2.19e-04     00000 
    7    -228.6425546360      4.90e-05     00000 
    8    -228.6425655102      1.41e-05     00000 
    9    -228.6425668474      2.92e-06     00000 
   10    -228.6425669521      4.14e-07     00000 
   11    -228.6425669550      1.66e-07     00000 
   12    -228.6425669554      6.15e-08     00000 
   13    -228.6425669554      1.69e-08     00000 
   14    -228.6425669554      2.81e-09     00000 Convergence criterion met
Timing for Total SCF: 299.00s (wall), 571.01s (cpu)

************** Final PCM Free Energy Summary **************
 G_electrostatic  =      -0.10196535 hartree =     -63.98422144 kcal/mol
 G_cavitation     =       0.00000000 hartree =       0.00000000 kcal/mol
 G_dispersion     =       0.00000000 hartree =       0.00000000 kcal/mol
 G_repulsion      =       0.00000000 hartree =       0.00000000 kcal/mol
 --------------------------------------------------
 Non-electrostatic Free Energy =       0.00000000 hartree =       0.00000000 kcal/mol
 Total                         =      -0.10196535 hartree =     -63.98422144 kcal/mol
 --------------------------------------------------
 SCF Energy (H0 + V/2)                       =    -228.64256696 
 Solute Internal Energy (H0)                 =    -228.54060161 
 Total Free Energy (H0 + V/2 + non-elec)     =    -228.64256696 hartree
                                             = -143475.37623826 kcal/mol
***********************************************************

E_pcm = -0.1019653478
Multipole orders to be included
        2
        3
computing dipole RHS
computing quadrupole RHS
total number of RHS in solve_reponses: 8
RHS batch sizes
        8
Beginning Block Conjugate Gradient Iterations. Batch Number: 0
computing hessian-vector products by finite difference
              1      6.70e-01     00000 Conjugate Gradient Iteration
computing hessian-vector products by finite difference
              2      2.46e-01     00000 Conjugate Gradient Iteration
computing hessian-vector products by finite difference
              3      6.55e-02     00000 Conjugate Gradient Iteration
computing hessian-vector products by finite difference
              4      1.72e-02     00000 Conjugate Gradient Iteration
computing hessian-vector products by finite difference
              5      2.94e-03     00000 Conjugate Gradient Iteration
computing hessian-vector products by finite difference
              6      6.71e-04     00000 Conjugate Gradient Iteration
computing hessian-vector products by finite difference
              7      1.08e-04     00000 Conjugate Gradient Iteration
computing hessian-vector products by finite difference
              8      1.30e-05     00000 Conjugate Gradient Iteration
computing hessian-vector products by finite difference
              9      2.08e-06     00000 Conjugate Gradient Iteration
computing hessian-vector products by finite difference
             10      2.53e-07     00000 Conjugate Gradient Iteration
computing hessian-vector products by finite difference
             11      5.49e-08     00000 Conjugate Gradient Iteration
computing hessian-vector products by finite difference
             12      1.18e-08     00000 Conjugate Gradient Iteration
computing hessian-vector products by finite difference
             13      1.34e-09     00000 CG Converged
batch 0 complete
Done Calculating Responses
TESTING ORTHOGONALIZATION OF MULTIPOLE BASIS
Multipole virts passed orthogonality test
Virts Per Order
        48
        80
 
 --------------------------------------------------------------
 
                    Orbital Energies (a.u.)
 --------------------------------------------------------------
 
 Alpha MOs
 -- Occupied --
-19.1222 -19.1205 -10.3254 -10.2410  -1.1323  -1.0304  -0.8283  -0.5923
 -0.5287  -0.5169  -0.5157  -0.4631  -0.4434  -0.3285  -0.3266  -0.3078
 -- Virtual --
  0.0633   0.0953   0.0957   0.1054   0.1303   0.1403   0.1428   0.1453
  0.1697   0.1905   0.1983   0.2233   0.2304   0.2359   0.2644   0.2673
  0.2988   0.3126   0.3344   0.3477   0.3535   0.3617   0.3716   0.3831
  0.3911   0.4020   0.4252   0.4262   0.4322   0.4611   0.4747   0.4781
  0.4904   0.4964   0.5048   0.5223   0.5595   0.5788   0.5991   0.6150
  0.6231   0.6417   0.6445   0.6625   0.6750   0.6787   0.6962   0.7121
  0.7218   0.7399   0.7776   0.7994   0.8110   0.8208   0.8460   0.8600
  0.8685   0.9812   0.9877   0.9953   1.0063   1.0511   1.0599   1.1283
  1.1683   1.2099   1.2591   1.2880   1.2951   1.3140   1.3488   1.3594
  1.4550   1.5714   1.6069   1.7372   1.8255   1.8651   1.8732   1.9245
  1.9301   1.9587   1.9651   1.9718   2.0226   2.1152   2.1317   2.1715
  2.2164   2.2256   2.3213   2.3468   2.4181   2.4408   2.4919   2.5096
  2.5795   2.5913   2.6206   2.6643   2.7932   2.8135   2.8762   2.9315
  2.9449   3.0151   3.0404   3.1852   3.2090   3.2485   3.2860   3.3186
  3.3438   3.3486   3.3999   3.4162   3.4303   3.5380   3.5734   3.5901
  3.6110   3.6653   3.7079   3.7390   3.7739   3.8780   3.9486   4.0444
  4.0803   4.1964   4.3620   4.5549   4.6142   4.6615   4.8093   4.8331
  4.9901   5.3341   5.3600   5.3698   5.3765   5.4983   5.7132   5.7813
  5.8236   6.0314   6.2349   6.3467   6.3577   6.6199   6.6311   6.7277
  6.7459   6.7613   6.9535   6.9822   7.0423   7.2528   7.3471   7.3929
  7.4165  22.5860  23.7360  44.2232  44.3493
 --------------------------------------------------------------
 
          Ground-State Mulliken Net Atomic Charges

     Atom                 Charge (a.u.)
  ----------------------------------------
      1 C                    -0.400251
      2 C                     0.293753
      3 O                    -0.672787
      4 O                    -0.679300
      5 H                     0.159023
      6 H                     0.134144
      7 H                     0.165418
  ----------------------------------------
  Sum of atomic charges =    -1.000000

 -----------------------------------------------------------------
                    Cartesian Multipole Moments
 -----------------------------------------------------------------
    Charge (ESU x 10^10)
                -4.8032
    Dipole Moment (Debye)
         X      -3.2661      Y      -6.9588      Z       2.2427
       Tot       8.0076
    Quadrupole Moments (Debye-Ang)
        XX     -30.9688     XY      -2.8713     YY     -36.6175
        XZ       6.0902     YZ       0.5496     ZZ     -32.8341
    Octopole Moments (Debye-Ang^2)
       XXX      -9.1120    XXY     -59.2483    XYY      -1.6400
       YYY    -175.8464    XXZ      37.8976    XYZ       6.4658
       YYZ      26.3179    XZZ     -11.1741    YZZ     -60.8240
       ZZZ     104.9326
    Hexadecapole Moments (Debye-Ang^3)
      XXXX    -120.3135   XXXY      15.8326   XXYY    -149.0215
      XYYY      32.5974   YYYY    -762.9093   XXXZ       6.5140
      XXYZ      76.8751   XYYZ       3.0943   YYYZ     181.9898
      XXZZ     -93.9897   XYZZ      -1.1502   YYZZ    -193.0524
      XZZZ      16.2565   YZZZ     218.3149   ZZZZ    -396.9542
 -----------------------------------------------------------------
Archival summary:
1\1\nid00566\SP\ProcedureUnspecified\BasisUnspecified\223(1-,1)\meili\SunSep2609:18:402021SunSep2609:18:402021\0\\#,ProcedureUnspecified,BasisUnspecified,\\-1,1\C\O,1,1.25057\O,1,1.25171,2,122.309\C,1,1.52836,2,119.835,3,-178.673,0\H,4,1.09121,1,108.026,2,109.861,0\H,4,1.09245,1,109.902,2,-132.62,0\H,4,1.1,1,113.111,2,-10.1025,0\\\@

 Total job time:  5128.47s(wall), 9993.69s(cpu) 
 Sun Sep 26 09:18:44 2021

        *************************************************************
        *                                                           *
        *  Thank you very much for using Q-Chem.  Have a nice day.  *
        *                                                           *
        *************************************************************


Done Job For Fragment 1
calling putenv with: QCSCRATCH=/global/cscratch1/sd/meili 
calling putenv with: QCLOCALSCR=/tmp 
calling putenv with: QCTHREADS=32 
Doing General SCFMI
 Exchange:     0.1670 Hartree-Fock + 1.0000 wB97X-V + LR-HF
 Correlation:  1.0000 wB97X-V
 Using Euler-Maclaurin-Lebedev (99,590) quadrature formula
 Nonlocal Correlation:  VV10 with C = 0.0100 and b = 6.00 and scale = 1.00000
 Grid used for NLC:  SG-1 standard quadrature
performing fock build before subrot guess so that all methods have access
Printing subrot_rss_gen Method Specification:
Occupied Subspace Method is 0
Virtual Subspace Method is 0
Energy of the unrelaxed supersystem initial determinant -437.805532318320
performing fock build before subrot guess so that all methods have access
Printing subrot_rss_gen Method Specification:
Occupied Subspace Method is 0
Virtual Subspace Method is 0
Energy of the unrelaxed supersystem initial determinant w/ solvent -437.895052223053
write pseudocanon occs and virts to disk
write pseudocanon orbital energies to disk
Tolerance of ortho_decomp_scf: 1.00e-06
GDM subspace size: 20
Beginning the Orthogonal Decomposition of the Initial Supersystem Wavefunction
    1    -437.7391405544      6.53e-02     ortho_decomp Preconditoned Steepest Descent
    2    -437.7451651520      1.84e-03     ortho_decomp BFGS Step
    3    -437.7451897631      1.40e-04     ortho_decomp BFGS Step
    4    -437.7451897996      5.75e-06     ortho_decomp BFGS Step
    5    -437.7451897998      2.08e-07     ortho_decomp 00000 Convergence criterion met
 Hartree-Fock
 Hartree-Fock
 Hartree-Fock
Doing General SCFMI
 Exchange:     0.1670 Hartree-Fock + 1.0000 wB97X-V + LR-HF
 Correlation:  1.0000 wB97X-V
 Using Euler-Maclaurin-Lebedev (99,590) quadrature formula
 Nonlocal Correlation:  VV10 with C = 0.0100 and b = 6.00 and scale = 1.00000
 Grid used for NLC:  SG-1 standard quadrature
performing fock build at end of subrot_r(subrot) constructor so that all methods have access
<S^2> of initial wavefunction before polarization iterations 0.0000000000
Beginning iterations for the determination of the polarized wavefunction
Energy prior to optimization (guess energy) = -437.895052223053
Begin Timing: Total SCF Calculation
begin iterations for algorithm: DIIS         
the SCF tolerance is set to 1.00e-08
    1    -437.8950522231      1.85e-04     00000 
    2    -437.8965308605      7.63e-05     00000 
    3    -437.8966650708      5.74e-05     00000 
    4    -437.8967292288      1.55e-05     00000 
    5    -437.8967369391      6.53e-06     00000 
    6    -437.8967385289      2.92e-06     00000 
    7    -437.8967389267      1.05e-06     00000 
    8    -437.8967389748      5.23e-07     00000 
    9    -437.8967389834      1.68e-07     00000 
   10    -437.8967389841      5.93e-08     00000 
   11    -437.8967389843      2.97e-08     00000 
   12    -437.8967389843      1.30e-08     00000 
   13    -437.8967389843      2.77e-09     00000 Convergence criterion met
write pseudocanon occs and virts to disk
write pseudocanon orbital energies to disk
Timing for Total SCF: 1885.00s (wall), 3741.68s (cpu)
<S^2> of polarized wavefunction after polarization iterations 0.0000000000
relaxing scfmi constraint to allow all rotations in the entire AO span
Doing General SCFMI
 Exchange:     0.1670 Hartree-Fock + 1.0000 wB97X-V + LR-HF
 Correlation:  1.0000 wB97X-V
 Using Euler-Maclaurin-Lebedev (99,590) quadrature formula
 Nonlocal Correlation:  VV10 with C = 0.0100 and b = 6.00 and scale = 1.00000
 Grid used for NLC:  SG-1 standard quadrature
performing fock build at end of subrot_r(subrot) constructor so that all methods have access
<S^2> of polarized wavefunction before ct-allowed iterations 0.0000000000
Beginning iterations for the determination of the CT-Allowed wavefunction
Energy prior to optimization (guess energy) = -437.896738984286
Begin Timing: Total SCF Calculation
begin iterations for algorithm: DIIS         
the SCF tolerance is set to 1.00e-08
    1    -437.8967389843      1.64e-04     00000 
    2    -437.8991463826      2.56e-05     00000 
    3    -437.8992520717      1.14e-05     00000 
    4    -437.8992588104      6.80e-06     00000 
    5    -437.8992617588      1.52e-06     00000 
    6    -437.8992619328      5.66e-07     00000 
    7    -437.8992619741      2.39e-07     00000 
    8    -437.8992619794      5.82e-08     00000 
    9    -437.8992619800      2.83e-08     00000 
   10    -437.8992619801      1.01e-08     00000 
   11    -437.8992619801      4.07e-09     00000 Convergence criterion met
write pseudocanon occs and virts to disk
write pseudocanon orbital energies to disk
Timing for Total SCF: 1579.00s (wall), 3134.90s (cpu)
<S^2> of ct_allowed wavefunction after ct-allowed iterations 0.0000000000

================================
        Results of EDA2         
================================
Basic EDA Quantities
--------------------
Fragment Energies (Ha):
1 -209.2460903024
2 -228.6425669554
--------------------
  E_prp (kJ/mol) = 0.0000
  E_sol (kJ/mol) = 65.1179
  E_frz (kJ/mol) = -81.9081
  E_pol (kJ/mol) = -4.4286
  E_vct (kJ/mol) = -6.6242
  E_int (kJ/mol) = -27.8430
--------------------


Initial Wavefunction Decomposition
--------------------
  --------------------
  Orthogonal Fragment Subspace Decomposition:
  --------------------
     E_elec   (ELEC)   (kJ/mol) = -130.0990
     E_pauli  (PAULI)  (kJ/mol) = 61.6791
     E_disp   (DISP)   (kJ/mol) = -13.4882
     --------------------
     Terms summing to E_pauli:
     --------------------
        E_kep_pauli       (kJ/mol) = 76.5230
        E_disp_free_pauli (kJ/mol) = -14.8439
  --------------------
  Classical Frozen Decomposition:
  --------------------
     E_cls_elec  (CLS ELEC)  (kJ/mol) = -101.0698
     E_cls_pauli (CLS PAULI) (kJ/mol) = 19.1616
    [E_mod_pauli (MOD PAULI) (kJ/mol) = 32.6498 (CLS PAULI - DISP from orthogonal decomposition) ]
  --------------------
--------------------

Simplified EDA Summary (kJ/mol)
--------------------
 PREPARATION     0.0000
 SOLVATION       65.1179
 FROZEN          -68.4199      (does not include dispersion)
[PAULI           61.6791]     (if this is negligible, then frozen describes electrostatics)
 DISPERSION      -13.4882
 POLARIZATION    -4.4286
 CHARGE TRANSFER -6.6242
 TOTAL           -27.8430     (PRP + SOL + FRZ + DISP + POL + CT)
--------------------
 
 --------------------------------------------------------------
 
                    Orbital Energies (a.u.)
 --------------------------------------------------------------
 
 Alpha MOs
 -- Occupied --
-19.1683 -19.1297 -19.1257 -14.4177 -10.3679 -10.3313 -10.2655 -10.2433
 -1.1601  -1.1396  -1.0379  -1.0306  -0.8610  -0.8313  -0.7020  -0.6454
 -0.5965  -0.5805  -0.5581  -0.5331  -0.5229  -0.5203  -0.5062  -0.4995
 -0.4737  -0.4673  -0.4477  -0.3710  -0.3602  -0.3350  -0.3319  -0.3143
 -- Virtual --
  0.0572   0.0754   0.0850   0.0901   0.0988   0.1052   0.1113   0.1223
  0.1301   0.1309   0.1376   0.1430   0.1444   0.1583   0.1653   0.1743
  0.1840   0.1919   0.2019   0.2096   0.2127   0.2230   0.2243   0.2367
  0.2433   0.2555   0.2566   0.2637   0.2690   0.2823   0.2955   0.3019
  0.3051   0.3118   0.3152   0.3214   0.3301   0.3305   0.3373   0.3443
  0.3506   0.3543   0.3577   0.3624   0.3688   0.3745   0.3819   0.3821
  0.3938   0.3970   0.4042   0.4084   0.4139   0.4219   0.4259   0.4380
  0.4408   0.4466   0.4577   0.4631   0.4700   0.4751   0.4821   0.4905
  0.4939   0.4943   0.4966   0.5068   0.5095   0.5259   0.5336   0.5453
  0.5552   0.5580   0.5694   0.5775   0.5835   0.5910   0.6024   0.6063
  0.6139   0.6191   0.6283   0.6328   0.6421   0.6529   0.6532   0.6618
  0.6753   0.6844   0.6927   0.6984   0.7069   0.7135   0.7291   0.7357
  0.7400   0.7432   0.7630   0.7667   0.7718   0.7844   0.7897   0.7960
  0.7995   0.8065   0.8172   0.8232   0.8291   0.8343   0.8532   0.8536
  0.8598   0.8702   0.8756   0.8882   0.9045   0.9241   0.9377   0.9547
  0.9629   0.9860   0.9977   1.0053   1.0121   1.0371   1.0541   1.0610
  1.0750   1.0852   1.1025   1.1210   1.1351   1.1470   1.1556   1.1569
  1.1770   1.2006   1.2366   1.2720   1.2790   1.2895   1.3082   1.3184
  1.3226   1.3360   1.3425   1.3569   1.3816   1.4073   1.4166   1.4652
  1.4713   1.5071   1.5379   1.5781   1.5926   1.6311   1.6387   1.7352
  1.7497   1.7799   1.7965   1.8435   1.8767   1.8839   1.8976   1.9034
  1.9196   1.9351   1.9479   1.9567   1.9665   1.9724   1.9834   1.9906
  2.0075   2.0166   2.0396   2.0507   2.0664   2.0890   2.1190   2.1323
  2.1467   2.1798   2.1977   2.2132   2.2190   2.2536   2.2893   2.3175
  2.3371   2.3582   2.3924   2.4271   2.4415   2.4504   2.4685   2.4752
  2.5044   2.5190   2.5273   2.5297   2.5524   2.5913   2.6080   2.6270
  2.6379   2.6555   2.6699   2.6880   2.6911   2.7785   2.7929   2.7978
  2.8456   2.8548   2.8894   2.8920   2.9156   2.9482   2.9638   2.9765
  2.9936   3.0574   3.1112   3.1318   3.1480   3.1636   3.1755   3.2098
  3.2197   3.2322   3.2537   3.2601   3.2896   3.3212   3.3238   3.3361
  3.3483   3.3620   3.3735   3.3960   3.4149   3.4226   3.4355   3.4445
  3.4611   3.4771   3.5271   3.5397   3.5615   3.5998   3.6048   3.6253
  3.6344   3.6686   3.6877   3.6950   3.7264   3.7353   3.7641   3.7873
  3.8413   3.8908   3.8976   3.9501   3.9670   4.0292   4.0434   4.0505
  4.0949   4.1074   4.2060   4.2229   4.3416   4.3786   4.4409   4.4699
  4.5731   4.6203   4.6388   4.6522   4.6701   4.6831   4.7958   4.8265
  4.8554   4.9125   4.9427   4.9493   5.0079   5.1901   5.1954   5.2786
  5.3311   5.3547   5.3676   5.3757   5.3786   5.4121   5.4217   5.4781
  5.5141   5.5374   5.5649   5.7116   5.7746   5.7863   5.8190   5.9450
  6.0322   6.1870   6.2483   6.2554   6.3490   6.3654   6.5344   6.6253
  6.6546   6.6942   6.7533   6.7589   6.7752   6.7833   6.8396   6.9583
  6.9814   7.0409   7.0719   7.2364   7.2597   7.3443   7.3503   7.4115
  7.4295  22.5999  22.6136  23.5919  23.7580  32.5420  44.3239  44.3739
 44.3852
 --------------------------------------------------------------
 
          Ground-State Mulliken Net Atomic Charges

     Atom                 Charge (a.u.)
  ----------------------------------------
      1 C                    -0.471003
      2 C                     0.416593
      3 O                    -0.605818
      4 N                    -0.106190
      5 H                     0.179496
      6 H                     0.087466
      7 H                     0.166597
      8 H                     0.142974
      9 H                     0.188005
     10 C                    -0.599615
     11 C                     0.480269
     12 O                    -0.741354
     13 O                    -0.666141
     14 H                     0.183712
     15 H                     0.173028
     16 H                     0.171979
  ----------------------------------------
  Sum of atomic charges =    -1.000000

 -----------------------------------------------------------------
                    Cartesian Multipole Moments
 -----------------------------------------------------------------
    Charge (ESU x 10^10)
                -4.8032
    Dipole Moment (Debye)
         X      -3.0726      Y      -1.7796      Z      -1.0198
       Tot       3.6943
    Quadrupole Moments (Debye-Ang)
        XX     -55.9018     XY      -4.3549     YY     -77.2273
        XZ       5.8152     YZ      15.4032     ZZ     -63.7579
    Octopole Moments (Debye-Ang^2)
       XXX      -1.7223    XXY      -9.8194    XYY       3.9441
       YYY      32.6622    XXZ      11.0996    XYZ       3.5783
       YYZ     -48.3166    XZZ     -10.6354    YZZ      23.6070
       ZZZ      14.8113
    Hexadecapole Moments (Debye-Ang^3)
      XXXX    -159.5177   XXXY       9.8134   XXYY    -272.9032
      XYYY      18.8512   YYYY   -1678.3635   XXXZ      26.5319
      XXYZ     126.9954   XYYZ      19.1200   YYYZ     477.3882
      XXZZ    -154.5052   XYZZ      -6.9501   YYZZ    -471.7705
      XZZZ      30.8529   YZZZ     436.1097   ZZZZ    -739.4336
 -----------------------------------------------------------------
Archival summary:
1\1\nid00566\SP\ProcedureUnspecified\BasisUnspecified\3148(1-,1)\meili\SunSep2610:53:332021SunSep2610:53:332021\0\\#,ProcedureUnspecified,BasisUnspecified,\\-1,1\O\C,1,1.25057\O,2,1.25171,1,122.309\C,2,1.52836,1,119.835,3,-178.673,0\H,4,1.09121,2,108.026,1,109.861,0\H,4,1.09245,2,109.902,1,-132.62,0\H,4,1.1,2,113.111,1,-10.1025,0\H,1,2.09784,2,104.795,3,-52.7803,0\N,8,1.01959,1,150.98,2,171.428,0\H,9,1.00565,8,120.041,1,10.2256,0\C,9,1.3252,8,121.41,1,-166.814,0\O,11,1.23284,9,122.046,8,177.944,0\C,11,1.52365,9,117.064,8,-2.20014,0\H,13,1.08945,11,110.332,9,4.29401,0\H,13,1.09055,11,107.841,9,120.966,0\H,13,1.1,11,112.642,9,-119.307,0\\\@

 Total job time:  17312.58s(wall), 11309.40s(cpu) 
 Sun Sep 26 10:53:38 2021

        *************************************************************
        *                                                           *
        *  Thank you very much for using Q-Chem.  Have a nice day.  *
        *                                                           *
        *************************************************************


