
Running Job 1 of 1 SSI-015ASN-048GLN-1_PCM_TZVPD.in
qchem SSI-015ASN-048GLN-1_PCM_TZVPD.in_64677.0 /tmp/qchem64677/ 0
/global/common/cori/software/qchem/5.2/exe/qcprog.exe_s SSI-015ASN-048GLN-1_PCM_TZVPD.in_64677.0 /tmp/qchem64677/
                  Welcome to Q-Chem
     A Quantum Leap Into The Future Of Chemistry


 Q-Chem 5.2, Q-Chem, Inc., Pleasanton, CA (2019)

 License issued to: National Energy Research Scientific Computing Center

 Yihan Shao,  Zhengting Gan,  E. Epifanovsky,  A. T. B. Gilbert,  M. Wormit,  
 J. Kussmann,  A. W. Lange,  A. Behn,  Jia Deng,  Xintian Feng,  D. Ghosh,  
 M. Goldey,  P. R. Horn,  L. D. Jacobson,  I. Kaliman,  T. Kus,  A. Landau,  
 Jie Liu,  E. I. Proynov,  R. M. Richard,  R. P. Steele,  E. J. Sundstrom,  
 H. L. Woodcock III,  P. M. Zimmerman,  D. Zuev,  B. Albrecht,  E. Alguire,  
 S. A. Baeppler,  D. Barton,  Z. Benda,  Y. A. Bernard,  E. J. Berquist,  
 K. B. Bravaya,  H. Burton,  D. Casanova,  Chun-Min Chang,  Yunqing Chen,  
 A. Chien,  K. D. Closser,  M. P. Coons,  S. Coriani,  S. Dasgupta,  
 A. L. Dempwolff,  M. Diedenhofen,  Hainam Do,  R. G. Edgar,  Po-Tung Fang,  
 S. Faraji,  S. Fatehi,  Qingguo Feng,  K. D. Fenk,  J. Fosso-Tande,  
 J. Gayvert,  Qinghui Ge,  A. Ghysels,  G. Gidofalvi,  J. Gomes,  
 J. Gonthier,  A. Gunina,  D. Hait,  M. W. D. Hanson-Heine,  
 P. H. P. Harbach,  A. W. Hauser,  M. F. Herbst,  J. E. Herr,  
 E. G. Hohenstein,  Z. C. Holden,  Kerwin Hui,  B. C. Huynh,  T.-C. Jagau,  
 Hyunjun Ji,  B. Kaduk,  K. Khistyaev,  Jaehoon Kim,  P. Klunzinger,  K. Koh,  
 D. Kosenkov,  L. Koulias,  T. Kowalczyk,  C. M. Krauter,  A. Kunitsa,  
 Ka Un Lao,  A. Laurent,  K. V. Lawler,  Joonho Lee,  D. Lefrancois,  
 S. Lehtola,  D. S. Levine,  Yi-Pei Li,  You-Sheng Lin,  Fenglai Liu,  
 E. Livshits,  A. Luenser,  P. Manohar,  E. Mansoor,  S. F. Manzer,  
 Shan-Ping Mao,  Yuezhi Mao,  N. Mardirossian,  A. V. Marenich,  
 T. Markovich,  L. A. Martinez-Martinez,  S. A. Maurer,  N. J. Mayhall,  
 S. C. McKenzie,  J.-M. Mewes,  P. Morgante,  A. F. Morrison,  
 J. W. Mullinax,  K. Nanda,  T. S. Nguyen-Beck,  R. Olivares-Amaya,  
 J. A. Parkhill,  Zheng Pei,  T. M. Perrine,  F. Plasser,  P. Pokhilko,  
 S. Prager,  A. Prociuk,  E. Ramos,  D. R. Rehn,  F. Rob,  M. Scheurer,  
 M. Schneider,  N. Sergueev,  S. M. Sharada,  S. Sharma,  D. W. Small,  
 T. Stauch,  T. Stein,  Yu-Chuan Su,  A. J. W. Thom,  A. Tkatchenko,  
 T. Tsuchimochi,  N. M. Tubman,  L. Vogt,  M. L. Vidal,  O. Vydrov,  
 M. A. Watson,  J. Wenzel,  M. de Wergifosse,  T. A. Wesolowski,  A. White,  
 J. Witte,  A. Yamada,  Jun Yang,  K. Yao,  S. Yeganeh,  S. R. Yost,  
 Zhi-Qiang You,  A. Zech,  Igor Ying Zhang,  Xing Zhang,  Yan Zhao,  
 Ying Zhu,  B. R. Brooks,  G. K. L. Chan,  C. J. Cramer,  M. S. Gordon,  
 W. J. Hehre,  A. Klamt,  M. W. Schmidt,  C. D. Sherrill,  D. G. Truhlar,  
 A. Aspuru-Guzik,  R. Baer,  A. T. Bell,  N. A. Besley,  Jeng-Da Chai,  
 A. E. DePrince, III,  R. A. DiStasio Jr.,  A. Dreuw,  B. D. Dunietz,  
 T. R. Furlani,  Chao-Ping Hsu,  Yousung Jung,  Jing Kong,  D. S. Lambrecht,  
 WanZhen Liang,  C. Ochsenfeld,  V. A. Rassolov,  L. V. Slipchenko,  
 J. E. Subotnik,  T. Van Voorhis,  J. M. Herbert,  A. I. Krylov,  
 P. M. W. Gill,  M. Head-Gordon

 Contributors to earlier versions of Q-Chem not listed above: 
 R. D. Adamson,  B. Austin,  J. Baker,  G. J. O. Beran,  K. Brandhorst,  
 S. T. Brown,  E. F. C. Byrd,  A. K. Chakraborty,  C.-L. Cheng,  
 Siu Hung Chien,  D. M. Chipman,  D. L. Crittenden,  H. Dachsel,  
 R. J. Doerksen,  A. D. Dutoi,  L. Fusti-Molnar,  W. A. Goddard III,  
 A. Golubeva-Zadorozhnaya,  S. R. Gwaltney,  G. Hawkins,  A. Heyden,  
 S. Hirata,  G. Kedziora,  F. J. Keil,  C. Kelley,  Jihan Kim,  R. A. King,  
 R. Z. Khaliullin,  P. P. Korambath,  W. Kurlancheek,  A. M. Lee,  M. S. Lee,  
 S. V. Levchenko,  Ching Yeh Lin,  D. Liotard,  R. C. Lochan,  I. Lotan,  
 P. E. Maslen,  N. Nair,  D. P. O'Neill,  D. Neuhauser,  E. Neuscamman,  
 C. M. Oana,  R. Olson,  B. Peters,  R. Peverati,  P. A. Pieniazek,  
 Y. M. Rhee,  J. Ritchie,  M. A. Rohrdanz,  E. Rosta,  N. J. Russ,  
 H. F. Schaefer III,  N. E. Schultz,  N. Shenvi,  A. C. Simmonett,  A. Sodt,  
 D. Stuck,  K. S. Thanthiriwatte,  V. Vanovschi,  Tao Wang,  A. Warshel,  
 C. F. Williams,  Q. Wu,  X. Xu,  W. Zhang

 Please cite Q-Chem as follows:
 Y. Shao et al., Mol. Phys. 113, 184-215 (2015)
 DOI: 10.1080/00268976.2014.952696

 Q-Chem 5.2.0 for Intel X86 EM64T Linux

 Parts of Q-Chem use Armadillo 8.300.2 (Tropical Shenanigans).
 http://arma.sourceforge.net/

 Q-Chem begins on Sun Sep 26 03:16:34 2021  

Host: cori01
0

     Scratch files written to /tmp/qchem64677//
 May1019 |scratch|qcdevops|jenkins|workspace|build_RNUM -1
Processing $rem in /global/common/cori/software/qchem/5.2/config/preferences:
	 MEM_TOTAL  96000 
NAlpha2: 64
NElect   64
Mult     1
Symmetry turned off for PCM/SM12/SMD calculation

 Q-Chem warning in module libgen/rem_setup.C, line 2803:

 Neither GIA nor STOLL is specified by user. Use STOLL as the default


Checking the input file for inconsistencies... 	...done.

--------------------------------------------------------------
User input:
--------------------------------------------------------------
$comment
SSI-015ASN-048GLN-1.pdb
$end

$molecule
0 1
--
0 1
C    2.825884912880   -0.695216183749   -0.617906132688
C    1.708884912880   -1.507216183749   -1.241906132688
O    1.953884912880   -2.429216183749   -2.017906132688
N    0.471884912880   -1.170216183749   -0.914906132688
H   -0.285115087120   -1.690216183749   -1.330906132688
H    0.281884912880   -0.385216183749   -0.294906132688
H    2.412884912880    0.051783816251    0.062093867312
H    3.315884912880   -0.162216183749   -1.433906132688
H    3.554484912880   -1.321786183749   -0.082596132688
--
0 1
C   -2.675115087120    2.005783816251    0.236093867312
C   -1.651115087120    1.418783816251    1.202093867312
O   -0.622115087120    0.901783816251    0.769093867312
N   -1.918115087120    1.455783816251    2.499093867312
H   -3.200115087120    1.171783816251   -0.226906132688
H   -2.152115087120    2.529783816251   -0.561906132688
H   -1.246115087120    1.025783816251    3.122093867312
H   -2.778115087120    1.840783816251    2.878093867312
H   -3.428335087120    2.661443816251    0.697353867312
$end

$rem
JOBTYPE			EDA
EDA2			1
method			wB97X-V
BASIS			def2-TZVPD
XC_GRID			000099000590
NL_GRID			1
UNRESTRICTED		FALSE
MAX_SCF_CYCLES		200
SYMMETRY		FALSE
SYM_IGNORE		TRUE
MEM_STATIC		2000
BASIS_LIN_DEP_THRESH 	6
THRESH 			14
SCF_CONVERGENCE 	8
SCF_PRINT_FRGM 		TRUE
SOLVENT_METHOD          PCM
$end

$PCM
THEORY                  CPCM
METHOD                  SWIG
SOLVER                  INVERSION
RADII                   UFF
HPOINTS                 302
HEAVYPOINTS             302
PRINTLEVEL              0
$END

$SOLVENT
DIELECTRIC              78.390000 ! water
$END
--------------------------------------------------------------
 ----------------------------------------------------------------
             Standard Nuclear Orientation (Angstroms)
    I     Atom           X                Y                Z
 ----------------------------------------------------------------
    1      C       2.8258849129    -0.6952161837    -0.6179061327
    2      C       1.7088849129    -1.5072161837    -1.2419061327
    3      O       1.9538849129    -2.4292161837    -2.0179061327
    4      N       0.4718849129    -1.1702161837    -0.9149061327
    5      H      -0.2851150871    -1.6902161837    -1.3309061327
    6      H       0.2818849129    -0.3852161837    -0.2949061327
    7      H       2.4128849129     0.0517838163     0.0620938673
    8      H       3.3158849129    -0.1622161837    -1.4339061327
    9      H       3.5544849129    -1.3217861837    -0.0825961327
   10      C      -2.6751150871     2.0057838163     0.2360938673
   11      C      -1.6511150871     1.4187838163     1.2020938673
   12      O      -0.6221150871     0.9017838163     0.7690938673
   13      N      -1.9181150871     1.4557838163     2.4990938673
   14      H      -3.2001150871     1.1717838163    -0.2269061327
   15      H      -2.1521150871     2.5297838163    -0.5619061327
   16      H      -1.2461150871     1.0257838163     3.1220938673
   17      H      -2.7781150871     1.8407838163     2.8780938673
   18      H      -3.4283350871     2.6614438163     0.6973538673
 ----------------------------------------------------------------
 Nuclear Repulsion Energy =         353.61924754 hartrees
 There are       32 alpha and       32 beta electrons
 Requested basis set is def2-TZVPD
 There are 156 shells and 392 basis functions

 Total QAlloc Memory Limit  96000 MB
 Mega-Array Size      1956 MB
 MEM_STATIC part      2000 MB
 Discretize the solute cavity surface with Lebedev spheres
	Using 302 Lebedev grid points for each H atom
	Using 302 Lebedev grid points for other atoms
	Atomic van der Waals radii will be scaled by 1.20
 Remove points where switching function is < 1.0e-08
 Keep 2286 surface tesserae and discard 3150 interior tesserae
 Molecular Surface Area = 232.459 Angst**2
 A cutoff of  1.0D-14 yielded  10700 shell pairs
 There are     67394 function pairs (     84247 Cartesian)
 Smallest overlap matrix eigenvalue = 9.11E-06

 Scale SEOQF with 1.000000e-01/1.000000e-01/1.000000e-01

 Standard Electronic Orientation quadrupole field applied
 Nucleus-field energy     =     0.0000000061 hartrees

 -----------------------------------------------------------------------
  General SCF calculation program by
  Eric Jon Sundstrom, Paul Horn, Yuezhi Mao, Dmitri Zuev, Alec White,
  David Stuck, Shaama M.S., Shane Yost, Joonho Lee, David Small,
  Daniel Levine, Susi Lehtola, Hugh Burton, Evgeny Epifanovsky
 -----------------------------------------------------------------------
================================================================
                 ALMO-EDA with the EDA2 driver                  
================================================================
 The second-generation ALMO-EDA (for DFT):                      
 P. R. Horn, Y. Mao and M. Head-Gordon, PCCP, 18, 23067 (2016)  
 Decomposition of the frozen energy:                            
 P. R. Horn, Y. Mao and M. Head-Gordon, JCP, 144, 114107 (2016) 
 FERF model for polarization:                                   
 P. R. Horn and M. Head-Gordon, JCP, 143, 114111 (2015)         
Using eda2 option set 1
Option set summary: Frozen orbital wavefunction, initial wavefunction decomposition, and nDQ polarization.
--------------------------------
Printing EDA Options
--------------------------------
eda_child_super_basis      0
fragmo_guess_mode          0
child_mp                   1
child_mp_orders            232
cls_elec                   1
cls_disp                   0
scfmi_mode                 1
scfmi_occs                 0
scfmi_virts                0
frz_relax                  0
frz_relax_method           0
dc_pen_start               0
dc_pen_conv                0
dc_pen_increment           0
dc_pen_steps               0
dc_pen_thresh_factor       0
dc_pen_pre_newton_thresh   0
frz_ortho_decomp           1
frz_ortho_decomp_conv      6
frgm_method                2
scfmi_freeze_ss            0
separate_rehyb             0
plot_diff_den              0
eda_nocv                   0
eda_vct_relax              1
disp_free_x                0
disp_free_c                0
eda_bsse                   0
eda_pct_a                  0
eda_covp                   0
--------------------------------
Attempting to make child job directory: /tmp/qchem64677//Frg1/
Attempting to make child job directory: /tmp/qchem64677//Frg2/
Creating input file /tmp/qchem64677/Frg1.input
using default PutDataFrgm: nothing
calling putenv with: QCSCRATCH=/tmp/qchem64677/ 
calling putenv with: QCLOCALSCR=/tmp/qchem64677/ 
Spawning Job For Fragment 0
                  Welcome to Q-Chem
     A Quantum Leap Into The Future Of Chemistry


 Q-Chem 5.2, Q-Chem, Inc., Pleasanton, CA (2019)

 License issued to: National Energy Research Scientific Computing Center

 Yihan Shao,  Zhengting Gan,  E. Epifanovsky,  A. T. B. Gilbert,  M. Wormit,  
 J. Kussmann,  A. W. Lange,  A. Behn,  Jia Deng,  Xintian Feng,  D. Ghosh,  
 M. Goldey,  P. R. Horn,  L. D. Jacobson,  I. Kaliman,  T. Kus,  A. Landau,  
 Jie Liu,  E. I. Proynov,  R. M. Richard,  R. P. Steele,  E. J. Sundstrom,  
 H. L. Woodcock III,  P. M. Zimmerman,  D. Zuev,  B. Albrecht,  E. Alguire,  
 S. A. Baeppler,  D. Barton,  Z. Benda,  Y. A. Bernard,  E. J. Berquist,  
 K. B. Bravaya,  H. Burton,  D. Casanova,  Chun-Min Chang,  Yunqing Chen,  
 A. Chien,  K. D. Closser,  M. P. Coons,  S. Coriani,  S. Dasgupta,  
 A. L. Dempwolff,  M. Diedenhofen,  Hainam Do,  R. G. Edgar,  Po-Tung Fang,  
 S. Faraji,  S. Fatehi,  Qingguo Feng,  K. D. Fenk,  J. Fosso-Tande,  
 J. Gayvert,  Qinghui Ge,  A. Ghysels,  G. Gidofalvi,  J. Gomes,  
 J. Gonthier,  A. Gunina,  D. Hait,  M. W. D. Hanson-Heine,  
 P. H. P. Harbach,  A. W. Hauser,  M. F. Herbst,  J. E. Herr,  
 E. G. Hohenstein,  Z. C. Holden,  Kerwin Hui,  B. C. Huynh,  T.-C. Jagau,  
 Hyunjun Ji,  B. Kaduk,  K. Khistyaev,  Jaehoon Kim,  P. Klunzinger,  K. Koh,  
 D. Kosenkov,  L. Koulias,  T. Kowalczyk,  C. M. Krauter,  A. Kunitsa,  
 Ka Un Lao,  A. Laurent,  K. V. Lawler,  Joonho Lee,  D. Lefrancois,  
 S. Lehtola,  D. S. Levine,  Yi-Pei Li,  You-Sheng Lin,  Fenglai Liu,  
 E. Livshits,  A. Luenser,  P. Manohar,  E. Mansoor,  S. F. Manzer,  
 Shan-Ping Mao,  Yuezhi Mao,  N. Mardirossian,  A. V. Marenich,  
 T. Markovich,  L. A. Martinez-Martinez,  S. A. Maurer,  N. J. Mayhall,  
 S. C. McKenzie,  J.-M. Mewes,  P. Morgante,  A. F. Morrison,  
 J. W. Mullinax,  K. Nanda,  T. S. Nguyen-Beck,  R. Olivares-Amaya,  
 J. A. Parkhill,  Zheng Pei,  T. M. Perrine,  F. Plasser,  P. Pokhilko,  
 S. Prager,  A. Prociuk,  E. Ramos,  D. R. Rehn,  F. Rob,  M. Scheurer,  
 M. Schneider,  N. Sergueev,  S. M. Sharada,  S. Sharma,  D. W. Small,  
 T. Stauch,  T. Stein,  Yu-Chuan Su,  A. J. W. Thom,  A. Tkatchenko,  
 T. Tsuchimochi,  N. M. Tubman,  L. Vogt,  M. L. Vidal,  O. Vydrov,  
 M. A. Watson,  J. Wenzel,  M. de Wergifosse,  T. A. Wesolowski,  A. White,  
 J. Witte,  A. Yamada,  Jun Yang,  K. Yao,  S. Yeganeh,  S. R. Yost,  
 Zhi-Qiang You,  A. Zech,  Igor Ying Zhang,  Xing Zhang,  Yan Zhao,  
 Ying Zhu,  B. R. Brooks,  G. K. L. Chan,  C. J. Cramer,  M. S. Gordon,  
 W. J. Hehre,  A. Klamt,  M. W. Schmidt,  C. D. Sherrill,  D. G. Truhlar,  
 A. Aspuru-Guzik,  R. Baer,  A. T. Bell,  N. A. Besley,  Jeng-Da Chai,  
 A. E. DePrince, III,  R. A. DiStasio Jr.,  A. Dreuw,  B. D. Dunietz,  
 T. R. Furlani,  Chao-Ping Hsu,  Yousung Jung,  Jing Kong,  D. S. Lambrecht,  
 WanZhen Liang,  C. Ochsenfeld,  V. A. Rassolov,  L. V. Slipchenko,  
 J. E. Subotnik,  T. Van Voorhis,  J. M. Herbert,  A. I. Krylov,  
 P. M. W. Gill,  M. Head-Gordon

 Contributors to earlier versions of Q-Chem not listed above: 
 R. D. Adamson,  B. Austin,  J. Baker,  G. J. O. Beran,  K. Brandhorst,  
 S. T. Brown,  E. F. C. Byrd,  A. K. Chakraborty,  C.-L. Cheng,  
 Siu Hung Chien,  D. M. Chipman,  D. L. Crittenden,  H. Dachsel,  
 R. J. Doerksen,  A. D. Dutoi,  L. Fusti-Molnar,  W. A. Goddard III,  
 A. Golubeva-Zadorozhnaya,  S. R. Gwaltney,  G. Hawkins,  A. Heyden,  
 S. Hirata,  G. Kedziora,  F. J. Keil,  C. Kelley,  Jihan Kim,  R. A. King,  
 R. Z. Khaliullin,  P. P. Korambath,  W. Kurlancheek,  A. M. Lee,  M. S. Lee,  
 S. V. Levchenko,  Ching Yeh Lin,  D. Liotard,  R. C. Lochan,  I. Lotan,  
 P. E. Maslen,  N. Nair,  D. P. O'Neill,  D. Neuhauser,  E. Neuscamman,  
 C. M. Oana,  R. Olson,  B. Peters,  R. Peverati,  P. A. Pieniazek,  
 Y. M. Rhee,  J. Ritchie,  M. A. Rohrdanz,  E. Rosta,  N. J. Russ,  
 H. F. Schaefer III,  N. E. Schultz,  N. Shenvi,  A. C. Simmonett,  A. Sodt,  
 D. Stuck,  K. S. Thanthiriwatte,  V. Vanovschi,  Tao Wang,  A. Warshel,  
 C. F. Williams,  Q. Wu,  X. Xu,  W. Zhang

 Please cite Q-Chem as follows:
 Y. Shao et al., Mol. Phys. 113, 184-215 (2015)
 DOI: 10.1080/00268976.2014.952696

 Q-Chem 5.2.0 for Intel X86 EM64T Linux

 Parts of Q-Chem use Armadillo 8.300.2 (Tropical Shenanigans).
 http://arma.sourceforge.net/

 Q-Chem begins on Sun Sep 26 03:16:38 2021  

Host: cori01
0

     Scratch files written to /tmp/qchem64677//Frg1//
 May1019 |scratch|qcdevops|jenkins|workspace|build_RNUM -1
Processing $rem in /global/common/cori/software/qchem/5.2/config/preferences:
	 MEM_TOTAL  96000 
NAlpha2: 32
NElect   32
Mult     1
Symmetry turned off for PCM/SM12/SMD calculation

Checking the input file for inconsistencies... 	...done.

--------------------------------------------------------------
User input:
--------------------------------------------------------------
$molecule
0 1
 6	2.8258849129	-0.6952161837	-0.6179061327
 6	1.7088849129	-1.5072161837	-1.2419061327
 8	1.9538849129	-2.4292161837	-2.0179061327
 7	0.4718849129	-1.1702161837	-0.9149061327
 1	-0.2851150871	-1.6902161837	-1.3309061327
 1	0.2818849129	-0.3852161837	-0.2949061327
 1	2.4128849129	0.0517838163	0.0620938673
 1	3.3158849129	-0.1622161837	-1.4339061327
 1	3.5544849129	-1.3217861837	-0.0825961327
$end
$rem
EDA2		1
METHOD		WB97X-V
BASIS		DEF2-TZVPD
XC_GRID		000099000590
NL_GRID		1
UNRESTRICTED		FALSE
MAX_SCF_CYCLES		200
SYMMETRY		FALSE
SYM_IGNORE		TRUE
BASIS_LIN_DEP_THRESH		6
THRESH		14
SCF_CONVERGENCE		8
SCF_PRINT_FRGM		TRUE
SOLVENT_METHOD		PCM
!required keywords
JOBTYPE		SP
SYM_IGNORE		TRUE
SUBSYSTEM		TRUE
GEN_SCFMAN		TRUE
CHILD_INSTRUCTION		2
SYM_IGNORE		TRUE
SCFMI		0
RI_K 0		
PARI_K 0		
MIN_PARI_K 0		
IARI_K 0		
OCC_RI_K 0		
PURECART		1111
MEM_STATIC		2000
MEM_TOTAL		96000
GUI		0
CHILD_MP		1
CHILD_MP_ORDERS		232
FRZ_RELAX		0
FRZ_RELAX_METHOD		0
EDA_CLS_ELEC		1
EDA_CLS_DISP		0
FRZ_ORTHO_DECOMP		1
EDA2		FALSE
FRGM_METHOD		FALSE
CIS_N_ROOTS  0
LOCAL_CIS    0
CIS_RLX_DNS  1
$end
$pcm
THEORY                  CPCM
METHOD                  SWIG
SOLVER                  INVERSION
RADII                   UFF
HPOINTS                 302
HEAVYPOINTS             302
PRINTLEVEL              0
$end
$solvent
DIELECTRIC              78.390000 ! water
$end
--------------------------------------------------------------
 ----------------------------------------------------------------
             Standard Nuclear Orientation (Angstroms)
    I     Atom           X                Y                Z
 ----------------------------------------------------------------
    1      C       2.8258849129    -0.6952161837    -0.6179061327
    2      C       1.7088849129    -1.5072161837    -1.2419061327
    3      O       1.9538849129    -2.4292161837    -2.0179061327
    4      N       0.4718849129    -1.1702161837    -0.9149061327
    5      H      -0.2851150871    -1.6902161837    -1.3309061327
    6      H       0.2818849129    -0.3852161837    -0.2949061327
    7      H       2.4128849129     0.0517838163     0.0620938673
    8      H       3.3158849129    -0.1622161837    -1.4339061327
    9      H       3.5544849129    -1.3217861837    -0.0825961327
 ----------------------------------------------------------------
 Nuclear Repulsion Energy =         122.33393713 hartrees
 There are       16 alpha and       16 beta electrons
 Requested basis set is def2-TZVPD
 There are 78 shells and 196 basis functions

 Total QAlloc Memory Limit  96000 MB
 Mega-Array Size      1956 MB
 MEM_STATIC part      2000 MB
 Discretize the solute cavity surface with Lebedev spheres
	Using 302 Lebedev grid points for each H atom
	Using 302 Lebedev grid points for other atoms
	Atomic van der Waals radii will be scaled by 1.20
 Remove points where switching function is < 1.0e-08
 Keep 1220 surface tesserae and discard 1498 interior tesserae
 Molecular Surface Area = 128.133 Angst**2

                       Distance Matrix (Angstroms)
             C (  1)   C (  2)   O (  3)   N (  4)   H (  5)   H (  6)
   C (  2)  1.515391
   O (  3)  2.393144  1.229750
   N (  4)  2.419742  1.323128  2.235624
   H (  5)  3.343159  2.004357  2.455852  1.008219
   H (  6)  2.583092  2.047443  3.153133  1.018197  1.760060
   H (  7)  1.091319  2.150933  3.269930  2.493049  3.500602  2.204445
   H (  8)  1.090892  2.104362  2.708392  3.061660  3.913131  3.248416
   H (  9)  1.100002  2.187378  2.744767  3.196582  4.054201  3.410594
             H (  7)   H (  8)
   H (  8)  1.760460
   H (  9)  1.791893  1.796544
 
 A cutoff of  1.0D-14 yielded   3053 shell pairs
 There are     19543 function pairs (     24701 Cartesian)
 Smallest overlap matrix eigenvalue = 1.11E-05

 Scale SEOQF with 1.000000e-01/1.000000e-01/1.000000e-01

 Standard Electronic Orientation quadrupole field applied
 Nucleus-field energy     =     0.0000000043 hartrees
 Guess from superposition of atomic densities
 Warning:  Energy on first SCF cycle will be non-variational
 SAD guess density has 31.604610 electrons

 -----------------------------------------------------------------------
  General SCF calculation program by
  Eric Jon Sundstrom, Paul Horn, Yuezhi Mao, Dmitri Zuev, Alec White,
  David Stuck, Shaama M.S., Shane Yost, Joonho Lee, David Small,
  Daniel Levine, Susi Lehtola, Hugh Burton, Evgeny Epifanovsky
 -----------------------------------------------------------------------
 Exchange:     0.1670 Hartree-Fock + 1.0000 wB97X-V + LR-HF
 Correlation:  1.0000 wB97X-V
 Using Euler-Maclaurin-Lebedev (99,590) quadrature formula
 Nonlocal Correlation:  VV10 with C = 0.0100 and b = 6.00 and scale = 1.00000
 Grid used for NLC:  SG-1 standard quadrature
Energy prior to optimization (guess energy) = -208.704761754233
Begin Timing: Total SCF Calculation
begin iterations for algorithm: DIIS         
the SCF tolerance is set to 1.00e-08
    1    -208.7047617542      1.25e-02     00000 
    2    -208.3220534310      1.55e-02     00000 
    3    -209.2232835392      2.48e-03     00000 
    4    -209.2431221135      8.28e-04     00000 
    5    -209.2458322897      1.24e-04     00000 
    6    -209.2459307291      4.92e-05     00000 
    7    -209.2459481099      1.11e-05     00000 
    8    -209.2459492860      2.13e-06     00000 
    9    -209.2459493783      7.70e-07     00000 
   10    -209.2459493838      3.20e-07     00000 
   11    -209.2459493848      7.04e-08     00000 
   12    -209.2459493849      1.70e-08     00000 
   13    -209.2459493849      4.46e-09     00000 Convergence criterion met
Timing for Total SCF: 359.00s (wall), 708.35s (cpu)

************** Final PCM Free Energy Summary **************
 G_electrostatic  =      -0.01229334 hartree =      -7.71418477 kcal/mol
 G_cavitation     =       0.00000000 hartree =       0.00000000 kcal/mol
 G_dispersion     =       0.00000000 hartree =       0.00000000 kcal/mol
 G_repulsion      =       0.00000000 hartree =       0.00000000 kcal/mol
 --------------------------------------------------
 Non-electrostatic Free Energy =       0.00000000 hartree =       0.00000000 kcal/mol
 Total                         =      -0.01229334 hartree =      -7.71418477 kcal/mol
 --------------------------------------------------
 SCF Energy (H0 + V/2)                       =    -209.24594938 
 Solute Internal Energy (H0)                 =    -209.23365605 
 Total Free Energy (H0 + V/2 + non-elec)     =    -209.24594938 hartree
                                             = -131303.81500738 kcal/mol
***********************************************************

E_pcm = -0.0122933360
Multipole orders to be included
        2
        3
computing dipole RHS
computing quadrupole RHS
total number of RHS in solve_reponses: 8
RHS batch sizes
        8
Beginning Block Conjugate Gradient Iterations. Batch Number: 0
computing hessian-vector products by finite difference
              1      5.60e-01     00000 Conjugate Gradient Iteration
computing hessian-vector products by finite difference
              2      1.80e-01     00000 Conjugate Gradient Iteration
computing hessian-vector products by finite difference
              3      4.87e-02     00000 Conjugate Gradient Iteration
computing hessian-vector products by finite difference
              4      1.17e-02     00000 Conjugate Gradient Iteration
computing hessian-vector products by finite difference
              5      1.69e-03     00000 Conjugate Gradient Iteration
computing hessian-vector products by finite difference
              6      3.66e-04     00000 Conjugate Gradient Iteration
computing hessian-vector products by finite difference
              7      5.41e-05     00000 Conjugate Gradient Iteration
computing hessian-vector products by finite difference
              8      6.30e-06     00000 Conjugate Gradient Iteration
computing hessian-vector products by finite difference
              9      8.73e-07     00000 Conjugate Gradient Iteration
computing hessian-vector products by finite difference
             10      1.00e-07     00000 Conjugate Gradient Iteration
computing hessian-vector products by finite difference
             11      1.90e-08     00000 Conjugate Gradient Iteration
computing hessian-vector products by finite difference
             12      2.84e-09     00000 CG Converged
batch 0 complete
Done Calculating Responses
TESTING ORTHOGONALIZATION OF MULTIPOLE BASIS
Multipole virts passed orthogonality test
Virts Per Order
        48
        80
 
 --------------------------------------------------------------
 
                    Orbital Energies (a.u.)
 --------------------------------------------------------------
 
 Alpha MOs
 -- Occupied --
-19.1771 -14.4363 -10.3771 -10.2734  -1.1714  -1.0470  -0.8713  -0.7153
 -0.6617  -0.5899  -0.5693  -0.5169  -0.5074  -0.4831  -0.3831  -0.3678
 -- Virtual --
  0.0595   0.0914   0.0933   0.0970   0.1278   0.1296   0.1310   0.1447
  0.1754   0.1837   0.1849   0.2067   0.2239   0.2442   0.2508   0.2574
  0.2617   0.2693   0.2943   0.3078   0.3246   0.3334   0.3397   0.3502
  0.3553   0.3609   0.3691   0.3730   0.3796   0.3951   0.4144   0.4261
  0.4352   0.4569   0.4598   0.4741   0.4758   0.4874   0.4991   0.5045
  0.5109   0.5306   0.5556   0.5621   0.5821   0.5853   0.6169   0.6332
  0.6392   0.6495   0.6734   0.6915   0.7073   0.7252   0.7317   0.7606
  0.7669   0.7759   0.7928   0.8027   0.8189   0.8305   0.8484   0.8799
  0.9036   0.9592   0.9632   0.9936   1.0177   1.0228   1.0571   1.1079
  1.1173   1.1666   1.2243   1.2361   1.2893   1.3126   1.3316   1.3871
  1.4698   1.4903   1.5257   1.6095   1.6791   1.7235   1.7279   1.8036
  1.8453   1.8725   1.8758   1.9123   1.9304   1.9568   1.9765   2.0457
  2.0495   2.0775   2.1216   2.1649   2.1930   2.2241   2.3159   2.3717
  2.4161   2.4349   2.4700   2.4743   2.5143   2.5519   2.6017   2.6292
  2.6358   2.6816   2.7804   2.7936   2.8532   2.8883   2.9453   2.9697
  3.0648   3.1087   3.1178   3.1591   3.1977   3.2136   3.2594   3.3024
  3.3099   3.3352   3.3888   3.4129   3.4626   3.4936   3.5354   3.5564
  3.5845   3.6786   3.6862   3.8159   3.8543   3.9393   4.0145   4.0370
  4.0682   4.2069   4.3211   4.4117   4.4494   4.6078   4.6410   4.6640
  4.7724   4.8884   4.9001   4.9213   5.1398   5.1754   5.2648   5.3454
  5.3788   5.3988   5.4040   5.4902   5.5342   5.7724   5.9204   6.1412
  6.2476   6.5290   6.6432   6.7446   6.8388   6.9709   7.2258   7.3282
 22.5814  23.5877  32.4038  44.2897
 --------------------------------------------------------------
 
          Ground-State Mulliken Net Atomic Charges

     Atom                 Charge (a.u.)
  ----------------------------------------
      1 C                    -0.546950
      2 C                     0.387566
      3 O                    -0.585002
      4 N                    -0.256746
      5 H                     0.201725
      6 H                     0.203829
      7 H                     0.219850
      8 H                     0.174084
      9 H                     0.201644
  ----------------------------------------
  Sum of atomic charges =     0.000000

 -----------------------------------------------------------------
                    Cartesian Multipole Moments
 -----------------------------------------------------------------
    Charge (ESU x 10^10)
                -0.0000
    Dipole Moment (Debye)
         X      -2.0753      Y       3.7000      Z       3.0128
       Tot       5.2032
    Quadrupole Moments (Debye-Ang)
        XX     -26.4220     XY       9.9072     YY     -36.9013
        XZ       8.1093     YZ      -9.7803     ZZ     -33.2575
    Octopole Moments (Debye-Ang^2)
       XXX    -132.0111    XXY      50.5498    XYY     -72.9086
       YYY     137.5728    XXZ      42.5861    XYZ     -25.5453
       YYZ      56.8682    XZZ     -63.1216    YZZ      58.4107
       ZZZ     105.4854
    Hexadecapole Moments (Debye-Ang^3)
      XXXX    -619.0317   XXXY     204.2993   XXYY    -222.2295
      XYYY     251.5517   YYYY    -481.2406   XXXZ     177.1515
      XXYZ    -100.1522   XYYZ     116.4677   YYYZ    -223.7696
      XXZZ    -185.7929   XYZZ     114.0719   YYZZ    -174.7060
      XZZZ     189.0590   YZZZ    -201.3156   ZZZZ    -320.3114
 -----------------------------------------------------------------
Archival summary:
1\1\nid00569\SP\ProcedureUnspecified\BasisUnspecified\1125\meili\SunSep2605:04:232021SunSep2605:04:232021\0\\#,ProcedureUnspecified,BasisUnspecified,\\0,1\C\O,1,1.22975\N,1,1.32313,2,122.22\H,3,1.00822,1,117.945,2,-0.601863,0\H,3,1.0182,1,121.42,2,-177.973,0\C,1,1.51539,2,120.979,3,-179.693,0\H,6,1.09089,1,106.552,2,65.4226,0\H,6,1.09132,1,110.145,2,-178.205,0\H,6,1.1,1,112.545,2,-55.431,0\\\@

 Total job time:  6465.73s(wall), 12761.06s(cpu) 
 Sun Sep 26 05:04:23 2021

        *************************************************************
        *                                                           *
        *  Thank you very much for using Q-Chem.  Have a nice day.  *
        *                                                           *
        *************************************************************


Done Job For Fragment 0
calling putenv with: QCSCRATCH=/global/cscratch1/sd/meili 
calling putenv with: QCLOCALSCR=/tmp 
calling putenv with: QCTHREADS=32 
Creating input file /tmp/qchem64677/Frg2.input
using default PutDataFrgm: nothing
calling putenv with: QCSCRATCH=/tmp/qchem64677/ 
calling putenv with: QCLOCALSCR=/tmp/qchem64677/ 
Spawning Job For Fragment 1
                  Welcome to Q-Chem
     A Quantum Leap Into The Future Of Chemistry


 Q-Chem 5.2, Q-Chem, Inc., Pleasanton, CA (2019)

 License issued to: National Energy Research Scientific Computing Center

 Yihan Shao,  Zhengting Gan,  E. Epifanovsky,  A. T. B. Gilbert,  M. Wormit,  
 J. Kussmann,  A. W. Lange,  A. Behn,  Jia Deng,  Xintian Feng,  D. Ghosh,  
 M. Goldey,  P. R. Horn,  L. D. Jacobson,  I. Kaliman,  T. Kus,  A. Landau,  
 Jie Liu,  E. I. Proynov,  R. M. Richard,  R. P. Steele,  E. J. Sundstrom,  
 H. L. Woodcock III,  P. M. Zimmerman,  D. Zuev,  B. Albrecht,  E. Alguire,  
 S. A. Baeppler,  D. Barton,  Z. Benda,  Y. A. Bernard,  E. J. Berquist,  
 K. B. Bravaya,  H. Burton,  D. Casanova,  Chun-Min Chang,  Yunqing Chen,  
 A. Chien,  K. D. Closser,  M. P. Coons,  S. Coriani,  S. Dasgupta,  
 A. L. Dempwolff,  M. Diedenhofen,  Hainam Do,  R. G. Edgar,  Po-Tung Fang,  
 S. Faraji,  S. Fatehi,  Qingguo Feng,  K. D. Fenk,  J. Fosso-Tande,  
 J. Gayvert,  Qinghui Ge,  A. Ghysels,  G. Gidofalvi,  J. Gomes,  
 J. Gonthier,  A. Gunina,  D. Hait,  M. W. D. Hanson-Heine,  
 P. H. P. Harbach,  A. W. Hauser,  M. F. Herbst,  J. E. Herr,  
 E. G. Hohenstein,  Z. C. Holden,  Kerwin Hui,  B. C. Huynh,  T.-C. Jagau,  
 Hyunjun Ji,  B. Kaduk,  K. Khistyaev,  Jaehoon Kim,  P. Klunzinger,  K. Koh,  
 D. Kosenkov,  L. Koulias,  T. Kowalczyk,  C. M. Krauter,  A. Kunitsa,  
 Ka Un Lao,  A. Laurent,  K. V. Lawler,  Joonho Lee,  D. Lefrancois,  
 S. Lehtola,  D. S. Levine,  Yi-Pei Li,  You-Sheng Lin,  Fenglai Liu,  
 E. Livshits,  A. Luenser,  P. Manohar,  E. Mansoor,  S. F. Manzer,  
 Shan-Ping Mao,  Yuezhi Mao,  N. Mardirossian,  A. V. Marenich,  
 T. Markovich,  L. A. Martinez-Martinez,  S. A. Maurer,  N. J. Mayhall,  
 S. C. McKenzie,  J.-M. Mewes,  P. Morgante,  A. F. Morrison,  
 J. W. Mullinax,  K. Nanda,  T. S. Nguyen-Beck,  R. Olivares-Amaya,  
 J. A. Parkhill,  Zheng Pei,  T. M. Perrine,  F. Plasser,  P. Pokhilko,  
 S. Prager,  A. Prociuk,  E. Ramos,  D. R. Rehn,  F. Rob,  M. Scheurer,  
 M. Schneider,  N. Sergueev,  S. M. Sharada,  S. Sharma,  D. W. Small,  
 T. Stauch,  T. Stein,  Yu-Chuan Su,  A. J. W. Thom,  A. Tkatchenko,  
 T. Tsuchimochi,  N. M. Tubman,  L. Vogt,  M. L. Vidal,  O. Vydrov,  
 M. A. Watson,  J. Wenzel,  M. de Wergifosse,  T. A. Wesolowski,  A. White,  
 J. Witte,  A. Yamada,  Jun Yang,  K. Yao,  S. Yeganeh,  S. R. Yost,  
 Zhi-Qiang You,  A. Zech,  Igor Ying Zhang,  Xing Zhang,  Yan Zhao,  
 Ying Zhu,  B. R. Brooks,  G. K. L. Chan,  C. J. Cramer,  M. S. Gordon,  
 W. J. Hehre,  A. Klamt,  M. W. Schmidt,  C. D. Sherrill,  D. G. Truhlar,  
 A. Aspuru-Guzik,  R. Baer,  A. T. Bell,  N. A. Besley,  Jeng-Da Chai,  
 A. E. DePrince, III,  R. A. DiStasio Jr.,  A. Dreuw,  B. D. Dunietz,  
 T. R. Furlani,  Chao-Ping Hsu,  Yousung Jung,  Jing Kong,  D. S. Lambrecht,  
 WanZhen Liang,  C. Ochsenfeld,  V. A. Rassolov,  L. V. Slipchenko,  
 J. E. Subotnik,  T. Van Voorhis,  J. M. Herbert,  A. I. Krylov,  
 P. M. W. Gill,  M. Head-Gordon

 Contributors to earlier versions of Q-Chem not listed above: 
 R. D. Adamson,  B. Austin,  J. Baker,  G. J. O. Beran,  K. Brandhorst,  
 S. T. Brown,  E. F. C. Byrd,  A. K. Chakraborty,  C.-L. Cheng,  
 Siu Hung Chien,  D. M. Chipman,  D. L. Crittenden,  H. Dachsel,  
 R. J. Doerksen,  A. D. Dutoi,  L. Fusti-Molnar,  W. A. Goddard III,  
 A. Golubeva-Zadorozhnaya,  S. R. Gwaltney,  G. Hawkins,  A. Heyden,  
 S. Hirata,  G. Kedziora,  F. J. Keil,  C. Kelley,  Jihan Kim,  R. A. King,  
 R. Z. Khaliullin,  P. P. Korambath,  W. Kurlancheek,  A. M. Lee,  M. S. Lee,  
 S. V. Levchenko,  Ching Yeh Lin,  D. Liotard,  R. C. Lochan,  I. Lotan,  
 P. E. Maslen,  N. Nair,  D. P. O'Neill,  D. Neuhauser,  E. Neuscamman,  
 C. M. Oana,  R. Olson,  B. Peters,  R. Peverati,  P. A. Pieniazek,  
 Y. M. Rhee,  J. Ritchie,  M. A. Rohrdanz,  E. Rosta,  N. J. Russ,  
 H. F. Schaefer III,  N. E. Schultz,  N. Shenvi,  A. C. Simmonett,  A. Sodt,  
 D. Stuck,  K. S. Thanthiriwatte,  V. Vanovschi,  Tao Wang,  A. Warshel,  
 C. F. Williams,  Q. Wu,  X. Xu,  W. Zhang

 Please cite Q-Chem as follows:
 Y. Shao et al., Mol. Phys. 113, 184-215 (2015)
 DOI: 10.1080/00268976.2014.952696

 Q-Chem 5.2.0 for Intel X86 EM64T Linux

 Parts of Q-Chem use Armadillo 8.300.2 (Tropical Shenanigans).
 http://arma.sourceforge.net/

 Q-Chem begins on Sun Sep 26 05:04:25 2021  

Host: cori01
0

     Scratch files written to /tmp/qchem64677//Frg2//
 May1019 |scratch|qcdevops|jenkins|workspace|build_RNUM -1
Processing $rem in /global/common/cori/software/qchem/5.2/config/preferences:
	 MEM_TOTAL  96000 
NAlpha2: 32
NElect   32
Mult     1
Symmetry turned off for PCM/SM12/SMD calculation

Checking the input file for inconsistencies... 	...done.

--------------------------------------------------------------
User input:
--------------------------------------------------------------
$molecule
0 1
 6	-2.6751150871	2.0057838163	0.2360938673
 6	-1.6511150871	1.4187838163	1.2020938673
 8	-0.6221150871	0.9017838163	0.7690938673
 7	-1.9181150871	1.4557838163	2.4990938673
 1	-3.2001150871	1.1717838163	-0.2269061327
 1	-2.1521150871	2.5297838163	-0.5619061327
 1	-1.2461150871	1.0257838163	3.1220938673
 1	-2.7781150871	1.8407838163	2.8780938673
 1	-3.4283350871	2.6614438163	0.6973538673
$end
$rem
EDA2		1
METHOD		WB97X-V
BASIS		DEF2-TZVPD
XC_GRID		000099000590
NL_GRID		1
UNRESTRICTED		FALSE
MAX_SCF_CYCLES		200
SYMMETRY		FALSE
SYM_IGNORE		TRUE
BASIS_LIN_DEP_THRESH		6
THRESH		14
SCF_CONVERGENCE		8
SCF_PRINT_FRGM		TRUE
SOLVENT_METHOD		PCM
!required keywords
JOBTYPE		SP
SYM_IGNORE		TRUE
SUBSYSTEM		TRUE
GEN_SCFMAN		TRUE
CHILD_INSTRUCTION		2
SYM_IGNORE		TRUE
SCFMI		0
RI_K 0		
PARI_K 0		
MIN_PARI_K 0		
IARI_K 0		
OCC_RI_K 0		
PURECART		1111
MEM_STATIC		2000
MEM_TOTAL		96000
GUI		0
CHILD_MP		1
CHILD_MP_ORDERS		232
FRZ_RELAX		0
FRZ_RELAX_METHOD		0
EDA_CLS_ELEC		1
EDA_CLS_DISP		0
FRZ_ORTHO_DECOMP		1
EDA2		FALSE
FRGM_METHOD		FALSE
CIS_N_ROOTS  0
LOCAL_CIS    0
CIS_RLX_DNS  1
$end
$pcm
THEORY                  CPCM
METHOD                  SWIG
SOLVER                  INVERSION
RADII                   UFF
HPOINTS                 302
HEAVYPOINTS             302
PRINTLEVEL              0
$end
$solvent
DIELECTRIC              78.390000 ! water
$end
--------------------------------------------------------------
 ----------------------------------------------------------------
             Standard Nuclear Orientation (Angstroms)
    I     Atom           X                Y                Z
 ----------------------------------------------------------------
    1      C      -2.6751150871     2.0057838163     0.2360938673
    2      C      -1.6511150871     1.4187838163     1.2020938673
    3      O      -0.6221150871     0.9017838163     0.7690938673
    4      N      -1.9181150871     1.4557838163     2.4990938673
    5      H      -3.2001150871     1.1717838163    -0.2269061327
    6      H      -2.1521150871     2.5297838163    -0.5619061327
    7      H      -1.2461150871     1.0257838163     3.1220938673
    8      H      -2.7781150871     1.8407838163     2.8780938673
    9      H      -3.4283350871     2.6614438163     0.6973538673
 ----------------------------------------------------------------
 Nuclear Repulsion Energy =         122.00300219 hartrees
 There are       16 alpha and       16 beta electrons
 Requested basis set is def2-TZVPD
 There are 78 shells and 196 basis functions

 Total QAlloc Memory Limit  96000 MB
 Mega-Array Size      1956 MB
 MEM_STATIC part      2000 MB
 Discretize the solute cavity surface with Lebedev spheres
	Using 302 Lebedev grid points for each H atom
	Using 302 Lebedev grid points for other atoms
	Atomic van der Waals radii will be scaled by 1.20
 Remove points where switching function is < 1.0e-08
 Keep 1213 surface tesserae and discard 1505 interior tesserae
 Molecular Surface Area = 129.061 Angst**2

                       Distance Matrix (Angstroms)
             C (  1)   C (  2)   O (  3)   N (  4)   H (  5)   H (  6)
   C (  2)  1.525222
   O (  3)  2.391174  1.230292
   N (  4)  2.448820  1.324714  2.231464
   H (  5)  1.088830  2.121898  2.776869  3.025765
   H (  6)  1.088535  2.144066  2.600547  3.252377  1.747768
   H (  7)  3.366220  2.001218  2.437491  1.012232  3.880107  4.081018
   H (  8)  2.649150  2.063296  3.158787  1.015611  3.204164  3.563734
   H (  9)  1.099996  2.226539  3.313068  2.642092  1.767888  1.797723
             H (  7)   H (  8)
   H (  8)  1.752366
   H (  9)  3.649223  2.419069
 
 A cutoff of  1.0D-14 yielded   3054 shell pairs
 There are     19544 function pairs (     24702 Cartesian)
 Smallest overlap matrix eigenvalue = 1.16E-05

 Scale SEOQF with 1.000000e-01/1.000000e-01/1.000000e-01

 Standard Electronic Orientation quadrupole field applied
 Nucleus-field energy     =     0.0000000017 hartrees
 Guess from superposition of atomic densities
 Warning:  Energy on first SCF cycle will be non-variational
 SAD guess density has 31.604610 electrons

 -----------------------------------------------------------------------
  General SCF calculation program by
  Eric Jon Sundstrom, Paul Horn, Yuezhi Mao, Dmitri Zuev, Alec White,
  David Stuck, Shaama M.S., Shane Yost, Joonho Lee, David Small,
  Daniel Levine, Susi Lehtola, Hugh Burton, Evgeny Epifanovsky
 -----------------------------------------------------------------------
 Exchange:     0.1670 Hartree-Fock + 1.0000 wB97X-V + LR-HF
 Correlation:  1.0000 wB97X-V
 Using Euler-Maclaurin-Lebedev (99,590) quadrature formula
 Nonlocal Correlation:  VV10 with C = 0.0100 and b = 6.00 and scale = 1.00000
 Grid used for NLC:  SG-1 standard quadrature
Energy prior to optimization (guess energy) = -208.705248919350
Begin Timing: Total SCF Calculation
begin iterations for algorithm: DIIS         
the SCF tolerance is set to 1.00e-08
    1    -208.7052489194      1.26e-02     00000 
    2    -208.3136091460      1.56e-02     00000 
    3    -209.2234983745      2.50e-03     00000 
    4    -209.2435312589      8.32e-04     00000 
    5    -209.2462722508      1.25e-04     00000 
    6    -209.2463723967      4.95e-05     00000 
    7    -209.2463899778      1.11e-05     00000 
    8    -209.2463911584      2.11e-06     00000 
    9    -209.2463912489      7.44e-07     00000 
   10    -209.2463912542      3.12e-07     00000 
   11    -209.2463912551      7.09e-08     00000 
   12    -209.2463912552      1.75e-08     00000 
   13    -209.2463912552      4.56e-09     00000 Convergence criterion met
Timing for Total SCF: 385.00s (wall), 751.67s (cpu)

************** Final PCM Free Energy Summary **************
 G_electrostatic  =      -0.01201552 hartree =      -7.53985431 kcal/mol
 G_cavitation     =       0.00000000 hartree =       0.00000000 kcal/mol
 G_dispersion     =       0.00000000 hartree =       0.00000000 kcal/mol
 G_repulsion      =       0.00000000 hartree =       0.00000000 kcal/mol
 --------------------------------------------------
 Non-electrostatic Free Energy =       0.00000000 hartree =       0.00000000 kcal/mol
 Total                         =      -0.01201552 hartree =      -7.53985431 kcal/mol
 --------------------------------------------------
 SCF Energy (H0 + V/2)                       =    -209.24639126 
 Solute Internal Energy (H0)                 =    -209.23437573 
 Total Free Energy (H0 + V/2 + non-elec)     =    -209.24639126 hartree
                                             = -131304.09228518 kcal/mol
***********************************************************

E_pcm = -0.0120155227
Multipole orders to be included
        2
        3
computing dipole RHS
computing quadrupole RHS
total number of RHS in solve_reponses: 8
RHS batch sizes
        8
Beginning Block Conjugate Gradient Iterations. Batch Number: 0
computing hessian-vector products by finite difference
              1      5.77e-01     00000 Conjugate Gradient Iteration
computing hessian-vector products by finite difference
              2      1.89e-01     00000 Conjugate Gradient Iteration
computing hessian-vector products by finite difference
              3      5.19e-02     00000 Conjugate Gradient Iteration
computing hessian-vector products by finite difference
              4      1.29e-02     00000 Conjugate Gradient Iteration
computing hessian-vector products by finite difference
              5      1.88e-03     00000 Conjugate Gradient Iteration
computing hessian-vector products by finite difference
              6      3.85e-04     00000 Conjugate Gradient Iteration
computing hessian-vector products by finite difference
              7      5.73e-05     00000 Conjugate Gradient Iteration
computing hessian-vector products by finite difference
              8      6.84e-06     00000 Conjugate Gradient Iteration
computing hessian-vector products by finite difference
              9      9.76e-07     00000 Conjugate Gradient Iteration
computing hessian-vector products by finite difference
             10      1.48e-07     00000 Conjugate Gradient Iteration
computing hessian-vector products by finite difference
             11      2.55e-08     00000 Conjugate Gradient Iteration
computing hessian-vector products by finite difference
             12      3.29e-09     00000 CG Converged
batch 0 complete
Done Calculating Responses
TESTING ORTHOGONALIZATION OF MULTIPOLE BASIS
Multipole virts passed orthogonality test
Virts Per Order
        48
        80
 
 --------------------------------------------------------------
 
                    Orbital Energies (a.u.)
 --------------------------------------------------------------
 
 Alpha MOs
 -- Occupied --
-19.1777 -14.4361 -10.3790 -10.2731  -1.1717  -1.0450  -0.8691  -0.7168
 -0.6602  -0.5902  -0.5663  -0.5166  -0.5084  -0.4808  -0.3828  -0.3688
 -- Virtual --
  0.0595   0.0912   0.0937   0.0969   0.1273   0.1276   0.1343   0.1433
  0.1772   0.1788   0.1894   0.2067   0.2233   0.2430   0.2504   0.2557
  0.2626   0.2661   0.2928   0.3075   0.3284   0.3299   0.3398   0.3448
  0.3559   0.3604   0.3669   0.3708   0.3819   0.3958   0.4148   0.4223
  0.4343   0.4522   0.4585   0.4631   0.4734   0.4925   0.4942   0.5025
  0.5186   0.5288   0.5510   0.5649   0.5748   0.5899   0.6264   0.6293
  0.6312   0.6556   0.6767   0.6918   0.7118   0.7198   0.7288   0.7619
  0.7645   0.7810   0.7883   0.8099   0.8173   0.8311   0.8536   0.8776
  0.9199   0.9548   0.9610   0.9878   1.0125   1.0268   1.0567   1.0842
  1.1079   1.1613   1.2316   1.2404   1.2834   1.3164   1.3342   1.3759
  1.4759   1.4932   1.5085   1.6137   1.6788   1.7124   1.7295   1.8061
  1.8439   1.8620   1.8769   1.9147   1.9289   1.9595   1.9931   2.0435
  2.0467   2.0877   2.1182   2.1706   2.1930   2.2156   2.3200   2.3789
  2.3914   2.4200   2.4387   2.4653   2.5462   2.5723   2.5861   2.6273
  2.6567   2.6755   2.7759   2.7951   2.8353   2.9169   2.9475   2.9834
  3.0605   3.0998   3.1078   3.1564   3.1946   3.2187   3.2522   3.2805
  3.3082   3.3350   3.3720   3.4203   3.4491   3.4948   3.5336   3.5628
  3.6258   3.6517   3.6683   3.7929   3.8496   3.9339   3.9839   4.0193
  4.0684   4.2122   4.2983   4.4178   4.4976   4.5610   4.6117   4.6771
  4.7686   4.8791   4.8950   4.9221   5.1485   5.1765   5.2718   5.3521
  5.3623   5.3952   5.4053   5.4917   5.5277   5.7694   5.9086   6.1439
  6.2437   6.5238   6.6443   6.7356   6.8220   6.9733   7.2248   7.3246
 22.5746  23.5641  32.4046  44.2961
 --------------------------------------------------------------
 
          Ground-State Mulliken Net Atomic Charges

     Atom                 Charge (a.u.)
  ----------------------------------------
      1 C                    -0.578553
      2 C                     0.395517
      3 O                    -0.582637
      4 N                    -0.260372
      5 H                     0.184587
      6 H                     0.198454
      7 H                     0.207339
      8 H                     0.199147
      9 H                     0.236517
  ----------------------------------------
  Sum of atomic charges =     0.000000

 -----------------------------------------------------------------
                    Cartesian Multipole Moments
 -----------------------------------------------------------------
    Charge (ESU x 10^10)
                 0.0000
    Dipole Moment (Debye)
         X      -3.9929      Y       1.7099      Z       2.7613
       Tot       5.1470
    Quadrupole Moments (Debye-Ang)
        XX     -12.5295     XY      -8.1783     YY     -20.5676
        XZ      -8.1311     YZ       4.6783     ZZ     -12.9590
    Octopole Moments (Debye-Ang^2)
       XXX      98.2802    XXY     -12.2919    XYY      28.6322
       YYY    -102.0731    XXZ      -6.1405    XYZ     -15.8068
       YYZ     -22.0153    XZZ      19.4215    YZZ     -20.4611
       ZZZ     -44.1779
    Hexadecapole Moments (Debye-Ang^3)
      XXXX    -501.8429   XXXY     150.0512   XXYY    -115.5348
      XYYY     192.4744   YYYY    -371.9451   XXXZ      78.4276
      XXYZ      10.7991   XYYZ      20.2872   YYYZ    -110.9424
      XXZZ     -95.4683   XYZZ      29.1922   YYZZ    -102.3392
      XZZZ      65.3762   YZZZ     -65.9977   ZZZZ    -216.2858
 -----------------------------------------------------------------
Archival summary:
1\1\nid00569\SP\ProcedureUnspecified\BasisUnspecified\1125\meili\SunSep2606:55:072021SunSep2606:55:072021\0\\#,ProcedureUnspecified,BasisUnspecified,\\0,1\C\O,1,1.23029\N,1,1.32471,2,121.661\H,3,1.01223,1,117.189,2,-1.0115,0\H,3,1.01561,1,123.136,2,-177.294,0\C,1,1.52522,2,120.023,3,-178.397,0\H,6,1.08854,1,109.087,2,-40.6066,0\H,6,1.08883,1,107.352,2,74.7421,0\H,6,1.1,1,115.058,2,-165.358,0\\\@

 Total job time:  6643.03s(wall), 13131.57s(cpu) 
 Sun Sep 26 06:55:07 2021

        *************************************************************
        *                                                           *
        *  Thank you very much for using Q-Chem.  Have a nice day.  *
        *                                                           *
        *************************************************************


Done Job For Fragment 1
calling putenv with: QCSCRATCH=/global/cscratch1/sd/meili 
calling putenv with: QCLOCALSCR=/tmp 
calling putenv with: QCTHREADS=32 
Doing General SCFMI
 Exchange:     0.1670 Hartree-Fock + 1.0000 wB97X-V + LR-HF
 Correlation:  1.0000 wB97X-V
 Using Euler-Maclaurin-Lebedev (99,590) quadrature formula
 Nonlocal Correlation:  VV10 with C = 0.0100 and b = 6.00 and scale = 1.00000
 Grid used for NLC:  SG-1 standard quadrature
performing fock build before subrot guess so that all methods have access
Printing subrot_rss_gen Method Specification:
Occupied Subspace Method is 0
Virtual Subspace Method is 0
Energy of the unrelaxed supersystem initial determinant -418.478174246779
performing fock build before subrot guess so that all methods have access
Printing subrot_rss_gen Method Specification:
Occupied Subspace Method is 0
Virtual Subspace Method is 0
Energy of the unrelaxed supersystem initial determinant w/ solvent -418.495168315897
write pseudocanon occs and virts to disk
write pseudocanon orbital energies to disk
Tolerance of ortho_decomp_scf: 1.00e-06
GDM subspace size: 20
Beginning the Orthogonal Decomposition of the Initial Supersystem Wavefunction
    1    -418.4300468431      8.62e-02     ortho_decomp Preconditoned Steepest Descent
    2    -418.4371281862      1.68e-03     ortho_decomp BFGS Step
    3    -418.4371453125      1.53e-04     ortho_decomp BFGS Step
    4    -418.4371453682      6.39e-06     ortho_decomp BFGS Step
    5    -418.4371453683      2.05e-07     ortho_decomp 00000 Convergence criterion met
 Hartree-Fock
 Hartree-Fock
 Hartree-Fock
Doing General SCFMI
 Exchange:     0.1670 Hartree-Fock + 1.0000 wB97X-V + LR-HF
 Correlation:  1.0000 wB97X-V
 Using Euler-Maclaurin-Lebedev (99,590) quadrature formula
 Nonlocal Correlation:  VV10 with C = 0.0100 and b = 6.00 and scale = 1.00000
 Grid used for NLC:  SG-1 standard quadrature
performing fock build at end of subrot_r(subrot) constructor so that all methods have access
<S^2> of initial wavefunction before polarization iterations 0.0000000000
Beginning iterations for the determination of the polarized wavefunction
Energy prior to optimization (guess energy) = -418.495168315897
Begin Timing: Total SCF Calculation
begin iterations for algorithm: DIIS         
the SCF tolerance is set to 1.00e-08
    1    -418.4951683159      2.01e-04     00000 
    2    -418.4969193913      7.79e-05     00000 
    3    -418.4970880109      5.82e-05     00000 
    4    -418.4971583015      1.89e-05     00000 
    5    -418.4971693135      7.59e-06     00000 
    6    -418.4971718480      2.97e-06     00000 
    7    -418.4971723124      1.07e-06     00000 
    8    -418.4971723585      3.70e-07     00000 
    9    -418.4971723632      8.20e-08     00000 
   10    -418.4971723635      4.94e-08     00000 
   11    -418.4971723636      2.40e-08     00000 
   12    -418.4971723636      7.52e-09     00000 Convergence criterion met
write pseudocanon occs and virts to disk
write pseudocanon orbital energies to disk
Timing for Total SCF: 1917.00s (wall), 3807.18s (cpu)
<S^2> of polarized wavefunction after polarization iterations 0.0000000000
relaxing scfmi constraint to allow all rotations in the entire AO span
Doing General SCFMI
 Exchange:     0.1670 Hartree-Fock + 1.0000 wB97X-V + LR-HF
 Correlation:  1.0000 wB97X-V
 Using Euler-Maclaurin-Lebedev (99,590) quadrature formula
 Nonlocal Correlation:  VV10 with C = 0.0100 and b = 6.00 and scale = 1.00000
 Grid used for NLC:  SG-1 standard quadrature
performing fock build at end of subrot_r(subrot) constructor so that all methods have access
<S^2> of polarized wavefunction before ct-allowed iterations 0.0000000000
Beginning iterations for the determination of the CT-Allowed wavefunction
Energy prior to optimization (guess energy) = -418.497172363584
Begin Timing: Total SCF Calculation
begin iterations for algorithm: DIIS         
the SCF tolerance is set to 1.00e-08
    1    -418.4971723636      1.76e-04     00000 
    2    -418.4998500695      2.58e-05     00000 
    3    -418.4999425765      1.07e-05     00000 
    4    -418.4999475871      6.13e-06     00000 
    5    -418.4999498132      9.09e-07     00000 
    6    -418.4999498764      3.18e-07     00000 
    7    -418.4999498878      9.08e-08     00000 
    8    -418.4999498888      3.41e-08     00000 
    9    -418.4999498890      9.53e-09     00000 Convergence criterion met
write pseudocanon occs and virts to disk
write pseudocanon orbital energies to disk
Timing for Total SCF: 1427.00s (wall), 2833.87s (cpu)
<S^2> of ct_allowed wavefunction after ct-allowed iterations 0.0000000000

================================
        Results of EDA2         
================================
Basic EDA Quantities
--------------------
Fragment Energies (Ha):
1 -209.2459493849
2 -209.2463912552
--------------------
  E_prp (kJ/mol) = 0.0000
  E_sol (kJ/mol) = 19.2052
  E_frz (kJ/mol) = -26.6294
  E_pol (kJ/mol) = -5.2617
  E_vct (kJ/mol) = -7.2925
  E_int (kJ/mol) = -19.9783
--------------------


Initial Wavefunction Decomposition
--------------------
  --------------------
  Orthogonal Fragment Subspace Decomposition:
  --------------------
     E_elec   (ELEC)   (kJ/mol) = -81.8998
     E_pauli  (PAULI)  (kJ/mol) = 66.2336
     E_disp   (DISP)   (kJ/mol) = -10.9631
     --------------------
     Terms summing to E_pauli:
     --------------------
        E_kep_pauli       (kJ/mol) = 81.0932
        E_disp_free_pauli (kJ/mol) = -14.8597
  --------------------
  Classical Frozen Decomposition:
  --------------------
     E_cls_elec  (CLS ELEC)  (kJ/mol) = -53.7149
     E_cls_pauli (CLS PAULI) (kJ/mol) = 27.0856
    [E_mod_pauli (MOD PAULI) (kJ/mol) = 38.0487 (CLS PAULI - DISP from orthogonal decomposition) ]
  --------------------
--------------------

Simplified EDA Summary (kJ/mol)
--------------------
 PREPARATION     0.0000
 SOLVATION       19.2052
 FROZEN          -15.6662      (does not include dispersion)
[PAULI           66.2336]     (if this is negligible, then frozen describes electrostatics)
 DISPERSION      -10.9631
 POLARIZATION    -5.2617
 CHARGE TRANSFER -7.2925
 TOTAL           -19.9783     (PRP + SOL + FRZ + DISP + POL + CT)
--------------------
 
 --------------------------------------------------------------
 
                    Orbital Energies (a.u.)
 --------------------------------------------------------------
 
 Alpha MOs
 -- Occupied --
-19.1883 -19.1704 -14.4421 -14.4200 -10.3885 -10.3691 -10.2767 -10.2694
 -1.1825  -1.1642  -1.0523  -1.0349  -0.8736  -0.8662  -0.7252  -0.7043
 -0.6666  -0.6522  -0.5971  -0.5842  -0.5722  -0.5638  -0.5314  -0.5120
 -0.5045  -0.5023  -0.4861  -0.4773  -0.3918  -0.3826  -0.3714  -0.3613
 -- Virtual --
  0.0547   0.0695   0.0819   0.0864   0.0976   0.1003   0.1021   0.1167
  0.1229   0.1262   0.1299   0.1341   0.1423   0.1555   0.1590   0.1736
  0.1752   0.1839   0.1925   0.1948   0.2093   0.2186   0.2242   0.2339
  0.2379   0.2395   0.2476   0.2497   0.2627   0.2631   0.2695   0.2812
  0.2884   0.2953   0.3017   0.3081   0.3111   0.3213   0.3264   0.3297
  0.3311   0.3334   0.3423   0.3454   0.3496   0.3526   0.3569   0.3649
  0.3689   0.3704   0.3727   0.3808   0.3839   0.3872   0.3968   0.4057
  0.4158   0.4164   0.4222   0.4313   0.4399   0.4420   0.4513   0.4563
  0.4627   0.4639   0.4699   0.4734   0.4784   0.4804   0.4926   0.4940
  0.4979   0.5093   0.5170   0.5242   0.5310   0.5400   0.5445   0.5507
  0.5690   0.5720   0.5733   0.5784   0.5890   0.5947   0.6038   0.6100
  0.6192   0.6268   0.6305   0.6409   0.6467   0.6476   0.6600   0.6703
  0.6768   0.6822   0.6856   0.6981   0.7069   0.7155   0.7255   0.7368
  0.7409   0.7543   0.7565   0.7674   0.7716   0.7800   0.7900   0.7943
  0.8029   0.8053   0.8154   0.8211   0.8272   0.8330   0.8435   0.8546
  0.8611   0.8733   0.8954   0.9092   0.9165   0.9263   0.9286   0.9382
  0.9687   0.9716   0.9885   0.9927   1.0101   1.0334   1.0382   1.0503
  1.0641   1.0754   1.1002   1.1106   1.1307   1.1367   1.1476   1.1602
  1.1771   1.1844   1.2240   1.2475   1.2564   1.2619   1.2782   1.2970
  1.3215   1.3314   1.3350   1.3570   1.3586   1.3821   1.4113   1.4656
  1.5006   1.5026   1.5214   1.5227   1.5423   1.5832   1.6331   1.6635
  1.6918   1.7262   1.7365   1.7473   1.7573   1.8221   1.8283   1.8592
  1.8681   1.8857   1.8910   1.9046   1.9077   1.9281   1.9388   1.9519
  1.9692   1.9707   1.9843   1.9931   2.0112   2.0392   2.0585   2.0682
  2.0784   2.0982   2.1166   2.1241   2.1373   2.1522   2.1856   2.2096
  2.2192   2.2444   2.2531   2.3135   2.3675   2.3983   2.4028   2.4133
  2.4351   2.4455   2.4522   2.4616   2.4820   2.5234   2.5303   2.5484
  2.5510   2.5775   2.5838   2.6073   2.6111   2.6399   2.6491   2.6537
  2.6678   2.6783   2.6808   2.7709   2.7838   2.7927   2.8075   2.8390
  2.8477   2.8904   2.9105   2.9329   2.9661   2.9802   2.9915   3.0012
  3.0776   3.1144   3.1270   3.1338   3.1479   3.1650   3.1717   3.1864
  3.2040   3.2279   3.2331   3.2730   3.2745   3.2928   3.2999   3.3177
  3.3223   3.3335   3.3431   3.3649   3.3829   3.4224   3.4402   3.4510
  3.4570   3.4824   3.5000   3.5261   3.5487   3.5578   3.6214   3.6248
  3.6303   3.6484   3.6737   3.6913   3.7058   3.7206   3.7996   3.8252
  3.8553   3.8941   3.9398   3.9624   3.9916   4.0235   4.0321   4.0475
  4.0774   4.1265   4.2141   4.2286   4.3174   4.3552   4.4235   4.4434
  4.4670   4.5002   4.5791   4.6269   4.6390   4.6577   4.6791   4.6831
  4.7941   4.8207   4.8877   4.8998   4.9154   4.9299   4.9368   4.9468
  5.1657   5.1801   5.1929   5.1990   5.2701   5.2826   5.3457   5.3570
  5.3717   5.3920   5.3996   5.4162   5.4217   5.4824   5.4986   5.5275
  5.5577   5.5684   5.7691   5.7800   5.9027   5.9468   6.1437   6.1880
  6.2544   6.2823   6.5435   6.6104   6.6537   6.6735   6.7472   6.7655
  6.8264   6.8485   6.9820   7.0104   7.2224   7.2424   7.3454   7.4119
 22.5903  22.6025  23.5773  23.6202  32.4152  32.5222  44.3767  44.4052
 --------------------------------------------------------------
 
          Ground-State Mulliken Net Atomic Charges

     Atom                 Charge (a.u.)
  ----------------------------------------
      1 C                    -0.542360
      2 C                     0.418336
      3 O                    -0.603781
      4 N                    -0.118035
      5 H                     0.176769
      6 H                     0.189745
      7 H                     0.201218
      8 H                     0.168989
      9 H                     0.204323
     10 C                    -0.601677
     11 C                     0.365966
     12 O                    -0.660932
     13 N                    -0.263684
     14 H                     0.193298
     15 H                     0.209303
     16 H                     0.219158
     17 H                     0.192229
     18 H                     0.251134
  ----------------------------------------
  Sum of atomic charges =     0.000000

 -----------------------------------------------------------------
                    Cartesian Multipole Moments
 -----------------------------------------------------------------
    Charge (ESU x 10^10)
                -0.0000
    Dipole Moment (Debye)
         X      -6.6804      Y       5.9936      Z       6.2808
       Tot      10.9544
    Quadrupole Moments (Debye-Ang)
        XX     -38.9676     XY       1.6703     YY     -57.7233
        XZ      -0.0476     YZ      -5.3159     ZZ     -46.0613
    Octopole Moments (Debye-Ang^2)
       XXX     -39.8049    XXY      41.3957    XYY     -47.0973
       YYY      39.5412    XXZ      38.8275    XYZ     -42.9763
       YYZ      37.1504    XZZ     -46.3249    YZZ      40.4782
       ZZZ      65.1990
    Hexadecapole Moments (Debye-Ang^3)
      XXXX   -1122.4411   XXXY     353.0181   XXYY    -337.4334
      XYYY     444.2044   YYYY    -855.7502   XXXZ     255.9641
      XXYZ     -89.8092   XYYZ     137.6913   YYYZ    -337.0504
      XXZZ    -280.4341   XYZZ     143.0809   YYZZ    -277.9475
      XZZZ     252.7023   YZZZ    -267.1856   ZZZZ    -533.1708
 -----------------------------------------------------------------
Archival summary:
1\1\nid00569\SP\ProcedureUnspecified\BasisUnspecified\22410\meili\SunSep2608:30:542021SunSep2608:30:542021\0\\#,ProcedureUnspecified,BasisUnspecified,\\0,1\O\C,1,1.23029\N,2,1.32471,1,121.661\H,3,1.01223,2,117.189,1,-1.0115,0\H,3,1.01561,2,123.136,1,-177.294,0\C,2,1.52522,1,120.023,3,-178.397,0\H,6,1.08854,2,109.087,1,-40.6066,0\H,6,1.08883,2,107.352,1,74.7421,0\H,6,1.1,2,115.058,1,-165.358,0\H,1,1.89886,2,151.668,3,119.918,0\N,10,1.0182,1,162.285,2,-3.71228,0\H,11,1.00822,10,120.582,1,3.97469,0\C,11,1.32313,10,121.42,1,-178.723,0\O,13,1.22975,11,122.22,10,-177.973,0\C,13,1.51539,11,116.8,10,1.7325,0\H,15,1.09089,13,106.552,11,-114.287,0\H,15,1.09132,13,110.145,11,2.08566,0\H,15,1.1,13,112.545,11,124.86,0\\\@

 Total job time:  18860.86s(wall), 11360.10s(cpu) 
 Sun Sep 26 08:30:55 2021

        *************************************************************
        *                                                           *
        *  Thank you very much for using Q-Chem.  Have a nice day.  *
        *                                                           *
        *************************************************************


