
Running Job 1 of 1 SSI-126ASN-129ASN-1_PCM_TZVPD.in
qchem SSI-126ASN-129ASN-1_PCM_TZVPD.in_27010.0 /tmp/qchem27010/ 0
/global/common/cori/software/qchem/5.2/exe/qcprog.exe_s SSI-126ASN-129ASN-1_PCM_TZVPD.in_27010.0 /tmp/qchem27010/
                  Welcome to Q-Chem
     A Quantum Leap Into The Future Of Chemistry


 Q-Chem 5.2, Q-Chem, Inc., Pleasanton, CA (2019)

 License issued to: National Energy Research Scientific Computing Center

 Yihan Shao,  Zhengting Gan,  E. Epifanovsky,  A. T. B. Gilbert,  M. Wormit,  
 J. Kussmann,  A. W. Lange,  A. Behn,  Jia Deng,  Xintian Feng,  D. Ghosh,  
 M. Goldey,  P. R. Horn,  L. D. Jacobson,  I. Kaliman,  T. Kus,  A. Landau,  
 Jie Liu,  E. I. Proynov,  R. M. Richard,  R. P. Steele,  E. J. Sundstrom,  
 H. L. Woodcock III,  P. M. Zimmerman,  D. Zuev,  B. Albrecht,  E. Alguire,  
 S. A. Baeppler,  D. Barton,  Z. Benda,  Y. A. Bernard,  E. J. Berquist,  
 K. B. Bravaya,  H. Burton,  D. Casanova,  Chun-Min Chang,  Yunqing Chen,  
 A. Chien,  K. D. Closser,  M. P. Coons,  S. Coriani,  S. Dasgupta,  
 A. L. Dempwolff,  M. Diedenhofen,  Hainam Do,  R. G. Edgar,  Po-Tung Fang,  
 S. Faraji,  S. Fatehi,  Qingguo Feng,  K. D. Fenk,  J. Fosso-Tande,  
 J. Gayvert,  Qinghui Ge,  A. Ghysels,  G. Gidofalvi,  J. Gomes,  
 J. Gonthier,  A. Gunina,  D. Hait,  M. W. D. Hanson-Heine,  
 P. H. P. Harbach,  A. W. Hauser,  M. F. Herbst,  J. E. Herr,  
 E. G. Hohenstein,  Z. C. Holden,  Kerwin Hui,  B. C. Huynh,  T.-C. Jagau,  
 Hyunjun Ji,  B. Kaduk,  K. Khistyaev,  Jaehoon Kim,  P. Klunzinger,  K. Koh,  
 D. Kosenkov,  L. Koulias,  T. Kowalczyk,  C. M. Krauter,  A. Kunitsa,  
 Ka Un Lao,  A. Laurent,  K. V. Lawler,  Joonho Lee,  D. Lefrancois,  
 S. Lehtola,  D. S. Levine,  Yi-Pei Li,  You-Sheng Lin,  Fenglai Liu,  
 E. Livshits,  A. Luenser,  P. Manohar,  E. Mansoor,  S. F. Manzer,  
 Shan-Ping Mao,  Yuezhi Mao,  N. Mardirossian,  A. V. Marenich,  
 T. Markovich,  L. A. Martinez-Martinez,  S. A. Maurer,  N. J. Mayhall,  
 S. C. McKenzie,  J.-M. Mewes,  P. Morgante,  A. F. Morrison,  
 J. W. Mullinax,  K. Nanda,  T. S. Nguyen-Beck,  R. Olivares-Amaya,  
 J. A. Parkhill,  Zheng Pei,  T. M. Perrine,  F. Plasser,  P. Pokhilko,  
 S. Prager,  A. Prociuk,  E. Ramos,  D. R. Rehn,  F. Rob,  M. Scheurer,  
 M. Schneider,  N. Sergueev,  S. M. Sharada,  S. Sharma,  D. W. Small,  
 T. Stauch,  T. Stein,  Yu-Chuan Su,  A. J. W. Thom,  A. Tkatchenko,  
 T. Tsuchimochi,  N. M. Tubman,  L. Vogt,  M. L. Vidal,  O. Vydrov,  
 M. A. Watson,  J. Wenzel,  M. de Wergifosse,  T. A. Wesolowski,  A. White,  
 J. Witte,  A. Yamada,  Jun Yang,  K. Yao,  S. Yeganeh,  S. R. Yost,  
 Zhi-Qiang You,  A. Zech,  Igor Ying Zhang,  Xing Zhang,  Yan Zhao,  
 Ying Zhu,  B. R. Brooks,  G. K. L. Chan,  C. J. Cramer,  M. S. Gordon,  
 W. J. Hehre,  A. Klamt,  M. W. Schmidt,  C. D. Sherrill,  D. G. Truhlar,  
 A. Aspuru-Guzik,  R. Baer,  A. T. Bell,  N. A. Besley,  Jeng-Da Chai,  
 A. E. DePrince, III,  R. A. DiStasio Jr.,  A. Dreuw,  B. D. Dunietz,  
 T. R. Furlani,  Chao-Ping Hsu,  Yousung Jung,  Jing Kong,  D. S. Lambrecht,  
 WanZhen Liang,  C. Ochsenfeld,  V. A. Rassolov,  L. V. Slipchenko,  
 J. E. Subotnik,  T. Van Voorhis,  J. M. Herbert,  A. I. Krylov,  
 P. M. W. Gill,  M. Head-Gordon

 Contributors to earlier versions of Q-Chem not listed above: 
 R. D. Adamson,  B. Austin,  J. Baker,  G. J. O. Beran,  K. Brandhorst,  
 S. T. Brown,  E. F. C. Byrd,  A. K. Chakraborty,  C.-L. Cheng,  
 Siu Hung Chien,  D. M. Chipman,  D. L. Crittenden,  H. Dachsel,  
 R. J. Doerksen,  A. D. Dutoi,  L. Fusti-Molnar,  W. A. Goddard III,  
 A. Golubeva-Zadorozhnaya,  S. R. Gwaltney,  G. Hawkins,  A. Heyden,  
 S. Hirata,  G. Kedziora,  F. J. Keil,  C. Kelley,  Jihan Kim,  R. A. King,  
 R. Z. Khaliullin,  P. P. Korambath,  W. Kurlancheek,  A. M. Lee,  M. S. Lee,  
 S. V. Levchenko,  Ching Yeh Lin,  D. Liotard,  R. C. Lochan,  I. Lotan,  
 P. E. Maslen,  N. Nair,  D. P. O'Neill,  D. Neuhauser,  E. Neuscamman,  
 C. M. Oana,  R. Olson,  B. Peters,  R. Peverati,  P. A. Pieniazek,  
 Y. M. Rhee,  J. Ritchie,  M. A. Rohrdanz,  E. Rosta,  N. J. Russ,  
 H. F. Schaefer III,  N. E. Schultz,  N. Shenvi,  A. C. Simmonett,  A. Sodt,  
 D. Stuck,  K. S. Thanthiriwatte,  V. Vanovschi,  Tao Wang,  A. Warshel,  
 C. F. Williams,  Q. Wu,  X. Xu,  W. Zhang

 Please cite Q-Chem as follows:
 Y. Shao et al., Mol. Phys. 113, 184-215 (2015)
 DOI: 10.1080/00268976.2014.952696

 Q-Chem 5.2.0 for Intel X86 EM64T Linux

 Parts of Q-Chem use Armadillo 8.300.2 (Tropical Shenanigans).
 http://arma.sourceforge.net/

 Q-Chem begins on Sun Sep 26 14:14:26 2021  

Host: cori01
0

     Scratch files written to /tmp/qchem27010//
 May1019 |scratch|qcdevops|jenkins|workspace|build_RNUM -1
Processing $rem in /global/common/cori/software/qchem/5.2/config/preferences:
	 MEM_TOTAL  96000 
NAlpha2: 64
NElect   64
Mult     1
Symmetry turned off for PCM/SM12/SMD calculation

 Q-Chem warning in module libgen/rem_setup.C, line 2803:

 Neither GIA nor STOLL is specified by user. Use STOLL as the default


Checking the input file for inconsistencies... 	...done.

--------------------------------------------------------------
User input:
--------------------------------------------------------------
$comment
SSI-126ASN-129ASN-1.pdb
$end

$molecule
0 1
--
0 1
C    0.190578260967    1.542564147145    2.623222599451
C    0.591578260967    0.166564147145    2.118222599451
O    1.761578260967   -0.110435852855    1.869222599451
N   -0.385421739033   -0.710435852855    1.958222599451
H   -0.124421739033   -1.678435852855    1.827222599451
H   -1.329421739033   -0.470435852855    2.232222599451
H   -0.577421739033    1.414564147145    3.388222599451
H   -0.247421739033    2.107564147145    1.799222599451
H    1.032558260967    2.095027147145    3.065767599451
--
0 1
C   -0.604421739033    1.169564147145   -1.691777400549
C   -0.517421739033   -0.250435852855   -2.214777400549
O   -0.526421739033   -0.486435852855   -3.421777400549
N   -0.440421739033   -1.210435852855   -1.307777400549
H   -0.405421739033   -2.168435852855   -1.626777400549
H   -0.473421739033   -0.987435852855   -0.325777400549
H   -0.816421739033    1.157564147145   -0.621777400549
H   -1.450421739033    1.645564147145   -2.190777400549
H    0.308138260967    1.752310147145   -1.885787400549
$end

$rem
JOBTYPE			EDA
EDA2			1
method			wB97X-V
BASIS			def2-TZVPD
XC_GRID			000099000590
NL_GRID			1
UNRESTRICTED		FALSE
MAX_SCF_CYCLES		200
SYMMETRY		FALSE
SYM_IGNORE		TRUE
MEM_STATIC		2000
BASIS_LIN_DEP_THRESH 	6
THRESH 			14
SCF_CONVERGENCE 	8
SCF_PRINT_FRGM 		TRUE
SOLVENT_METHOD          PCM
$end

$PCM
THEORY                  CPCM
METHOD                  SWIG
SOLVER                  INVERSION
RADII                   UFF
HPOINTS                 302
HEAVYPOINTS             302
PRINTLEVEL              0
$END

$SOLVENT
DIELECTRIC              78.390000 ! water
$END
--------------------------------------------------------------
 ----------------------------------------------------------------
             Standard Nuclear Orientation (Angstroms)
    I     Atom           X                Y                Z
 ----------------------------------------------------------------
    1      C       0.1905782610     1.5425641471     2.6232225995
    2      C       0.5915782610     0.1665641471     2.1182225995
    3      O       1.7615782610    -0.1104358529     1.8692225995
    4      N      -0.3854217390    -0.7104358529     1.9582225995
    5      H      -0.1244217390    -1.6784358529     1.8272225995
    6      H      -1.3294217390    -0.4704358529     2.2322225995
    7      H      -0.5774217390     1.4145641471     3.3882225995
    8      H      -0.2474217390     2.1075641471     1.7992225995
    9      H       1.0325582610     2.0950271471     3.0657675995
   10      C      -0.6044217390     1.1695641471    -1.6917774005
   11      C      -0.5174217390    -0.2504358529    -2.2147774005
   12      O      -0.5264217390    -0.4864358529    -3.4217774005
   13      N      -0.4404217390    -1.2104358529    -1.3077774005
   14      H      -0.4054217390    -2.1684358529    -1.6267774005
   15      H      -0.4734217390    -0.9874358529    -0.3257774005
   16      H      -0.8164217390     1.1575641471    -0.6217774005
   17      H      -1.4504217390     1.6455641471    -2.1907774005
   18      H       0.3081382610     1.7523101471    -1.8857874005
 ----------------------------------------------------------------
 Nuclear Repulsion Energy =         364.56950502 hartrees
 There are       32 alpha and       32 beta electrons
 Requested basis set is def2-TZVPD
 There are 156 shells and 392 basis functions

 Total QAlloc Memory Limit  96000 MB
 Mega-Array Size      1956 MB
 MEM_STATIC part      2000 MB
 Discretize the solute cavity surface with Lebedev spheres
	Using 302 Lebedev grid points for each H atom
	Using 302 Lebedev grid points for other atoms
	Atomic van der Waals radii will be scaled by 1.20
 Remove points where switching function is < 1.0e-08
 Keep 2181 surface tesserae and discard 3255 interior tesserae
 Molecular Surface Area = 224.669 Angst**2
 A cutoff of  1.0D-14 yielded  11123 shell pairs
 There are     70363 function pairs (     88183 Cartesian)
 Smallest overlap matrix eigenvalue = 5.04E-06

 Scale SEOQF with 1.000000e-01/1.000000e-01/1.000000e-01

 Standard Electronic Orientation quadrupole field applied
 Nucleus-field energy     =    -0.0000000280 hartrees

 -----------------------------------------------------------------------
  General SCF calculation program by
  Eric Jon Sundstrom, Paul Horn, Yuezhi Mao, Dmitri Zuev, Alec White,
  David Stuck, Shaama M.S., Shane Yost, Joonho Lee, David Small,
  Daniel Levine, Susi Lehtola, Hugh Burton, Evgeny Epifanovsky
 -----------------------------------------------------------------------
================================================================
                 ALMO-EDA with the EDA2 driver                  
================================================================
 The second-generation ALMO-EDA (for DFT):                      
 P. R. Horn, Y. Mao and M. Head-Gordon, PCCP, 18, 23067 (2016)  
 Decomposition of the frozen energy:                            
 P. R. Horn, Y. Mao and M. Head-Gordon, JCP, 144, 114107 (2016) 
 FERF model for polarization:                                   
 P. R. Horn and M. Head-Gordon, JCP, 143, 114111 (2015)         
Using eda2 option set 1
Option set summary: Frozen orbital wavefunction, initial wavefunction decomposition, and nDQ polarization.
--------------------------------
Printing EDA Options
--------------------------------
eda_child_super_basis      0
fragmo_guess_mode          0
child_mp                   1
child_mp_orders            232
cls_elec                   1
cls_disp                   0
scfmi_mode                 1
scfmi_occs                 0
scfmi_virts                0
frz_relax                  0
frz_relax_method           0
dc_pen_start               0
dc_pen_conv                0
dc_pen_increment           0
dc_pen_steps               0
dc_pen_thresh_factor       0
dc_pen_pre_newton_thresh   0
frz_ortho_decomp           1
frz_ortho_decomp_conv      6
frgm_method                2
scfmi_freeze_ss            0
separate_rehyb             0
plot_diff_den              0
eda_nocv                   0
eda_vct_relax              1
disp_free_x                0
disp_free_c                0
eda_bsse                   0
eda_pct_a                  0
eda_covp                   0
--------------------------------
Attempting to make child job directory: /tmp/qchem27010//Frg1/
Attempting to make child job directory: /tmp/qchem27010//Frg2/
Creating input file /tmp/qchem27010/Frg1.input
using default PutDataFrgm: nothing
calling putenv with: QCSCRATCH=/tmp/qchem27010/ 
calling putenv with: QCLOCALSCR=/tmp/qchem27010/ 
Spawning Job For Fragment 0
                  Welcome to Q-Chem
     A Quantum Leap Into The Future Of Chemistry


 Q-Chem 5.2, Q-Chem, Inc., Pleasanton, CA (2019)

 License issued to: National Energy Research Scientific Computing Center

 Yihan Shao,  Zhengting Gan,  E. Epifanovsky,  A. T. B. Gilbert,  M. Wormit,  
 J. Kussmann,  A. W. Lange,  A. Behn,  Jia Deng,  Xintian Feng,  D. Ghosh,  
 M. Goldey,  P. R. Horn,  L. D. Jacobson,  I. Kaliman,  T. Kus,  A. Landau,  
 Jie Liu,  E. I. Proynov,  R. M. Richard,  R. P. Steele,  E. J. Sundstrom,  
 H. L. Woodcock III,  P. M. Zimmerman,  D. Zuev,  B. Albrecht,  E. Alguire,  
 S. A. Baeppler,  D. Barton,  Z. Benda,  Y. A. Bernard,  E. J. Berquist,  
 K. B. Bravaya,  H. Burton,  D. Casanova,  Chun-Min Chang,  Yunqing Chen,  
 A. Chien,  K. D. Closser,  M. P. Coons,  S. Coriani,  S. Dasgupta,  
 A. L. Dempwolff,  M. Diedenhofen,  Hainam Do,  R. G. Edgar,  Po-Tung Fang,  
 S. Faraji,  S. Fatehi,  Qingguo Feng,  K. D. Fenk,  J. Fosso-Tande,  
 J. Gayvert,  Qinghui Ge,  A. Ghysels,  G. Gidofalvi,  J. Gomes,  
 J. Gonthier,  A. Gunina,  D. Hait,  M. W. D. Hanson-Heine,  
 P. H. P. Harbach,  A. W. Hauser,  M. F. Herbst,  J. E. Herr,  
 E. G. Hohenstein,  Z. C. Holden,  Kerwin Hui,  B. C. Huynh,  T.-C. Jagau,  
 Hyunjun Ji,  B. Kaduk,  K. Khistyaev,  Jaehoon Kim,  P. Klunzinger,  K. Koh,  
 D. Kosenkov,  L. Koulias,  T. Kowalczyk,  C. M. Krauter,  A. Kunitsa,  
 Ka Un Lao,  A. Laurent,  K. V. Lawler,  Joonho Lee,  D. Lefrancois,  
 S. Lehtola,  D. S. Levine,  Yi-Pei Li,  You-Sheng Lin,  Fenglai Liu,  
 E. Livshits,  A. Luenser,  P. Manohar,  E. Mansoor,  S. F. Manzer,  
 Shan-Ping Mao,  Yuezhi Mao,  N. Mardirossian,  A. V. Marenich,  
 T. Markovich,  L. A. Martinez-Martinez,  S. A. Maurer,  N. J. Mayhall,  
 S. C. McKenzie,  J.-M. Mewes,  P. Morgante,  A. F. Morrison,  
 J. W. Mullinax,  K. Nanda,  T. S. Nguyen-Beck,  R. Olivares-Amaya,  
 J. A. Parkhill,  Zheng Pei,  T. M. Perrine,  F. Plasser,  P. Pokhilko,  
 S. Prager,  A. Prociuk,  E. Ramos,  D. R. Rehn,  F. Rob,  M. Scheurer,  
 M. Schneider,  N. Sergueev,  S. M. Sharada,  S. Sharma,  D. W. Small,  
 T. Stauch,  T. Stein,  Yu-Chuan Su,  A. J. W. Thom,  A. Tkatchenko,  
 T. Tsuchimochi,  N. M. Tubman,  L. Vogt,  M. L. Vidal,  O. Vydrov,  
 M. A. Watson,  J. Wenzel,  M. de Wergifosse,  T. A. Wesolowski,  A. White,  
 J. Witte,  A. Yamada,  Jun Yang,  K. Yao,  S. Yeganeh,  S. R. Yost,  
 Zhi-Qiang You,  A. Zech,  Igor Ying Zhang,  Xing Zhang,  Yan Zhao,  
 Ying Zhu,  B. R. Brooks,  G. K. L. Chan,  C. J. Cramer,  M. S. Gordon,  
 W. J. Hehre,  A. Klamt,  M. W. Schmidt,  C. D. Sherrill,  D. G. Truhlar,  
 A. Aspuru-Guzik,  R. Baer,  A. T. Bell,  N. A. Besley,  Jeng-Da Chai,  
 A. E. DePrince, III,  R. A. DiStasio Jr.,  A. Dreuw,  B. D. Dunietz,  
 T. R. Furlani,  Chao-Ping Hsu,  Yousung Jung,  Jing Kong,  D. S. Lambrecht,  
 WanZhen Liang,  C. Ochsenfeld,  V. A. Rassolov,  L. V. Slipchenko,  
 J. E. Subotnik,  T. Van Voorhis,  J. M. Herbert,  A. I. Krylov,  
 P. M. W. Gill,  M. Head-Gordon

 Contributors to earlier versions of Q-Chem not listed above: 
 R. D. Adamson,  B. Austin,  J. Baker,  G. J. O. Beran,  K. Brandhorst,  
 S. T. Brown,  E. F. C. Byrd,  A. K. Chakraborty,  C.-L. Cheng,  
 Siu Hung Chien,  D. M. Chipman,  D. L. Crittenden,  H. Dachsel,  
 R. J. Doerksen,  A. D. Dutoi,  L. Fusti-Molnar,  W. A. Goddard III,  
 A. Golubeva-Zadorozhnaya,  S. R. Gwaltney,  G. Hawkins,  A. Heyden,  
 S. Hirata,  G. Kedziora,  F. J. Keil,  C. Kelley,  Jihan Kim,  R. A. King,  
 R. Z. Khaliullin,  P. P. Korambath,  W. Kurlancheek,  A. M. Lee,  M. S. Lee,  
 S. V. Levchenko,  Ching Yeh Lin,  D. Liotard,  R. C. Lochan,  I. Lotan,  
 P. E. Maslen,  N. Nair,  D. P. O'Neill,  D. Neuhauser,  E. Neuscamman,  
 C. M. Oana,  R. Olson,  B. Peters,  R. Peverati,  P. A. Pieniazek,  
 Y. M. Rhee,  J. Ritchie,  M. A. Rohrdanz,  E. Rosta,  N. J. Russ,  
 H. F. Schaefer III,  N. E. Schultz,  N. Shenvi,  A. C. Simmonett,  A. Sodt,  
 D. Stuck,  K. S. Thanthiriwatte,  V. Vanovschi,  Tao Wang,  A. Warshel,  
 C. F. Williams,  Q. Wu,  X. Xu,  W. Zhang

 Please cite Q-Chem as follows:
 Y. Shao et al., Mol. Phys. 113, 184-215 (2015)
 DOI: 10.1080/00268976.2014.952696

 Q-Chem 5.2.0 for Intel X86 EM64T Linux

 Parts of Q-Chem use Armadillo 8.300.2 (Tropical Shenanigans).
 http://arma.sourceforge.net/

 Q-Chem begins on Sun Sep 26 14:14:32 2021  

Host: cori01
0

     Scratch files written to /tmp/qchem27010//Frg1//
 May1019 |scratch|qcdevops|jenkins|workspace|build_RNUM -1
Processing $rem in /global/common/cori/software/qchem/5.2/config/preferences:
	 MEM_TOTAL  96000 
NAlpha2: 32
NElect   32
Mult     1
Symmetry turned off for PCM/SM12/SMD calculation

Checking the input file for inconsistencies... 	...done.

--------------------------------------------------------------
User input:
--------------------------------------------------------------
$molecule
0 1
 6	0.1905782610	1.5425641471	2.6232225995
 6	0.5915782610	0.1665641471	2.1182225995
 8	1.7615782610	-0.1104358529	1.8692225995
 7	-0.3854217390	-0.7104358529	1.9582225995
 1	-0.1244217390	-1.6784358529	1.8272225995
 1	-1.3294217390	-0.4704358529	2.2322225995
 1	-0.5774217390	1.4145641471	3.3882225995
 1	-0.2474217390	2.1075641471	1.7992225995
 1	1.0325582610	2.0950271471	3.0657675995
$end
$rem
EDA2		1
METHOD		WB97X-V
BASIS		DEF2-TZVPD
XC_GRID		000099000590
NL_GRID		1
UNRESTRICTED		FALSE
MAX_SCF_CYCLES		200
SYMMETRY		FALSE
SYM_IGNORE		TRUE
BASIS_LIN_DEP_THRESH		6
THRESH		14
SCF_CONVERGENCE		8
SCF_PRINT_FRGM		TRUE
SOLVENT_METHOD		PCM
!required keywords
JOBTYPE		SP
SYM_IGNORE		TRUE
SUBSYSTEM		TRUE
GEN_SCFMAN		TRUE
CHILD_INSTRUCTION		2
SYM_IGNORE		TRUE
SCFMI		0
RI_K 0		
PARI_K 0		
MIN_PARI_K 0		
IARI_K 0		
OCC_RI_K 0		
PURECART		1111
MEM_STATIC		2000
MEM_TOTAL		96000
GUI		0
CHILD_MP		1
CHILD_MP_ORDERS		232
FRZ_RELAX		0
FRZ_RELAX_METHOD		0
EDA_CLS_ELEC		1
EDA_CLS_DISP		0
FRZ_ORTHO_DECOMP		1
EDA2		FALSE
FRGM_METHOD		FALSE
CIS_N_ROOTS  0
LOCAL_CIS    0
CIS_RLX_DNS  1
$end
$pcm
THEORY                  CPCM
METHOD                  SWIG
SOLVER                  INVERSION
RADII                   UFF
HPOINTS                 302
HEAVYPOINTS             302
PRINTLEVEL              0
$end
$solvent
DIELECTRIC              78.390000 ! water
$end
--------------------------------------------------------------
 ----------------------------------------------------------------
             Standard Nuclear Orientation (Angstroms)
    I     Atom           X                Y                Z
 ----------------------------------------------------------------
    1      C       0.1905782610     1.5425641471     2.6232225995
    2      C       0.5915782610     0.1665641471     2.1182225995
    3      O       1.7615782610    -0.1104358529     1.8692225995
    4      N      -0.3854217390    -0.7104358529     1.9582225995
    5      H      -0.1244217390    -1.6784358529     1.8272225995
    6      H      -1.3294217390    -0.4704358529     2.2322225995
    7      H      -0.5774217390     1.4145641471     3.3882225995
    8      H      -0.2474217390     2.1075641471     1.7992225995
    9      H       1.0325582610     2.0950271471     3.0657675995
 ----------------------------------------------------------------
 Nuclear Repulsion Energy =         122.35918026 hartrees
 There are       16 alpha and       16 beta electrons
 Requested basis set is def2-TZVPD
 There are 78 shells and 196 basis functions

 Total QAlloc Memory Limit  96000 MB
 Mega-Array Size      1956 MB
 MEM_STATIC part      2000 MB
 Discretize the solute cavity surface with Lebedev spheres
	Using 302 Lebedev grid points for each H atom
	Using 302 Lebedev grid points for other atoms
	Atomic van der Waals radii will be scaled by 1.20
 Remove points where switching function is < 1.0e-08
 Keep 1214 surface tesserae and discard 1504 interior tesserae
 Molecular Surface Area = 128.409 Angst**2

                       Distance Matrix (Angstroms)
             C (  1)   C (  2)   O (  3)   N (  4)   H (  5)   H (  6)
   C (  2)  1.519606
   O (  3)  2.401867  1.227856
   N (  4)  2.418679  1.322595  2.231038
   H (  5)  3.332819  2.000340  2.453036  1.011091
   H (  6)  2.552538  2.027068  3.132994  1.011836  1.753657
   H (  7)  1.091528  2.130015  3.178664  2.568538  3.494078  2.335608
   H (  8)  1.090892  2.138495  2.993410  2.825854  3.788101  2.829187
   H (  9)  1.099996  2.193462  2.612902  3.332859  4.136619  3.585435
             H (  7)   H (  8)
   H (  8)  1.764673
   H (  9)  1.777370  1.800734
 
 A cutoff of  1.0D-14 yielded   3054 shell pairs
 There are     19544 function pairs (     24702 Cartesian)
 Smallest overlap matrix eigenvalue = 1.12E-05

 Scale SEOQF with 1.000000e-01/1.000000e-01/1.000000e-01

 Standard Electronic Orientation quadrupole field applied
 Nucleus-field energy     =    -0.0000000132 hartrees
 Guess from superposition of atomic densities
 Warning:  Energy on first SCF cycle will be non-variational
 SAD guess density has 31.604610 electrons

 -----------------------------------------------------------------------
  General SCF calculation program by
  Eric Jon Sundstrom, Paul Horn, Yuezhi Mao, Dmitri Zuev, Alec White,
  David Stuck, Shaama M.S., Shane Yost, Joonho Lee, David Small,
  Daniel Levine, Susi Lehtola, Hugh Burton, Evgeny Epifanovsky
 -----------------------------------------------------------------------
 Exchange:     0.1670 Hartree-Fock + 1.0000 wB97X-V + LR-HF
 Correlation:  1.0000 wB97X-V
 Using Euler-Maclaurin-Lebedev (99,590) quadrature formula
 Nonlocal Correlation:  VV10 with C = 0.0100 and b = 6.00 and scale = 1.00000
 Grid used for NLC:  SG-1 standard quadrature
Energy prior to optimization (guess energy) = -208.703013107751
Begin Timing: Total SCF Calculation
begin iterations for algorithm: DIIS         
the SCF tolerance is set to 1.00e-08
    1    -208.7030131078      1.26e-02     00000 
    2    -208.3159225642      1.55e-02     00000 
    3    -209.2222758074      2.48e-03     00000 
    4    -209.2421028170      8.29e-04     00000 
    5    -209.2448211133      1.23e-04     00000 
    6    -209.2449189145      4.93e-05     00000 
    7    -209.2449360468      1.12e-05     00000 
    8    -209.2449372051      2.06e-06     00000 
    9    -209.2449372927      7.19e-07     00000 
   10    -209.2449372978      3.04e-07     00000 
   11    -209.2449372986      7.11e-08     00000 
   12    -209.2449372987      1.72e-08     00000 
   13    -209.2449372987      4.68e-09     00000 Convergence criterion met
Timing for Total SCF: 386.00s (wall), 734.03s (cpu)

************** Final PCM Free Energy Summary **************
 G_electrostatic  =      -0.01215204 hartree =      -7.62551854 kcal/mol
 G_cavitation     =       0.00000000 hartree =       0.00000000 kcal/mol
 G_dispersion     =       0.00000000 hartree =       0.00000000 kcal/mol
 G_repulsion      =       0.00000000 hartree =       0.00000000 kcal/mol
 --------------------------------------------------
 Non-electrostatic Free Energy =       0.00000000 hartree =       0.00000000 kcal/mol
 Total                         =      -0.01215204 hartree =      -7.62551854 kcal/mol
 --------------------------------------------------
 SCF Energy (H0 + V/2)                       =    -209.24493730 
 Solute Internal Energy (H0)                 =    -209.23278526 
 Total Free Energy (H0 + V/2 + non-elec)     =    -209.24493730 hartree
                                             = -131303.17991376 kcal/mol
***********************************************************

E_pcm = -0.0121520374
Multipole orders to be included
        2
        3
computing dipole RHS
computing quadrupole RHS
total number of RHS in solve_reponses: 8
RHS batch sizes
        8
Beginning Block Conjugate Gradient Iterations. Batch Number: 0
computing hessian-vector products by finite difference
              1      6.69e-01     00000 Conjugate Gradient Iteration
computing hessian-vector products by finite difference
              2      2.25e-01     00000 Conjugate Gradient Iteration
computing hessian-vector products by finite difference
              3      5.82e-02     00000 Conjugate Gradient Iteration
computing hessian-vector products by finite difference
              4      1.46e-02     00000 Conjugate Gradient Iteration
computing hessian-vector products by finite difference
              5      2.29e-03     00000 Conjugate Gradient Iteration
computing hessian-vector products by finite difference
              6      5.09e-04     00000 Conjugate Gradient Iteration
computing hessian-vector products by finite difference
              7      7.82e-05     00000 Conjugate Gradient Iteration
computing hessian-vector products by finite difference
              8      9.40e-06     00000 Conjugate Gradient Iteration
computing hessian-vector products by finite difference
              9      1.35e-06     00000 Conjugate Gradient Iteration
computing hessian-vector products by finite difference
             10      1.40e-07     00000 Conjugate Gradient Iteration
computing hessian-vector products by finite difference
             11      2.92e-08     00000 Conjugate Gradient Iteration
computing hessian-vector products by finite difference
             12      4.68e-09     00000 CG Converged
batch 0 complete
Done Calculating Responses
TESTING ORTHOGONALIZATION OF MULTIPOLE BASIS
Multipole virts passed orthogonality test
Virts Per Order
        48
        80
 
 --------------------------------------------------------------
 
                    Orbital Energies (a.u.)
 --------------------------------------------------------------
 
 Alpha MOs
 -- Occupied --
-19.1787 -14.4337 -10.3769 -10.2731  -1.1730  -1.0478  -0.8705  -0.7133
 -0.6608  -0.5889  -0.5697  -0.5182  -0.5089  -0.4827  -0.3842  -0.3674
 -- Virtual --
  0.0589   0.0906   0.0927   0.0983   0.1254   0.1280   0.1359   0.1408
  0.1677   0.1821   0.1944   0.2101   0.2249   0.2381   0.2436   0.2557
  0.2584   0.2723   0.2989   0.3099   0.3276   0.3286   0.3436   0.3446
  0.3537   0.3668   0.3695   0.3765   0.3909   0.4001   0.4121   0.4207
  0.4266   0.4493   0.4569   0.4772   0.4805   0.4850   0.4877   0.5016
  0.5285   0.5337   0.5393   0.5648   0.5874   0.5902   0.6203   0.6341
  0.6545   0.6562   0.6654   0.6785   0.6972   0.7212   0.7312   0.7642
  0.7784   0.7809   0.7912   0.8049   0.8122   0.8317   0.8455   0.8725
  0.9092   0.9448   0.9741   0.9917   0.9972   1.0172   1.0492   1.1066
  1.1109   1.1753   1.2224   1.2492   1.2898   1.3144   1.3374   1.3823
  1.4640   1.4870   1.5028   1.6246   1.6793   1.7294   1.7445   1.8004
  1.8376   1.8544   1.8851   1.9124   1.9225   1.9462   1.9801   2.0194
  2.0442   2.0913   2.1433   2.1894   2.2341   2.2371   2.2996   2.3266
  2.3804   2.3982   2.4395   2.4762   2.5487   2.5641   2.5936   2.6259
  2.6675   2.7278   2.7456   2.8233   2.8406   2.8910   2.9505   2.9869
  3.0159   3.0935   3.1336   3.1804   3.2034   3.2257   3.2682   3.2892
  3.3095   3.3404   3.3417   3.4070   3.4669   3.4945   3.5278   3.5809
  3.6370   3.6403   3.6758   3.7376   3.9091   3.9256   3.9875   4.0246
  4.0491   4.1738   4.2452   4.4410   4.5562   4.5911   4.6137   4.6544
  4.7785   4.8908   4.8986   4.9311   5.1375   5.1815   5.2625   5.3384
  5.3808   5.4067   5.4164   5.4687   5.5177   5.7776   5.9112   6.1192
  6.2750   6.5263   6.6417   6.7395   6.8338   6.9854   7.2303   7.3246
 22.5823  23.5886  32.4127  44.3134
 --------------------------------------------------------------
 
          Ground-State Mulliken Net Atomic Charges

     Atom                 Charge (a.u.)
  ----------------------------------------
      1 C                    -0.635320
      2 C                     0.415084
      3 O                    -0.579788
      4 N                    -0.270630
      5 H                     0.222631
      6 H                     0.200313
      7 H                     0.245786
      8 H                     0.207968
      9 H                     0.193956
  ----------------------------------------
  Sum of atomic charges =     0.000000

 -----------------------------------------------------------------
                    Cartesian Multipole Moments
 -----------------------------------------------------------------
    Charge (ESU x 10^10)
                 0.0000
    Dipole Moment (Debye)
         X      -5.0482      Y       0.0889      Z       1.2001
       Tot       5.1897
    Quadrupole Moments (Debye-Ang)
        XX     -31.4442     XY       1.4464     YY     -20.2639
        XZ      -9.6583     YZ       0.7849     ZZ     -20.1185
    Octopole Moments (Debye-Ang^2)
       XXX     -56.3559    XXY      -6.2082    XYY     -11.8073
       YYY     -24.9497    XXZ     -64.2717    XYZ       3.7301
       YYZ     -45.0296    XZZ     -30.1346    YZZ      -2.5409
       ZZZ    -147.3492
    Hexadecapole Moments (Debye-Ang^3)
      XXXX    -194.5123   XXXY      -6.0335   XXYY     -56.5595
      XYYY      -6.6805   YYYY    -157.4701   XXXZ    -110.4690
      XXYZ     -19.9194   XYYZ     -20.5200   YYYZ     -72.6409
      XXZZ    -167.5416   XYZZ       5.9992   YYZZ    -135.5436
      XZZZ    -104.9151   YZZZ     -48.0222   ZZZZ    -709.7588
 -----------------------------------------------------------------
Archival summary:
1\1\nid00543\SP\ProcedureUnspecified\BasisUnspecified\1125\meili\SunSep2616:06:062021SunSep2616:06:062021\0\\#,ProcedureUnspecified,BasisUnspecified,\\0,1\C\O,1,1.22786\N,1,1.3226,2,121.99\H,3,1.01109,1,117.375,2,13.6697,0\H,3,1.01184,1,119.943,2,175.836,0\C,1,1.51961,2,121.542,3,-179.766,0\H,6,1.09089,1,108.9,2,102.667,0\H,6,1.09153,1,108.204,2,-140.277,0\H,6,1.1,1,112.736,2,-20.4153,0\\\@

 Total job time:  6696.63s(wall), 12667.87s(cpu) 
 Sun Sep 26 16:06:08 2021

        *************************************************************
        *                                                           *
        *  Thank you very much for using Q-Chem.  Have a nice day.  *
        *                                                           *
        *************************************************************


Done Job For Fragment 0
calling putenv with: QCSCRATCH=/global/cscratch1/sd/meili 
calling putenv with: QCLOCALSCR=/tmp 
calling putenv with: QCTHREADS=32 
Creating input file /tmp/qchem27010/Frg2.input
using default PutDataFrgm: nothing
calling putenv with: QCSCRATCH=/tmp/qchem27010/ 
calling putenv with: QCLOCALSCR=/tmp/qchem27010/ 
Spawning Job For Fragment 1
                  Welcome to Q-Chem
     A Quantum Leap Into The Future Of Chemistry


 Q-Chem 5.2, Q-Chem, Inc., Pleasanton, CA (2019)

 License issued to: National Energy Research Scientific Computing Center

 Yihan Shao,  Zhengting Gan,  E. Epifanovsky,  A. T. B. Gilbert,  M. Wormit,  
 J. Kussmann,  A. W. Lange,  A. Behn,  Jia Deng,  Xintian Feng,  D. Ghosh,  
 M. Goldey,  P. R. Horn,  L. D. Jacobson,  I. Kaliman,  T. Kus,  A. Landau,  
 Jie Liu,  E. I. Proynov,  R. M. Richard,  R. P. Steele,  E. J. Sundstrom,  
 H. L. Woodcock III,  P. M. Zimmerman,  D. Zuev,  B. Albrecht,  E. Alguire,  
 S. A. Baeppler,  D. Barton,  Z. Benda,  Y. A. Bernard,  E. J. Berquist,  
 K. B. Bravaya,  H. Burton,  D. Casanova,  Chun-Min Chang,  Yunqing Chen,  
 A. Chien,  K. D. Closser,  M. P. Coons,  S. Coriani,  S. Dasgupta,  
 A. L. Dempwolff,  M. Diedenhofen,  Hainam Do,  R. G. Edgar,  Po-Tung Fang,  
 S. Faraji,  S. Fatehi,  Qingguo Feng,  K. D. Fenk,  J. Fosso-Tande,  
 J. Gayvert,  Qinghui Ge,  A. Ghysels,  G. Gidofalvi,  J. Gomes,  
 J. Gonthier,  A. Gunina,  D. Hait,  M. W. D. Hanson-Heine,  
 P. H. P. Harbach,  A. W. Hauser,  M. F. Herbst,  J. E. Herr,  
 E. G. Hohenstein,  Z. C. Holden,  Kerwin Hui,  B. C. Huynh,  T.-C. Jagau,  
 Hyunjun Ji,  B. Kaduk,  K. Khistyaev,  Jaehoon Kim,  P. Klunzinger,  K. Koh,  
 D. Kosenkov,  L. Koulias,  T. Kowalczyk,  C. M. Krauter,  A. Kunitsa,  
 Ka Un Lao,  A. Laurent,  K. V. Lawler,  Joonho Lee,  D. Lefrancois,  
 S. Lehtola,  D. S. Levine,  Yi-Pei Li,  You-Sheng Lin,  Fenglai Liu,  
 E. Livshits,  A. Luenser,  P. Manohar,  E. Mansoor,  S. F. Manzer,  
 Shan-Ping Mao,  Yuezhi Mao,  N. Mardirossian,  A. V. Marenich,  
 T. Markovich,  L. A. Martinez-Martinez,  S. A. Maurer,  N. J. Mayhall,  
 S. C. McKenzie,  J.-M. Mewes,  P. Morgante,  A. F. Morrison,  
 J. W. Mullinax,  K. Nanda,  T. S. Nguyen-Beck,  R. Olivares-Amaya,  
 J. A. Parkhill,  Zheng Pei,  T. M. Perrine,  F. Plasser,  P. Pokhilko,  
 S. Prager,  A. Prociuk,  E. Ramos,  D. R. Rehn,  F. Rob,  M. Scheurer,  
 M. Schneider,  N. Sergueev,  S. M. Sharada,  S. Sharma,  D. W. Small,  
 T. Stauch,  T. Stein,  Yu-Chuan Su,  A. J. W. Thom,  A. Tkatchenko,  
 T. Tsuchimochi,  N. M. Tubman,  L. Vogt,  M. L. Vidal,  O. Vydrov,  
 M. A. Watson,  J. Wenzel,  M. de Wergifosse,  T. A. Wesolowski,  A. White,  
 J. Witte,  A. Yamada,  Jun Yang,  K. Yao,  S. Yeganeh,  S. R. Yost,  
 Zhi-Qiang You,  A. Zech,  Igor Ying Zhang,  Xing Zhang,  Yan Zhao,  
 Ying Zhu,  B. R. Brooks,  G. K. L. Chan,  C. J. Cramer,  M. S. Gordon,  
 W. J. Hehre,  A. Klamt,  M. W. Schmidt,  C. D. Sherrill,  D. G. Truhlar,  
 A. Aspuru-Guzik,  R. Baer,  A. T. Bell,  N. A. Besley,  Jeng-Da Chai,  
 A. E. DePrince, III,  R. A. DiStasio Jr.,  A. Dreuw,  B. D. Dunietz,  
 T. R. Furlani,  Chao-Ping Hsu,  Yousung Jung,  Jing Kong,  D. S. Lambrecht,  
 WanZhen Liang,  C. Ochsenfeld,  V. A. Rassolov,  L. V. Slipchenko,  
 J. E. Subotnik,  T. Van Voorhis,  J. M. Herbert,  A. I. Krylov,  
 P. M. W. Gill,  M. Head-Gordon

 Contributors to earlier versions of Q-Chem not listed above: 
 R. D. Adamson,  B. Austin,  J. Baker,  G. J. O. Beran,  K. Brandhorst,  
 S. T. Brown,  E. F. C. Byrd,  A. K. Chakraborty,  C.-L. Cheng,  
 Siu Hung Chien,  D. M. Chipman,  D. L. Crittenden,  H. Dachsel,  
 R. J. Doerksen,  A. D. Dutoi,  L. Fusti-Molnar,  W. A. Goddard III,  
 A. Golubeva-Zadorozhnaya,  S. R. Gwaltney,  G. Hawkins,  A. Heyden,  
 S. Hirata,  G. Kedziora,  F. J. Keil,  C. Kelley,  Jihan Kim,  R. A. King,  
 R. Z. Khaliullin,  P. P. Korambath,  W. Kurlancheek,  A. M. Lee,  M. S. Lee,  
 S. V. Levchenko,  Ching Yeh Lin,  D. Liotard,  R. C. Lochan,  I. Lotan,  
 P. E. Maslen,  N. Nair,  D. P. O'Neill,  D. Neuhauser,  E. Neuscamman,  
 C. M. Oana,  R. Olson,  B. Peters,  R. Peverati,  P. A. Pieniazek,  
 Y. M. Rhee,  J. Ritchie,  M. A. Rohrdanz,  E. Rosta,  N. J. Russ,  
 H. F. Schaefer III,  N. E. Schultz,  N. Shenvi,  A. C. Simmonett,  A. Sodt,  
 D. Stuck,  K. S. Thanthiriwatte,  V. Vanovschi,  Tao Wang,  A. Warshel,  
 C. F. Williams,  Q. Wu,  X. Xu,  W. Zhang

 Please cite Q-Chem as follows:
 Y. Shao et al., Mol. Phys. 113, 184-215 (2015)
 DOI: 10.1080/00268976.2014.952696

 Q-Chem 5.2.0 for Intel X86 EM64T Linux

 Parts of Q-Chem use Armadillo 8.300.2 (Tropical Shenanigans).
 http://arma.sourceforge.net/

 Q-Chem begins on Sun Sep 26 16:06:10 2021  

Host: cori01
0

     Scratch files written to /tmp/qchem27010//Frg2//
 May1019 |scratch|qcdevops|jenkins|workspace|build_RNUM -1
Processing $rem in /global/common/cori/software/qchem/5.2/config/preferences:
	 MEM_TOTAL  96000 
NAlpha2: 32
NElect   32
Mult     1
Symmetry turned off for PCM/SM12/SMD calculation

Checking the input file for inconsistencies... 	...done.

--------------------------------------------------------------
User input:
--------------------------------------------------------------
$molecule
0 1
 6	-0.6044217390	1.1695641471	-1.6917774005
 6	-0.5174217390	-0.2504358529	-2.2147774005
 8	-0.5264217390	-0.4864358529	-3.4217774005
 7	-0.4404217390	-1.2104358529	-1.3077774005
 1	-0.4054217390	-2.1684358529	-1.6267774005
 1	-0.4734217390	-0.9874358529	-0.3257774005
 1	-0.8164217390	1.1575641471	-0.6217774005
 1	-1.4504217390	1.6455641471	-2.1907774005
 1	0.3081382610	1.7523101471	-1.8857874005
$end
$rem
EDA2		1
METHOD		WB97X-V
BASIS		DEF2-TZVPD
XC_GRID		000099000590
NL_GRID		1
UNRESTRICTED		FALSE
MAX_SCF_CYCLES		200
SYMMETRY		FALSE
SYM_IGNORE		TRUE
BASIS_LIN_DEP_THRESH		6
THRESH		14
SCF_CONVERGENCE		8
SCF_PRINT_FRGM		TRUE
SOLVENT_METHOD		PCM
!required keywords
JOBTYPE		SP
SYM_IGNORE		TRUE
SUBSYSTEM		TRUE
GEN_SCFMAN		TRUE
CHILD_INSTRUCTION		2
SYM_IGNORE		TRUE
SCFMI		0
RI_K 0		
PARI_K 0		
MIN_PARI_K 0		
IARI_K 0		
OCC_RI_K 0		
PURECART		1111
MEM_STATIC		2000
MEM_TOTAL		96000
GUI		0
CHILD_MP		1
CHILD_MP_ORDERS		232
FRZ_RELAX		0
FRZ_RELAX_METHOD		0
EDA_CLS_ELEC		1
EDA_CLS_DISP		0
FRZ_ORTHO_DECOMP		1
EDA2		FALSE
FRGM_METHOD		FALSE
CIS_N_ROOTS  0
LOCAL_CIS    0
CIS_RLX_DNS  1
$end
$pcm
THEORY                  CPCM
METHOD                  SWIG
SOLVER                  INVERSION
RADII                   UFF
HPOINTS                 302
HEAVYPOINTS             302
PRINTLEVEL              0
$end
$solvent
DIELECTRIC              78.390000 ! water
$end
--------------------------------------------------------------
 ----------------------------------------------------------------
             Standard Nuclear Orientation (Angstroms)
    I     Atom           X                Y                Z
 ----------------------------------------------------------------
    1      C      -0.6044217390     1.1695641471    -1.6917774005
    2      C      -0.5174217390    -0.2504358529    -2.2147774005
    3      O      -0.5264217390    -0.4864358529    -3.4217774005
    4      N      -0.4404217390    -1.2104358529    -1.3077774005
    5      H      -0.4054217390    -2.1684358529    -1.6267774005
    6      H      -0.4734217390    -0.9874358529    -0.3257774005
    7      H      -0.8164217390     1.1575641471    -0.6217774005
    8      H      -1.4504217390     1.6455641471    -2.1907774005
    9      H       0.3081382610     1.7523101471    -1.8857874005
 ----------------------------------------------------------------
 Nuclear Repulsion Energy =         122.37571690 hartrees
 There are       16 alpha and       16 beta electrons
 Requested basis set is def2-TZVPD
 There are 78 shells and 196 basis functions

 Total QAlloc Memory Limit  96000 MB
 Mega-Array Size      1956 MB
 MEM_STATIC part      2000 MB
 Discretize the solute cavity surface with Lebedev spheres
	Using 302 Lebedev grid points for each H atom
	Using 302 Lebedev grid points for other atoms
	Atomic van der Waals radii will be scaled by 1.20
 Remove points where switching function is < 1.0e-08
 Keep 1203 surface tesserae and discard 1515 interior tesserae
 Molecular Surface Area = 128.240 Angst**2

                       Distance Matrix (Angstroms)
             C (  1)   C (  2)   O (  3)   N (  4)   H (  5)   H (  6)
   C (  2)  1.515750
   O (  3)  2.396105  1.229889
   N (  4)  2.416351  1.322943  2.236195
   H (  5)  3.344558  2.009232  2.462882  1.010322
   H (  6)  2.556514  2.028158  3.136722  1.007543  1.758404
   H (  7)  1.090866  2.146978  3.259883  2.493872  3.498746  2.192325
   H (  8)  1.091464  2.113263  2.629555  3.155396  3.994586  3.371267
   H (  9)  1.099999  2.191067  2.840377  3.110032  3.993558  3.248180
             H (  7)   H (  8)
   H (  8)  1.761210
   H (  9)  1.793343  1.788001
 
 A cutoff of  1.0D-14 yielded   3054 shell pairs
 There are     19544 function pairs (     24702 Cartesian)
 Smallest overlap matrix eigenvalue = 1.10E-05

 Scale SEOQF with 1.000000e-01/1.000000e-01/1.000000e-01

 Standard Electronic Orientation quadrupole field applied
 Nucleus-field energy     =    -0.0000000148 hartrees
 Guess from superposition of atomic densities
 Warning:  Energy on first SCF cycle will be non-variational
 SAD guess density has 31.604610 electrons

 -----------------------------------------------------------------------
  General SCF calculation program by
  Eric Jon Sundstrom, Paul Horn, Yuezhi Mao, Dmitri Zuev, Alec White,
  David Stuck, Shaama M.S., Shane Yost, Joonho Lee, David Small,
  Daniel Levine, Susi Lehtola, Hugh Burton, Evgeny Epifanovsky
 -----------------------------------------------------------------------
 Exchange:     0.1670 Hartree-Fock + 1.0000 wB97X-V + LR-HF
 Correlation:  1.0000 wB97X-V
 Using Euler-Maclaurin-Lebedev (99,590) quadrature formula
 Nonlocal Correlation:  VV10 with C = 0.0100 and b = 6.00 and scale = 1.00000
 Grid used for NLC:  SG-1 standard quadrature
Energy prior to optimization (guess energy) = -208.705375091943
Begin Timing: Total SCF Calculation
begin iterations for algorithm: DIIS         
the SCF tolerance is set to 1.00e-08
    1    -208.7053750919      1.25e-02     00000 
    2    -208.3271661598      1.55e-02     00000 
    3    -209.2233969684      2.48e-03     00000 
    4    -209.2431753399      8.19e-04     00000 
    5    -209.2458297047      1.25e-04     00000 
    6    -209.2459276042      4.90e-05     00000 
    7    -209.2459447748      1.10e-05     00000 
    8    -209.2459459263      2.11e-06     00000 
    9    -209.2459460170      7.66e-07     00000 
   10    -209.2459460226      3.19e-07     00000 
   11    -209.2459460235      7.08e-08     00000 
   12    -209.2459460236      1.71e-08     00000 
   13    -209.2459460236      4.44e-09     00000 Convergence criterion met
Timing for Total SCF: 363.00s (wall), 718.39s (cpu)

************** Final PCM Free Energy Summary **************
 G_electrostatic  =      -0.01222837 hartree =      -7.67341579 kcal/mol
 G_cavitation     =       0.00000000 hartree =       0.00000000 kcal/mol
 G_dispersion     =       0.00000000 hartree =       0.00000000 kcal/mol
 G_repulsion      =       0.00000000 hartree =       0.00000000 kcal/mol
 --------------------------------------------------
 Non-electrostatic Free Energy =       0.00000000 hartree =       0.00000000 kcal/mol
 Total                         =      -0.01222837 hartree =      -7.67341579 kcal/mol
 --------------------------------------------------
 SCF Energy (H0 + V/2)                       =    -209.24594602 
 Solute Internal Energy (H0)                 =    -209.23371766 
 Total Free Energy (H0 + V/2 + non-elec)     =    -209.24594602 hartree
                                             = -131303.81289816 kcal/mol
***********************************************************

E_pcm = -0.0122283665
Multipole orders to be included
        2
        3
computing dipole RHS
computing quadrupole RHS
total number of RHS in solve_reponses: 8
RHS batch sizes
        8
Beginning Block Conjugate Gradient Iterations. Batch Number: 0
computing hessian-vector products by finite difference
              1      6.70e-01     00000 Conjugate Gradient Iteration
computing hessian-vector products by finite difference
              2      2.25e-01     00000 Conjugate Gradient Iteration
computing hessian-vector products by finite difference
              3      5.80e-02     00000 Conjugate Gradient Iteration
computing hessian-vector products by finite difference
              4      1.45e-02     00000 Conjugate Gradient Iteration
computing hessian-vector products by finite difference
              5      2.28e-03     00000 Conjugate Gradient Iteration
computing hessian-vector products by finite difference
              6      5.02e-04     00000 Conjugate Gradient Iteration
computing hessian-vector products by finite difference
              7      7.49e-05     00000 Conjugate Gradient Iteration
computing hessian-vector products by finite difference
              8      8.71e-06     00000 Conjugate Gradient Iteration
computing hessian-vector products by finite difference
              9      1.18e-06     00000 Conjugate Gradient Iteration
computing hessian-vector products by finite difference
             10      1.29e-07     00000 Conjugate Gradient Iteration
computing hessian-vector products by finite difference
             11      1.66e-08     00000 Conjugate Gradient Iteration
computing hessian-vector products by finite difference
             12      2.58e-09     00000 CG Converged
batch 0 complete
Done Calculating Responses
TESTING ORTHOGONALIZATION OF MULTIPOLE BASIS
Multipole virts passed orthogonality test
Virts Per Order
        48
        80
 
 --------------------------------------------------------------
 
                    Orbital Energies (a.u.)
 --------------------------------------------------------------
 
 Alpha MOs
 -- Occupied --
-19.1774 -14.4356 -10.3770 -10.2733  -1.1714  -1.0482  -0.8711  -0.7153
 -0.6640  -0.5900  -0.5687  -0.5174  -0.5073  -0.4833  -0.3833  -0.3680
 -- Virtual --
  0.0596   0.0913   0.0929   0.0972   0.1273   0.1292   0.1325   0.1445
  0.1753   0.1797   0.1875   0.2085   0.2248   0.2433   0.2506   0.2583
  0.2617   0.2693   0.2957   0.3093   0.3259   0.3313   0.3404   0.3503
  0.3541   0.3616   0.3661   0.3726   0.3854   0.3970   0.4148   0.4234
  0.4354   0.4556   0.4621   0.4690   0.4753   0.4951   0.4964   0.5029
  0.5155   0.5301   0.5552   0.5638   0.5775   0.5918   0.6166   0.6334
  0.6343   0.6524   0.6718   0.6969   0.7017   0.7286   0.7311   0.7595
  0.7708   0.7754   0.7916   0.8053   0.8160   0.8318   0.8484   0.8760
  0.9075   0.9548   0.9720   0.9935   1.0204   1.0211   1.0542   1.1088
  1.1139   1.1699   1.2205   1.2423   1.2893   1.3156   1.3367   1.3866
  1.4686   1.4900   1.5169   1.6141   1.6809   1.7189   1.7365   1.8050
  1.8456   1.8677   1.8788   1.9092   1.9372   1.9552   1.9720   2.0412
  2.0501   2.0812   2.1305   2.1696   2.1882   2.2221   2.3136   2.3686
  2.4177   2.4208   2.4726   2.4853   2.5184   2.5676   2.5859   2.6076
  2.6541   2.6852   2.7798   2.8050   2.8483   2.8898   2.9374   2.9787
  3.0616   3.0861   3.1326   3.1533   3.1986   3.2154   3.2633   3.2969
  3.3113   3.3402   3.3824   3.4118   3.4575   3.5002   3.5279   3.5606
  3.6077   3.6732   3.6850   3.8144   3.8634   3.9447   4.0135   4.0401
  4.0656   4.1936   4.3022   4.4198   4.4756   4.6062   4.6280   4.6618
  4.7760   4.8873   4.8911   4.9325   5.1380   5.1778   5.2619   5.3456
  5.3791   5.4049   5.4118   5.4907   5.5294   5.7747   5.9184   6.1476
  6.2515   6.5285   6.6443   6.7441   6.8375   6.9739   7.2239   7.3268
 22.5774  23.5872  32.4043  44.2984
 --------------------------------------------------------------
 
          Ground-State Mulliken Net Atomic Charges

     Atom                 Charge (a.u.)
  ----------------------------------------
      1 C                    -0.562312
      2 C                     0.395614
      3 O                    -0.585423
      4 N                    -0.255372
      5 H                     0.203303
      6 H                     0.199269
      7 H                     0.228616
      8 H                     0.183296
      9 H                     0.193008
  ----------------------------------------
  Sum of atomic charges =     0.000000

 -----------------------------------------------------------------
                    Cartesian Multipole Moments
 -----------------------------------------------------------------
    Charge (ESU x 10^10)
                 0.0000
    Dipole Moment (Debye)
         X      -0.0163      Y      -0.0752      Z       5.1813
       Tot       5.1819
    Quadrupole Moments (Debye-Ang)
        XX     -25.1041     XY      -0.1419     YY     -19.8685
        XZ      -2.6982     YZ      -3.1523     ZZ     -48.8022
    Octopole Moments (Debye-Ang^2)
       XXX      39.6502    XXY       5.6625    XYY      11.5206
       YYY      -0.8552    XXZ      52.8023    XYZ       2.0190
       YYZ      45.3914    XZZ      25.4140    YZZ      16.4302
       ZZZ     254.8561
    Hexadecapole Moments (Debye-Ang^3)
      XXXX     -74.3248   XXXY      -3.6690   XXYY     -40.8084
      XYYY       4.1588   YYYY    -144.8903   XXXZ     -82.3035
      XXYZ     -13.4719   XYYZ     -25.5167   YYYZ      -9.7648
      XXZZ    -148.1854   XYZZ      -8.3853   YYZZ    -154.9265
      XZZZ    -133.6234   YZZZ     -74.2827   ZZZZ   -1171.2584
 -----------------------------------------------------------------
Archival summary:
1\1\nid00543\SP\ProcedureUnspecified\BasisUnspecified\1125\meili\SunSep2617:51:402021SunSep2617:51:402021\0\\#,ProcedureUnspecified,BasisUnspecified,\\0,1\C\O,1,1.22989\N,1,1.32294,2,122.277\H,3,1.00754,1,120.378,2,-177.473,0\H,3,1.01032,1,118.27,2,-1.15226,0\C,1,1.51575,2,121.196,3,-179.58,0\H,6,1.09087,1,109.834,2,166.782,0\H,6,1.09146,1,107.176,2,50.1553,0\H,6,1.1,1,112.82,2,-70.2641,0\\\@

 Total job time:  6332.03s(wall), 12263.18s(cpu) 
 Sun Sep 26 17:51:42 2021

        *************************************************************
        *                                                           *
        *  Thank you very much for using Q-Chem.  Have a nice day.  *
        *                                                           *
        *************************************************************


Done Job For Fragment 1
calling putenv with: QCSCRATCH=/global/cscratch1/sd/meili 
calling putenv with: QCLOCALSCR=/tmp 
calling putenv with: QCTHREADS=32 
Doing General SCFMI
 Exchange:     0.1670 Hartree-Fock + 1.0000 wB97X-V + LR-HF
 Correlation:  1.0000 wB97X-V
 Using Euler-Maclaurin-Lebedev (99,590) quadrature formula
 Nonlocal Correlation:  VV10 with C = 0.0100 and b = 6.00 and scale = 1.00000
 Grid used for NLC:  SG-1 standard quadrature
performing fock build before subrot guess so that all methods have access
Printing subrot_rss_gen Method Specification:
Occupied Subspace Method is 0
Virtual Subspace Method is 0
Energy of the unrelaxed supersystem initial determinant -418.466148084784
performing fock build before subrot guess so that all methods have access
Printing subrot_rss_gen Method Specification:
Occupied Subspace Method is 0
Virtual Subspace Method is 0
Energy of the unrelaxed supersystem initial determinant w/ solvent -418.491202984196
write pseudocanon occs and virts to disk
write pseudocanon orbital energies to disk
Tolerance of ortho_decomp_scf: 1.00e-06
GDM subspace size: 20
Beginning the Orthogonal Decomposition of the Initial Supersystem Wavefunction
    1    -418.4493220810      3.43e-02     ortho_decomp Preconditoned Steepest Descent
    2    -418.4509920461      7.86e-04     ortho_decomp BFGS Step
    3    -418.4509965421      5.57e-05     ortho_decomp BFGS Step
    4    -418.4509965498      2.24e-06     ortho_decomp BFGS Step
    5    -418.4509965498      7.94e-08     ortho_decomp 00000 Convergence criterion met
 Hartree-Fock
 Hartree-Fock
 Hartree-Fock
Doing General SCFMI
 Exchange:     0.1670 Hartree-Fock + 1.0000 wB97X-V + LR-HF
 Correlation:  1.0000 wB97X-V
 Using Euler-Maclaurin-Lebedev (99,590) quadrature formula
 Nonlocal Correlation:  VV10 with C = 0.0100 and b = 6.00 and scale = 1.00000
 Grid used for NLC:  SG-1 standard quadrature
performing fock build at end of subrot_r(subrot) constructor so that all methods have access
<S^2> of initial wavefunction before polarization iterations 0.0000000000
Beginning iterations for the determination of the polarized wavefunction
Energy prior to optimization (guess energy) = -418.491202984196
Begin Timing: Total SCF Calculation
begin iterations for algorithm: DIIS         
the SCF tolerance is set to 1.00e-08
    1    -418.4912029842      1.49e-04     00000 
    2    -418.4921615033      5.75e-05     00000 
    3    -418.4922384092      3.64e-05     00000 
    4    -418.4922644191      1.64e-05     00000 
    5    -418.4922707132      4.13e-06     00000 
    6    -418.4922715758      2.23e-06     00000 
    7    -418.4922717675      6.97e-07     00000 
    8    -418.4922717851      3.21e-07     00000 
    9    -418.4922717868      1.53e-07     00000 
   10    -418.4922717870      8.55e-08     00000 
   11    -418.4922717871      4.61e-08     00000 
   12    -418.4922717872      1.09e-08     00000 
   13    -418.4922717872      3.58e-09     00000 Convergence criterion met
write pseudocanon occs and virts to disk
write pseudocanon orbital energies to disk
Timing for Total SCF: 2188.00s (wall), 4331.96s (cpu)
<S^2> of polarized wavefunction after polarization iterations 0.0000000000
relaxing scfmi constraint to allow all rotations in the entire AO span
Doing General SCFMI
 Exchange:     0.1670 Hartree-Fock + 1.0000 wB97X-V + LR-HF
 Correlation:  1.0000 wB97X-V
 Using Euler-Maclaurin-Lebedev (99,590) quadrature formula
 Nonlocal Correlation:  VV10 with C = 0.0100 and b = 6.00 and scale = 1.00000
 Grid used for NLC:  SG-1 standard quadrature
performing fock build at end of subrot_r(subrot) constructor so that all methods have access
<S^2> of polarized wavefunction before ct-allowed iterations 0.0000000000
Beginning iterations for the determination of the CT-Allowed wavefunction
Energy prior to optimization (guess energy) = -418.492271787171
Begin Timing: Total SCF Calculation
begin iterations for algorithm: DIIS         
the SCF tolerance is set to 1.00e-08
    1    -418.4922717872      1.28e-04     00000 
    2    -418.4937444316      1.73e-05     00000 
    3    -418.4937991937      4.67e-06     00000 
    4    -418.4938012102      3.58e-06     00000 
    5    -418.4938020863      7.59e-07     00000 
    6    -418.4938021339      3.52e-07     00000 
    7    -418.4938021489      7.97e-08     00000 
    8    -418.4938021498      2.88e-08     00000 
    9    -418.4938021499      7.43e-09     00000 Convergence criterion met
write pseudocanon occs and virts to disk
write pseudocanon orbital energies to disk
Timing for Total SCF: 1483.00s (wall), 2940.91s (cpu)
<S^2> of ct_allowed wavefunction after ct-allowed iterations 0.0000000000

================================
        Results of EDA2         
================================
Basic EDA Quantities
--------------------
Fragment Energies (Ha):
1 -209.2449372987
2 -209.2459460236
--------------------
  E_prp (kJ/mol) = 0.0000
  E_sol (kJ/mol) = -1.7709
  E_frz (kJ/mol) = 0.9316
  E_pol (kJ/mol) = -2.8062
  E_vct (kJ/mol) = -4.0180
  E_int (kJ/mol) = -7.6635
--------------------


Initial Wavefunction Decomposition
--------------------
  --------------------
  Orthogonal Fragment Subspace Decomposition:
  --------------------
     E_elec   (ELEC)   (kJ/mol) = -19.5828
     E_pauli  (PAULI)  (kJ/mol) = 32.1829
     E_disp   (DISP)   (kJ/mol) = -11.6685
     --------------------
     Terms summing to E_pauli:
     --------------------
        E_kep_pauli       (kJ/mol) = 40.7125
        E_disp_free_pauli (kJ/mol) = -8.5296
  --------------------
  Classical Frozen Decomposition:
  --------------------
     E_cls_elec  (CLS ELEC)  (kJ/mol) = -6.1473
     E_cls_pauli (CLS PAULI) (kJ/mol) = 7.0789
    [E_mod_pauli (MOD PAULI) (kJ/mol) = 18.7474 (CLS PAULI - DISP from orthogonal decomposition) ]
  --------------------
--------------------

Simplified EDA Summary (kJ/mol)
--------------------
 PREPARATION     0.0000
 SOLVATION       -1.7709
 FROZEN          12.6001      (does not include dispersion)
[PAULI           32.1829]     (if this is negligible, then frozen describes electrostatics)
 DISPERSION      -11.6685
 POLARIZATION    -2.8062
 CHARGE TRANSFER -4.0180
 TOTAL           -7.6635     (PRP + SOL + FRZ + DISP + POL + CT)
--------------------
 
 --------------------------------------------------------------
 
                    Orbital Energies (a.u.)
 --------------------------------------------------------------
 
 Alpha MOs
 -- Occupied --
-19.1863 -19.1769 -14.4444 -14.4329 -10.3845 -10.3765 -10.2775 -10.2745
 -1.1809  -1.1708  -1.0587  -1.0466  -0.8763  -0.8715  -0.7236  -0.7142
 -0.6717  -0.6626  -0.5953  -0.5909  -0.5764  -0.5687  -0.5246  -0.5173
 -0.5135  -0.5079  -0.4890  -0.4832  -0.3952  -0.3822  -0.3737  -0.3674
 -- Virtual --
  0.0520   0.0699   0.0808   0.0838   0.0921   0.0983   0.1039   0.1129
  0.1185   0.1264   0.1305   0.1332   0.1363   0.1433   0.1548   0.1634
  0.1752   0.1865   0.1938   0.1996   0.2015   0.2104   0.2196   0.2232
  0.2374   0.2431   0.2455   0.2592   0.2621   0.2652   0.2705   0.2829
  0.2854   0.2915   0.3024   0.3094   0.3144   0.3226   0.3250   0.3312
  0.3373   0.3393   0.3411   0.3494   0.3531   0.3574   0.3610   0.3668
  0.3735   0.3755   0.3845   0.3894   0.3957   0.3988   0.4047   0.4123
  0.4252   0.4313   0.4409   0.4482   0.4500   0.4556   0.4626   0.4644
  0.4732   0.4763   0.4831   0.4867   0.4928   0.4976   0.5059   0.5140
  0.5151   0.5240   0.5299   0.5334   0.5390   0.5475   0.5606   0.5672
  0.5737   0.5831   0.5904   0.5938   0.5951   0.6018   0.6121   0.6176
  0.6354   0.6404   0.6489   0.6574   0.6617   0.6744   0.6831   0.6890
  0.6969   0.7029   0.7058   0.7126   0.7181   0.7242   0.7349   0.7370
  0.7417   0.7565   0.7629   0.7725   0.7764   0.7851   0.7959   0.7974
  0.8005   0.8062   0.8224   0.8311   0.8328   0.8476   0.8551   0.8623
  0.8687   0.8773   0.8875   0.8931   0.9110   0.9163   0.9271   0.9472
  0.9769   0.9873   1.0026   1.0037   1.0109   1.0209   1.0478   1.0566
  1.0677   1.0769   1.0891   1.1105   1.1181   1.1273   1.1434   1.1466
  1.1785   1.2021   1.2208   1.2420   1.2699   1.2760   1.2957   1.3032
  1.3166   1.3289   1.3354   1.3493   1.3833   1.4005   1.4122   1.4677
  1.4846   1.4948   1.5087   1.5257   1.5590   1.5693   1.6417   1.6664
  1.6967   1.7318   1.7491   1.7698   1.7772   1.8043   1.8388   1.8488
  1.8830   1.8880   1.9030   1.9060   1.9164   1.9223   1.9343   1.9439
  1.9555   1.9723   1.9803   1.9998   2.0170   2.0306   2.0517   2.0634
  2.0756   2.1003   2.1269   2.1417   2.1509   2.1852   2.1920   2.2213
  2.2383   2.2571   2.2715   2.3175   2.3275   2.3432   2.3750   2.4073
  2.4264   2.4380   2.4427   2.4629   2.4872   2.5070   2.5110   2.5384
  2.5648   2.5790   2.5930   2.6085   2.6353   2.6426   2.6493   2.6779
  2.6884   2.7211   2.7389   2.7550   2.7899   2.8221   2.8409   2.8643
  2.8664   2.8860   2.9201   2.9259   2.9671   2.9917   3.0045   3.0332
  3.0862   3.1044   3.1164   3.1357   3.1446   3.1716   3.1804   3.2045
  3.2167   3.2414   3.2575   3.2603   3.2792   3.2913   3.3032   3.3298
  3.3352   3.3546   3.3594   3.3700   3.3884   3.4092   3.4219   3.4438
  3.4780   3.4997   3.5122   3.5383   3.5409   3.5465   3.6126   3.6375
  3.6450   3.6524   3.6732   3.6832   3.6987   3.7169   3.7575   3.8267
  3.8973   3.9231   3.9528   3.9640   4.0029   4.0343   4.0381   4.0560
  4.0679   4.0974   4.1789   4.2139   4.2653   4.3266   4.4404   4.4504
  4.4886   4.5721   4.5993   4.6189   4.6299   4.6486   4.6651   4.6823
  4.7880   4.7991   4.8946   4.9025   4.9265   4.9309   4.9488   4.9627
  5.1420   5.1802   5.1894   5.2051   5.2656   5.2701   5.3454   5.3566
  5.3842   5.4095   5.4140   5.4196   5.4508   5.4618   5.4986   5.5239
  5.5385   5.5490   5.7775   5.7796   5.9149   5.9383   6.1203   6.1799
  6.2534   6.2769   6.5257   6.5345   6.6516   6.6622   6.7457   6.7550
  6.8326   6.8433   6.9820   7.0032   7.2313   7.2375   7.3250   7.3396
 22.5949  22.6136  23.5968  23.6125  32.4585  32.5197  44.3720  44.4077
 --------------------------------------------------------------
 
          Ground-State Mulliken Net Atomic Charges

     Atom                 Charge (a.u.)
  ----------------------------------------
      1 C                    -0.727583
      2 C                     0.535799
      3 O                    -0.585383
      4 N                    -0.371801
      5 H                     0.265775
      6 H                     0.168667
      7 H                     0.276491
      8 H                     0.198444
      9 H                     0.202611
     10 C                    -0.371361
     11 C                     0.349355
     12 O                    -0.590829
     13 N                    -0.147943
     14 H                     0.191030
     15 H                     0.169616
     16 H                     0.050516
     17 H                     0.194759
     18 H                     0.191836
  ----------------------------------------
  Sum of atomic charges =     0.000000

 -----------------------------------------------------------------
                    Cartesian Multipole Moments
 -----------------------------------------------------------------
    Charge (ESU x 10^10)
                 0.0000
    Dipole Moment (Debye)
         X      -4.9057      Y       0.1102      Z       6.7434
       Tot       8.3398
    Quadrupole Moments (Debye-Ang)
        XX     -56.1764     XY       1.3085     YY     -39.9737
        XZ     -12.1193     YZ      -2.3128     ZZ     -67.7890
    Octopole Moments (Debye-Ang^2)
       XXX     -15.9303    XXY      -0.4663    XYY      -0.0915
       YYY     -25.2335    XXZ     -10.4707    XYZ       5.8891
       YYZ       1.3436    XZZ      -4.1909    YZZ      14.5006
       ZZZ     111.9950
    Hexadecapole Moments (Debye-Ang^3)
      XXXX    -266.4336   XXXY      -9.6713   XXYY     -96.9430
      XYYY      -2.3975   YYYY    -300.8223   XXXZ    -191.2913
      XXYZ     -33.3388   XYYZ     -45.7274   YYYZ     -81.4694
      XXZZ    -313.2455   XYZZ      -2.1689   YYZZ    -287.6199
      XZZZ    -237.5313   YZZZ    -121.0434   ZZZZ   -1868.4450
 -----------------------------------------------------------------
Archival summary:
1\1\nid00543\SP\ProcedureUnspecified\BasisUnspecified\22410\meili\SunSep2619:35:252021SunSep2619:35:252021\0\\#,ProcedureUnspecified,BasisUnspecified,\\0,1\O\C,1,1.22786\N,2,1.3226,1,121.99\H,3,1.01109,2,117.375,1,13.6697,0\H,3,1.01184,2,119.943,1,175.836,0\C,2,1.51961,1,121.542,3,-179.766,0\H,6,1.09089,2,108.9,1,102.667,0\H,6,1.09153,2,108.204,1,-140.277,0\H,6,1.1,2,112.736,1,-20.4153,0\H,4,2.28794,3,78.0768,2,-98.0221,0\N,10,1.00754,4,147.706,3,175.721,0\H,11,1.01032,10,121.248,4,18.542,0\C,11,1.32294,10,120.378,4,-165.249,0\O,13,1.22989,11,122.277,10,-177.473,0\C,13,1.51575,11,116.526,10,2.12581,0\H,15,1.09087,13,109.834,11,-12.8207,0\H,15,1.09146,13,107.176,11,-129.448,0\H,15,1.1,13,112.82,11,110.133,0\\\@

 Total job time:  19261.97s(wall), 12338.90s(cpu) 
 Sun Sep 26 19:35:28 2021

        *************************************************************
        *                                                           *
        *  Thank you very much for using Q-Chem.  Have a nice day.  *
        *                                                           *
        *************************************************************


