
Running Job 1 of 1 SSI-040HIE-103HIE-1_SMD_TZVPD.in
qchem SSI-040HIE-103HIE-1_SMD_TZVPD.in_6023.0 /tmp/qchem6023/ 0
/global/common/cori/software/qchem/5.2/exe/qcprog.exe_s SSI-040HIE-103HIE-1_SMD_TZVPD.in_6023.0 /tmp/qchem6023/
                  Welcome to Q-Chem
     A Quantum Leap Into The Future Of Chemistry


 Q-Chem 5.2, Q-Chem, Inc., Pleasanton, CA (2019)

 License issued to: National Energy Research Scientific Computing Center

 Yihan Shao,  Zhengting Gan,  E. Epifanovsky,  A. T. B. Gilbert,  M. Wormit,  
 J. Kussmann,  A. W. Lange,  A. Behn,  Jia Deng,  Xintian Feng,  D. Ghosh,  
 M. Goldey,  P. R. Horn,  L. D. Jacobson,  I. Kaliman,  T. Kus,  A. Landau,  
 Jie Liu,  E. I. Proynov,  R. M. Richard,  R. P. Steele,  E. J. Sundstrom,  
 H. L. Woodcock III,  P. M. Zimmerman,  D. Zuev,  B. Albrecht,  E. Alguire,  
 S. A. Baeppler,  D. Barton,  Z. Benda,  Y. A. Bernard,  E. J. Berquist,  
 K. B. Bravaya,  H. Burton,  D. Casanova,  Chun-Min Chang,  Yunqing Chen,  
 A. Chien,  K. D. Closser,  M. P. Coons,  S. Coriani,  S. Dasgupta,  
 A. L. Dempwolff,  M. Diedenhofen,  Hainam Do,  R. G. Edgar,  Po-Tung Fang,  
 S. Faraji,  S. Fatehi,  Qingguo Feng,  K. D. Fenk,  J. Fosso-Tande,  
 J. Gayvert,  Qinghui Ge,  A. Ghysels,  G. Gidofalvi,  J. Gomes,  
 J. Gonthier,  A. Gunina,  D. Hait,  M. W. D. Hanson-Heine,  
 P. H. P. Harbach,  A. W. Hauser,  M. F. Herbst,  J. E. Herr,  
 E. G. Hohenstein,  Z. C. Holden,  Kerwin Hui,  B. C. Huynh,  T.-C. Jagau,  
 Hyunjun Ji,  B. Kaduk,  K. Khistyaev,  Jaehoon Kim,  P. Klunzinger,  K. Koh,  
 D. Kosenkov,  L. Koulias,  T. Kowalczyk,  C. M. Krauter,  A. Kunitsa,  
 Ka Un Lao,  A. Laurent,  K. V. Lawler,  Joonho Lee,  D. Lefrancois,  
 S. Lehtola,  D. S. Levine,  Yi-Pei Li,  You-Sheng Lin,  Fenglai Liu,  
 E. Livshits,  A. Luenser,  P. Manohar,  E. Mansoor,  S. F. Manzer,  
 Shan-Ping Mao,  Yuezhi Mao,  N. Mardirossian,  A. V. Marenich,  
 T. Markovich,  L. A. Martinez-Martinez,  S. A. Maurer,  N. J. Mayhall,  
 S. C. McKenzie,  J.-M. Mewes,  P. Morgante,  A. F. Morrison,  
 J. W. Mullinax,  K. Nanda,  T. S. Nguyen-Beck,  R. Olivares-Amaya,  
 J. A. Parkhill,  Zheng Pei,  T. M. Perrine,  F. Plasser,  P. Pokhilko,  
 S. Prager,  A. Prociuk,  E. Ramos,  D. R. Rehn,  F. Rob,  M. Scheurer,  
 M. Schneider,  N. Sergueev,  S. M. Sharada,  S. Sharma,  D. W. Small,  
 T. Stauch,  T. Stein,  Yu-Chuan Su,  A. J. W. Thom,  A. Tkatchenko,  
 T. Tsuchimochi,  N. M. Tubman,  L. Vogt,  M. L. Vidal,  O. Vydrov,  
 M. A. Watson,  J. Wenzel,  M. de Wergifosse,  T. A. Wesolowski,  A. White,  
 J. Witte,  A. Yamada,  Jun Yang,  K. Yao,  S. Yeganeh,  S. R. Yost,  
 Zhi-Qiang You,  A. Zech,  Igor Ying Zhang,  Xing Zhang,  Yan Zhao,  
 Ying Zhu,  B. R. Brooks,  G. K. L. Chan,  C. J. Cramer,  M. S. Gordon,  
 W. J. Hehre,  A. Klamt,  M. W. Schmidt,  C. D. Sherrill,  D. G. Truhlar,  
 A. Aspuru-Guzik,  R. Baer,  A. T. Bell,  N. A. Besley,  Jeng-Da Chai,  
 A. E. DePrince, III,  R. A. DiStasio Jr.,  A. Dreuw,  B. D. Dunietz,  
 T. R. Furlani,  Chao-Ping Hsu,  Yousung Jung,  Jing Kong,  D. S. Lambrecht,  
 WanZhen Liang,  C. Ochsenfeld,  V. A. Rassolov,  L. V. Slipchenko,  
 J. E. Subotnik,  T. Van Voorhis,  J. M. Herbert,  A. I. Krylov,  
 P. M. W. Gill,  M. Head-Gordon

 Contributors to earlier versions of Q-Chem not listed above: 
 R. D. Adamson,  B. Austin,  J. Baker,  G. J. O. Beran,  K. Brandhorst,  
 S. T. Brown,  E. F. C. Byrd,  A. K. Chakraborty,  C.-L. Cheng,  
 Siu Hung Chien,  D. M. Chipman,  D. L. Crittenden,  H. Dachsel,  
 R. J. Doerksen,  A. D. Dutoi,  L. Fusti-Molnar,  W. A. Goddard III,  
 A. Golubeva-Zadorozhnaya,  S. R. Gwaltney,  G. Hawkins,  A. Heyden,  
 S. Hirata,  G. Kedziora,  F. J. Keil,  C. Kelley,  Jihan Kim,  R. A. King,  
 R. Z. Khaliullin,  P. P. Korambath,  W. Kurlancheek,  A. M. Lee,  M. S. Lee,  
 S. V. Levchenko,  Ching Yeh Lin,  D. Liotard,  R. C. Lochan,  I. Lotan,  
 P. E. Maslen,  N. Nair,  D. P. O'Neill,  D. Neuhauser,  E. Neuscamman,  
 C. M. Oana,  R. Olson,  B. Peters,  R. Peverati,  P. A. Pieniazek,  
 Y. M. Rhee,  J. Ritchie,  M. A. Rohrdanz,  E. Rosta,  N. J. Russ,  
 H. F. Schaefer III,  N. E. Schultz,  N. Shenvi,  A. C. Simmonett,  A. Sodt,  
 D. Stuck,  K. S. Thanthiriwatte,  V. Vanovschi,  Tao Wang,  A. Warshel,  
 C. F. Williams,  Q. Wu,  X. Xu,  W. Zhang

 Please cite Q-Chem as follows:
 Y. Shao et al., Mol. Phys. 113, 184-215 (2015)
 DOI: 10.1080/00268976.2014.952696

 Q-Chem 5.2.0 for Intel X86 EM64T Linux

 Parts of Q-Chem use Armadillo 8.300.2 (Tropical Shenanigans).
 http://arma.sourceforge.net/

 Q-Chem begins on Sun Sep 26 06:37:02 2021  

Host: cori01
0

     Scratch files written to /tmp/qchem6023//
 May1019 |scratch|qcdevops|jenkins|workspace|build_RNUM -1
Processing $rem in /global/common/cori/software/qchem/5.2/config/preferences:
	 MEM_TOTAL  96000 
NAlpha2: 88
NElect   88
Mult     1
Symmetry turned off for PCM/SM12/SMD calculation

 Q-Chem warning in module libgen/rem_setup.C, line 2803:

 Neither GIA nor STOLL is specified by user. Use STOLL as the default


Checking the input file for inconsistencies... 	...done.

--------------------------------------------------------------
User input:
--------------------------------------------------------------
$comment
SSI-040HIE-103HIE-1.pdb
$end

$molecule
0 1
--
0 1
C    4.262272987473   -2.114434104049   -0.468650690367
C    2.068272987473    0.752565895951   -0.701650690367
C    1.762272987473   -1.385434104049   -0.240650690367
C    3.099272987473   -1.170434104049   -0.469650690367
N    1.136272987473   -0.154434104049   -0.387650690367
N    3.280272987473    0.180565895951   -0.728650690367
H    0.138272987473    0.036565895951   -0.310650690367
H    1.867272987473    1.800565895951   -0.890650690367
H    1.279272987473   -2.316434104049    0.014349309633
H    4.972272987473   -1.759434104049    0.278349309633
H    4.753272987473   -2.060434104049   -1.441650690367
H    4.008193987473   -3.160434104049   -0.242078690367
--
0 1
C   -2.003727012527   -0.880434104049    1.960349309633
C   -2.461727012527    0.160565895951    0.982349309633
C   -2.323727012527    1.500565895951   -0.750650690367
C   -3.600727012527    0.899565895951    0.943349309633
N   -1.664727012527    0.566565895951   -0.057650690367
N   -3.501727012527    1.727565895951   -0.161650690367
H   -1.954727012527    2.006565895951   -1.636650690367
H   -2.230727012527   -0.540434104049    2.962349309633
H   -0.917727012527   -0.956434104049    1.887349309633
H   -4.190727012527    2.401565895951   -0.472650690367
H   -4.427727012527    0.837565895951    1.638349309633
H   -2.428905012527   -1.886574104049    1.830295309633
$end

$rem
JOBTYPE			EDA
EDA2			1
method			wB97X-V
BASIS			def2-TZVPD
XC_GRID			000099000590
NL_GRID			1
UNRESTRICTED		FALSE
MAX_SCF_CYCLES		200
SYMMETRY		FALSE
SYM_IGNORE		TRUE
MEM_STATIC		2000
BASIS_LIN_DEP_THRESH 	6
THRESH 			14
SCF_CONVERGENCE 	8
SCF_PRINT_FRGM 		TRUE
SOLVENT_METHOD          SMD
$end

$SMX
SOLVENT			WATER
$END
--------------------------------------------------------------
 ----------------------------------------------------------------
             Standard Nuclear Orientation (Angstroms)
    I     Atom           X                Y                Z
 ----------------------------------------------------------------
    1      C       4.2622729875    -2.1144341040    -0.4686506904
    2      C       2.0682729875     0.7525658960    -0.7016506904
    3      C       1.7622729875    -1.3854341040    -0.2406506904
    4      C       3.0992729875    -1.1704341040    -0.4696506904
    5      N       1.1362729875    -0.1544341040    -0.3876506904
    6      N       3.2802729875     0.1805658960    -0.7286506904
    7      H       0.1382729875     0.0365658960    -0.3106506904
    8      H       1.8672729875     1.8005658960    -0.8906506904
    9      H       1.2792729875    -2.3164341040     0.0143493096
   10      H       4.9722729875    -1.7594341040     0.2783493096
   11      H       4.7532729875    -2.0604341040    -1.4416506904
   12      H       4.0081939875    -3.1604341040    -0.2420786904
   13      C      -2.0037270125    -0.8804341040     1.9603493096
   14      C      -2.4617270125     0.1605658960     0.9823493096
   15      C      -2.3237270125     1.5005658960    -0.7506506904
   16      C      -3.6007270125     0.8995658960     0.9433493096
   17      N      -1.6647270125     0.5665658960    -0.0576506904
   18      N      -3.5017270125     1.7275658960    -0.1616506904
   19      H      -1.9547270125     2.0065658960    -1.6366506904
   20      H      -2.2307270125    -0.5404341040     2.9623493096
   21      H      -0.9177270125    -0.9564341040     1.8873493096
   22      H      -4.1907270125     2.4015658960    -0.4726506904
   23      H      -4.4277270125     0.8375658960     1.6383493096
   24      H      -2.4289050125    -1.8865741040     1.8302953096
 ----------------------------------------------------------------
 Nuclear Repulsion Energy =         639.45484010 hartrees
 There are       44 alpha and       44 beta electrons
 Requested basis set is def2-TZVPD
 There are 216 shells and 552 basis functions

 Total QAlloc Memory Limit  96000 MB
 Mega-Array Size      1956 MB
 MEM_STATIC part      2000 MB
 
 Citation of the SMD model:
 Marenich, A.V.; Cramer, C.J.; Truhlar, D.G.
 J. Phys. Chem. B 2009, 113, 6378-6396.
 iSolventCode=           1
 Solvent: water                                                           
 
 vradii
            1           2           3           4           5           6
    1   1.8500000   1.8500000   1.8500000   1.8500000   1.8900000   1.8900000
            7           8           9          10          11          12
    1   1.2000000   1.2000000   1.2000000   1.2000000   1.2000000   1.2000000
           13          14          15          16          17          18
    1   1.8500000   1.8500000   1.8500000   1.8500000   1.8900000   1.8900000
           19          20          21          22          23          24
    1   1.2000000   1.2000000   1.2000000   1.2000000   1.2000000   1.2000000
 Changing PCM_VDW_RADII to SMD_RADIUS
 Discretize the solute cavity surface with Lebedev spheres
	Using 110 Lebedev grid points for each H atom
	Using 194 Lebedev grid points for other atoms
	Atomic van der Waals radii will be scaled by 1.20
 Remove points where switching function is < 1.0e-08
 Keep 1739 surface tesserae and discard 1909 interior tesserae
 Molecular Surface Area = 221.149 Angst**2
 A cutoff of  1.0D-14 yielded  19891 shell pairs
 There are    130481 function pairs (    165613 Cartesian)
 Smallest overlap matrix eigenvalue = 1.21E-06

 Scale SEOQF with 1.000000e-01/1.000000e-01/1.000000e-01

 Standard Electronic Orientation quadrupole field applied
 Nucleus-field energy     =     0.0000000268 hartrees

 -----------------------------------------------------------------------
  General SCF calculation program by
  Eric Jon Sundstrom, Paul Horn, Yuezhi Mao, Dmitri Zuev, Alec White,
  David Stuck, Shaama M.S., Shane Yost, Joonho Lee, David Small,
  Daniel Levine, Susi Lehtola, Hugh Burton, Evgeny Epifanovsky
 -----------------------------------------------------------------------
================================================================
                 ALMO-EDA with the EDA2 driver                  
================================================================
 The second-generation ALMO-EDA (for DFT):                      
 P. R. Horn, Y. Mao and M. Head-Gordon, PCCP, 18, 23067 (2016)  
 Decomposition of the frozen energy:                            
 P. R. Horn, Y. Mao and M. Head-Gordon, JCP, 144, 114107 (2016) 
 FERF model for polarization:                                   
 P. R. Horn and M. Head-Gordon, JCP, 143, 114111 (2015)         
Using eda2 option set 1
Option set summary: Frozen orbital wavefunction, initial wavefunction decomposition, and nDQ polarization.
--------------------------------
Printing EDA Options
--------------------------------
eda_child_super_basis      0
fragmo_guess_mode          0
child_mp                   1
child_mp_orders            232
cls_elec                   1
cls_disp                   0
scfmi_mode                 1
scfmi_occs                 0
scfmi_virts                0
frz_relax                  0
frz_relax_method           0
dc_pen_start               0
dc_pen_conv                0
dc_pen_increment           0
dc_pen_steps               0
dc_pen_thresh_factor       0
dc_pen_pre_newton_thresh   0
frz_ortho_decomp           1
frz_ortho_decomp_conv      6
frgm_method                2
scfmi_freeze_ss            0
separate_rehyb             0
plot_diff_den              0
eda_nocv                   0
eda_vct_relax              1
disp_free_x                0
disp_free_c                0
eda_bsse                   0
eda_pct_a                  0
eda_covp                   0
--------------------------------
Attempting to make child job directory: /tmp/qchem6023//Frg1/
Attempting to make child job directory: /tmp/qchem6023//Frg2/
Creating input file /tmp/qchem6023/Frg1.input
using default PutDataFrgm: nothing
calling putenv with: QCSCRATCH=/tmp/qchem6023/ 
calling putenv with: QCLOCALSCR=/tmp/qchem6023/ 
Spawning Job For Fragment 0
                  Welcome to Q-Chem
     A Quantum Leap Into The Future Of Chemistry


 Q-Chem 5.2, Q-Chem, Inc., Pleasanton, CA (2019)

 License issued to: National Energy Research Scientific Computing Center

 Yihan Shao,  Zhengting Gan,  E. Epifanovsky,  A. T. B. Gilbert,  M. Wormit,  
 J. Kussmann,  A. W. Lange,  A. Behn,  Jia Deng,  Xintian Feng,  D. Ghosh,  
 M. Goldey,  P. R. Horn,  L. D. Jacobson,  I. Kaliman,  T. Kus,  A. Landau,  
 Jie Liu,  E. I. Proynov,  R. M. Richard,  R. P. Steele,  E. J. Sundstrom,  
 H. L. Woodcock III,  P. M. Zimmerman,  D. Zuev,  B. Albrecht,  E. Alguire,  
 S. A. Baeppler,  D. Barton,  Z. Benda,  Y. A. Bernard,  E. J. Berquist,  
 K. B. Bravaya,  H. Burton,  D. Casanova,  Chun-Min Chang,  Yunqing Chen,  
 A. Chien,  K. D. Closser,  M. P. Coons,  S. Coriani,  S. Dasgupta,  
 A. L. Dempwolff,  M. Diedenhofen,  Hainam Do,  R. G. Edgar,  Po-Tung Fang,  
 S. Faraji,  S. Fatehi,  Qingguo Feng,  K. D. Fenk,  J. Fosso-Tande,  
 J. Gayvert,  Qinghui Ge,  A. Ghysels,  G. Gidofalvi,  J. Gomes,  
 J. Gonthier,  A. Gunina,  D. Hait,  M. W. D. Hanson-Heine,  
 P. H. P. Harbach,  A. W. Hauser,  M. F. Herbst,  J. E. Herr,  
 E. G. Hohenstein,  Z. C. Holden,  Kerwin Hui,  B. C. Huynh,  T.-C. Jagau,  
 Hyunjun Ji,  B. Kaduk,  K. Khistyaev,  Jaehoon Kim,  P. Klunzinger,  K. Koh,  
 D. Kosenkov,  L. Koulias,  T. Kowalczyk,  C. M. Krauter,  A. Kunitsa,  
 Ka Un Lao,  A. Laurent,  K. V. Lawler,  Joonho Lee,  D. Lefrancois,  
 S. Lehtola,  D. S. Levine,  Yi-Pei Li,  You-Sheng Lin,  Fenglai Liu,  
 E. Livshits,  A. Luenser,  P. Manohar,  E. Mansoor,  S. F. Manzer,  
 Shan-Ping Mao,  Yuezhi Mao,  N. Mardirossian,  A. V. Marenich,  
 T. Markovich,  L. A. Martinez-Martinez,  S. A. Maurer,  N. J. Mayhall,  
 S. C. McKenzie,  J.-M. Mewes,  P. Morgante,  A. F. Morrison,  
 J. W. Mullinax,  K. Nanda,  T. S. Nguyen-Beck,  R. Olivares-Amaya,  
 J. A. Parkhill,  Zheng Pei,  T. M. Perrine,  F. Plasser,  P. Pokhilko,  
 S. Prager,  A. Prociuk,  E. Ramos,  D. R. Rehn,  F. Rob,  M. Scheurer,  
 M. Schneider,  N. Sergueev,  S. M. Sharada,  S. Sharma,  D. W. Small,  
 T. Stauch,  T. Stein,  Yu-Chuan Su,  A. J. W. Thom,  A. Tkatchenko,  
 T. Tsuchimochi,  N. M. Tubman,  L. Vogt,  M. L. Vidal,  O. Vydrov,  
 M. A. Watson,  J. Wenzel,  M. de Wergifosse,  T. A. Wesolowski,  A. White,  
 J. Witte,  A. Yamada,  Jun Yang,  K. Yao,  S. Yeganeh,  S. R. Yost,  
 Zhi-Qiang You,  A. Zech,  Igor Ying Zhang,  Xing Zhang,  Yan Zhao,  
 Ying Zhu,  B. R. Brooks,  G. K. L. Chan,  C. J. Cramer,  M. S. Gordon,  
 W. J. Hehre,  A. Klamt,  M. W. Schmidt,  C. D. Sherrill,  D. G. Truhlar,  
 A. Aspuru-Guzik,  R. Baer,  A. T. Bell,  N. A. Besley,  Jeng-Da Chai,  
 A. E. DePrince, III,  R. A. DiStasio Jr.,  A. Dreuw,  B. D. Dunietz,  
 T. R. Furlani,  Chao-Ping Hsu,  Yousung Jung,  Jing Kong,  D. S. Lambrecht,  
 WanZhen Liang,  C. Ochsenfeld,  V. A. Rassolov,  L. V. Slipchenko,  
 J. E. Subotnik,  T. Van Voorhis,  J. M. Herbert,  A. I. Krylov,  
 P. M. W. Gill,  M. Head-Gordon

 Contributors to earlier versions of Q-Chem not listed above: 
 R. D. Adamson,  B. Austin,  J. Baker,  G. J. O. Beran,  K. Brandhorst,  
 S. T. Brown,  E. F. C. Byrd,  A. K. Chakraborty,  C.-L. Cheng,  
 Siu Hung Chien,  D. M. Chipman,  D. L. Crittenden,  H. Dachsel,  
 R. J. Doerksen,  A. D. Dutoi,  L. Fusti-Molnar,  W. A. Goddard III,  
 A. Golubeva-Zadorozhnaya,  S. R. Gwaltney,  G. Hawkins,  A. Heyden,  
 S. Hirata,  G. Kedziora,  F. J. Keil,  C. Kelley,  Jihan Kim,  R. A. King,  
 R. Z. Khaliullin,  P. P. Korambath,  W. Kurlancheek,  A. M. Lee,  M. S. Lee,  
 S. V. Levchenko,  Ching Yeh Lin,  D. Liotard,  R. C. Lochan,  I. Lotan,  
 P. E. Maslen,  N. Nair,  D. P. O'Neill,  D. Neuhauser,  E. Neuscamman,  
 C. M. Oana,  R. Olson,  B. Peters,  R. Peverati,  P. A. Pieniazek,  
 Y. M. Rhee,  J. Ritchie,  M. A. Rohrdanz,  E. Rosta,  N. J. Russ,  
 H. F. Schaefer III,  N. E. Schultz,  N. Shenvi,  A. C. Simmonett,  A. Sodt,  
 D. Stuck,  K. S. Thanthiriwatte,  V. Vanovschi,  Tao Wang,  A. Warshel,  
 C. F. Williams,  Q. Wu,  X. Xu,  W. Zhang

 Please cite Q-Chem as follows:
 Y. Shao et al., Mol. Phys. 113, 184-215 (2015)
 DOI: 10.1080/00268976.2014.952696

 Q-Chem 5.2.0 for Intel X86 EM64T Linux

 Parts of Q-Chem use Armadillo 8.300.2 (Tropical Shenanigans).
 http://arma.sourceforge.net/

 Q-Chem begins on Sun Sep 26 06:37:07 2021  

Host: cori01
0

     Scratch files written to /tmp/qchem6023//Frg1//
 May1019 |scratch|qcdevops|jenkins|workspace|build_RNUM -1
Processing $rem in /global/common/cori/software/qchem/5.2/config/preferences:
	 MEM_TOTAL  96000 
NAlpha2: 44
NElect   44
Mult     1
Symmetry turned off for PCM/SM12/SMD calculation

Checking the input file for inconsistencies... 	...done.

--------------------------------------------------------------
User input:
--------------------------------------------------------------
$molecule
0 1
 6	4.2622729875	-2.1144341040	-0.4686506904
 6	2.0682729875	0.7525658960	-0.7016506904
 6	1.7622729875	-1.3854341040	-0.2406506904
 6	3.0992729875	-1.1704341040	-0.4696506904
 7	1.1362729875	-0.1544341040	-0.3876506904
 7	3.2802729875	0.1805658960	-0.7286506904
 1	0.1382729875	0.0365658960	-0.3106506904
 1	1.8672729875	1.8005658960	-0.8906506904
 1	1.2792729875	-2.3164341040	0.0143493096
 1	4.9722729875	-1.7594341040	0.2783493096
 1	4.7532729875	-2.0604341040	-1.4416506904
 1	4.0081939875	-3.1604341040	-0.2420786904
$end
$rem
EDA2		1
METHOD		WB97X-V
BASIS		DEF2-TZVPD
XC_GRID		000099000590
NL_GRID		1
UNRESTRICTED		FALSE
MAX_SCF_CYCLES		200
SYMMETRY		FALSE
SYM_IGNORE		TRUE
BASIS_LIN_DEP_THRESH		6
THRESH		14
SCF_CONVERGENCE		8
SCF_PRINT_FRGM		TRUE
SOLVENT_METHOD		SMD
!required keywords
JOBTYPE		SP
SYM_IGNORE		TRUE
SUBSYSTEM		TRUE
GEN_SCFMAN		TRUE
CHILD_INSTRUCTION		2
SYM_IGNORE		TRUE
SCFMI		0
RI_K 0		
PARI_K 0		
MIN_PARI_K 0		
IARI_K 0		
OCC_RI_K 0		
PURECART		1111
MEM_STATIC		2000
MEM_TOTAL		96000
GUI		0
CHILD_MP		1
CHILD_MP_ORDERS		232
FRZ_RELAX		0
FRZ_RELAX_METHOD		0
EDA_CLS_ELEC		1
EDA_CLS_DISP		0
FRZ_ORTHO_DECOMP		1
EDA2		FALSE
FRGM_METHOD		FALSE
CIS_N_ROOTS  0
LOCAL_CIS    0
CIS_RLX_DNS  1
$end
$smx
SOLVENT			WATER
$end
--------------------------------------------------------------
 ----------------------------------------------------------------
             Standard Nuclear Orientation (Angstroms)
    I     Atom           X                Y                Z
 ----------------------------------------------------------------
    1      C       4.2622729875    -2.1144341040    -0.4686506904
    2      C       2.0682729875     0.7525658960    -0.7016506904
    3      C       1.7622729875    -1.3854341040    -0.2406506904
    4      C       3.0992729875    -1.1704341040    -0.4696506904
    5      N       1.1362729875    -0.1544341040    -0.3876506904
    6      N       3.2802729875     0.1805658960    -0.7286506904
    7      H       0.1382729875     0.0365658960    -0.3106506904
    8      H       1.8672729875     1.8005658960    -0.8906506904
    9      H       1.2792729875    -2.3164341040     0.0143493096
   10      H       4.9722729875    -1.7594341040     0.2783493096
   11      H       4.7532729875    -2.0604341040    -1.4416506904
   12      H       4.0081939875    -3.1604341040    -0.2420786904
 ----------------------------------------------------------------
 Nuclear Repulsion Energy =         223.48302050 hartrees
 There are       22 alpha and       22 beta electrons
 Requested basis set is def2-TZVPD
 There are 108 shells and 276 basis functions

 Total QAlloc Memory Limit  96000 MB
 Mega-Array Size      1956 MB
 MEM_STATIC part      2000 MB
 
 Citation of the SMD model:
 Marenich, A.V.; Cramer, C.J.; Truhlar, D.G.
 J. Phys. Chem. B 2009, 113, 6378-6396.
 iSolventCode=           1
 Solvent: water                                                           
 
 vradii
            1           2           3           4           5           6
    1   1.8500000   1.8500000   1.8500000   1.8500000   1.8900000   1.8900000
            7           8           9          10          11          12
    1   1.2000000   1.2000000   1.2000000   1.2000000   1.2000000   1.2000000
 Changing PCM_VDW_RADII to SMD_RADIUS
 Discretize the solute cavity surface with Lebedev spheres
	Using 110 Lebedev grid points for each H atom
	Using 194 Lebedev grid points for other atoms
	Atomic van der Waals radii will be scaled by 1.20
 Remove points where switching function is < 1.0e-08
 Keep 900 surface tesserae and discard 924 interior tesserae
 Molecular Surface Area = 116.680 Angst**2

                       Distance Matrix (Angstroms)
             C (  1)   C (  2)   C (  3)   C (  4)   N (  5)   N (  6)
   C (  2)  3.617681
   C (  3)  2.614082  2.208439
   C (  4)  1.497901  2.194246  1.373403
   N (  5)  3.690533  1.337860  1.388829  2.211866
   N (  6)  2.509771  1.340469  2.234910  1.387459  2.196643
   H (  7)  4.653938  2.095337  2.159713  3.201508  1.019026  3.172952
   H (  8)  4.608832  1.083709  3.253325  3.243749  2.146950  2.155740
   H (  9)  3.028594  3.248683  1.079386  2.204534  2.203701  3.284975
   H ( 10)  1.090016  3.962797  3.273123  2.101084  4.211232  2.764148
   H ( 11)  1.091204  3.958509  3.293039  2.114852  4.222137  2.774920
   H ( 12)  1.100003  4.391591  2.862654  2.199551  4.159947  3.453824
             H (  7)   H (  8)   H (  9)   H ( 10)   H ( 11)
   H (  8)  2.537230
   H (  9)  2.635169  4.256108
   H ( 10)  5.190385  4.866332  3.744088
   H ( 11)  5.193727  4.851795  3.775467  1.759819
   H ( 12)  5.020139  5.442032  2.867944  1.778509  1.790004
 
 A cutoff of  1.0D-14 yielded   5736 shell pairs
 There are     38166 function pairs (     48943 Cartesian)
 Smallest overlap matrix eigenvalue = 1.84E-06

 Scale SEOQF with 1.000000e-01/1.000000e-01/1.000000e-01

 Standard Electronic Orientation quadrupole field applied
 Nucleus-field energy     =     0.0000000170 hartrees
 Guess from superposition of atomic densities
 Warning:  Energy on first SCF cycle will be non-variational
 SAD guess density has 43.559167 electrons

 -----------------------------------------------------------------------
  General SCF calculation program by
  Eric Jon Sundstrom, Paul Horn, Yuezhi Mao, Dmitri Zuev, Alec White,
  David Stuck, Shaama M.S., Shane Yost, Joonho Lee, David Small,
  Daniel Levine, Susi Lehtola, Hugh Burton, Evgeny Epifanovsky
 -----------------------------------------------------------------------
 Exchange:     0.1670 Hartree-Fock + 1.0000 wB97X-V + LR-HF
 Correlation:  1.0000 wB97X-V
 Using Euler-Maclaurin-Lebedev (99,590) quadrature formula
 Nonlocal Correlation:  VV10 with C = 0.0100 and b = 6.00 and scale = 1.00000
 Grid used for NLC:  SG-1 standard quadrature
Energy prior to optimization (guess energy) = -265.150999135449
Begin Timing: Total SCF Calculation
begin iterations for algorithm: DIIS         
the SCF tolerance is set to 1.00e-08
    1    -265.1509991354      7.16e-03     00000 
    2    -265.1167244914      7.28e-03     00000 
    3    -265.5687983877      7.26e-04     00000 
    4    -265.5734663504      3.74e-04     00000 
    5    -265.5748476490      1.15e-04     00000 
    6    -265.5750099852      4.22e-05     00000 
    7    -265.5750349770      1.14e-05     00000 
    8    -265.5750375582      3.22e-06     00000 
    9    -265.5750378384      1.68e-06     00000 
   10    -265.5750378877      4.17e-07     00000 
   11    -265.5750378931      9.18e-08     00000 
   12    -265.5750378934      4.65e-08     00000 
   13    -265.5750378935      1.17e-08     00000 
   14    -265.5750378935      4.27e-09     00000 Convergence criterion met
Timing for Total SCF: 915.00s (wall), 1817.02s (cpu)
(3)  G-ENP(liq) elect-nuc-pol free energy of system     -265.575037893 a.u.
(4)  G-CDS(liq) cavity-dispersion-solvent structure 
     free energy                                                2.0990 kcal/mol
(6)  G-S(liq) free energy of system                     -265.571692908 a.u.
E_pcm = -0.0225681176
E_cds = 0.0033449859
Multipole orders to be included
        2
        3
computing dipole RHS
computing quadrupole RHS
total number of RHS in solve_reponses: 8
RHS batch sizes
        8
Beginning Block Conjugate Gradient Iterations. Batch Number: 0
computing hessian-vector products by finite difference
              1      6.76e-01     00000 Conjugate Gradient Iteration
computing hessian-vector products by finite difference
              2      2.10e-01     00000 Conjugate Gradient Iteration
computing hessian-vector products by finite difference
              3      5.46e-02     00000 Conjugate Gradient Iteration
computing hessian-vector products by finite difference
              4      1.71e-02     00000 Conjugate Gradient Iteration
computing hessian-vector products by finite difference
              5      3.35e-03     00000 Conjugate Gradient Iteration
computing hessian-vector products by finite difference
              6      6.36e-04     00000 Conjugate Gradient Iteration
computing hessian-vector products by finite difference
              7      1.25e-04     00000 Conjugate Gradient Iteration
computing hessian-vector products by finite difference
              8      1.98e-05     00000 Conjugate Gradient Iteration
computing hessian-vector products by finite difference
              9      2.99e-06     00000 Conjugate Gradient Iteration
computing hessian-vector products by finite difference
             10      4.28e-07     00000 Conjugate Gradient Iteration
computing hessian-vector products by finite difference
             11      6.97e-08     00000 Conjugate Gradient Iteration
computing hessian-vector products by finite difference
             12      1.50e-08     00000 Conjugate Gradient Iteration
computing hessian-vector products by finite difference
             13      3.07e-09     00000 CG Converged
batch 0 complete
Done Calculating Responses
TESTING ORTHOGONALIZATION OF MULTIPOLE BASIS
Multipole virts passed orthogonality test
Virts Per Order
           66
          110
 
 --------------------------------------------------------------
 
                    Orbital Energies (a.u.)
 --------------------------------------------------------------
 
 Alpha MOs
 -- Occupied --
-14.4608 -14.3898 -10.3206 -10.2872 -10.2863 -10.2574  -1.1447  -0.9930
 -0.8918  -0.8213  -0.7218  -0.6802  -0.6595  -0.5592  -0.5523  -0.5357
 -0.5062  -0.4924  -0.4782  -0.3824  -0.3752  -0.3193
 -- Virtual --
  0.0685   0.0875   0.0983   0.1049   0.1184   0.1310   0.1328   0.1457
  0.1725   0.1739   0.1789   0.1879   0.2022   0.2052   0.2273   0.2429
  0.2463   0.2507   0.2632   0.2664   0.2711   0.2914   0.3009   0.3034
  0.3141   0.3176   0.3227   0.3287   0.3316   0.3370   0.3478   0.3615
  0.3626   0.3643   0.3787   0.3818   0.3936   0.4014   0.4078   0.4158
  0.4231   0.4250   0.4286   0.4490   0.4582   0.4707   0.4747   0.4762
  0.4893   0.4974   0.5002   0.5177   0.5349   0.5493   0.5496   0.5609
  0.5644   0.5741   0.5913   0.5958   0.6055   0.6098   0.6293   0.6332
  0.6437   0.6535   0.6748   0.6839   0.6907   0.7051   0.7104   0.7205
  0.7306   0.7367   0.7557   0.7691   0.7794   0.7839   0.7948   0.8064
  0.8104   0.8145   0.8238   0.8374   0.8621   0.8669   0.8776   0.8986
  0.9148   0.9418   0.9801   0.9933   0.9964   1.0042   1.0199   1.0340
  1.0612   1.0909   1.0993   1.1201   1.1287   1.1492   1.1827   1.2253
  1.2302   1.2429   1.2805   1.3236   1.3382   1.3436   1.3813   1.4319
  1.4387   1.4698   1.5431   1.5524   1.5996   1.6364   1.6453   1.6704
  1.6910   1.7342   1.8016   1.8243   1.8322   1.8544   1.8629   1.8827
  1.9004   1.9476   1.9533   1.9625   1.9805   1.9846   2.0017   2.0090
  2.0169   2.0717   2.0988   2.1273   2.1739   2.2435   2.2547   2.2797
  2.3100   2.3595   2.3713   2.3995   2.4375   2.4612   2.4778   2.4995
  2.5517   2.5981   2.6162   2.6206   2.6378   2.6437   2.6927   2.7246
  2.7406   2.7695   2.7812   2.8289   2.8574   2.8754   2.9009   2.9758
  3.0186   3.0427   3.0647   3.0728   3.1037   3.1287   3.1424   3.1610
  3.1772   3.1917   3.2032   3.2183   3.2536   3.3007   3.3046   3.3241
  3.3619   3.3683   3.3774   3.3913   3.4184   3.4423   3.4646   3.4969
  3.5132   3.5474   3.5704   3.5960   3.6376   3.6419   3.6907   3.7333
  3.7477   3.7815   3.7923   3.8432   3.8761   3.9330   3.9512   4.0358
  4.0774   4.1031   4.1215   4.2220   4.2824   4.4403   4.4460   4.4902
  4.5241   4.5649   4.6151   4.6623   4.7415   4.7914   4.8303   4.8542
  4.9314   4.9530   5.0186   5.0275   5.0346   5.0531   5.1469   5.1846
  5.2136   5.2916   5.3585   5.4245   5.4827   5.5152   5.5618   5.5865
  5.6605   5.6896   5.7634   5.7751   5.8643   6.0255   6.2240   6.2395
 22.6392  22.8441  23.0839  23.3504  32.6316  32.7664
 --------------------------------------------------------------
 
          Ground-State Mulliken Net Atomic Charges

     Atom                 Charge (a.u.)
  ----------------------------------------
      1 C                    -0.807484
      2 C                    -0.258603
      3 C                    -0.610645
      4 C                     0.550018
      5 N                     0.077495
      6 N                    -0.526667
      7 H                     0.207359
      8 H                     0.336561
      9 H                     0.324342
     10 H                     0.225988
     11 H                     0.228861
     12 H                     0.252775
  ----------------------------------------
  Sum of atomic charges =     0.000000

 -----------------------------------------------------------------
                    Cartesian Multipole Moments
 -----------------------------------------------------------------
    Charge (ESU x 10^10)
                -0.0000
    Dipole Moment (Debye)
         X      -4.8464      Y      -0.8954      Z       0.7254
       Tot       4.9815
    Quadrupole Moments (Debye-Ang)
        XX     -54.5765     XY      -5.3526     YY     -30.3135
        XZ       4.2322     YZ      -0.7382     ZZ     -39.2105
    Octopole Moments (Debye-Ang^2)
       XXX    -358.9490    XXY      -0.3707    XYY     -84.4412
       YYY      69.8925    XXZ      35.2254    XYZ       1.8799
       YYZ      16.6300    XZZ    -104.2528    YZZ      27.4333
       ZZZ      57.4582
    Hexadecapole Moments (Debye-Ang^3)
      XXXX   -2136.1729   XXXY     156.7579   XXYY    -350.3305
      XYYY     251.2979   YYYY    -366.3919   XXXZ     221.0862
      XXYZ       7.6689   XYYZ      46.1938   YYYZ     -31.5197
      XXZZ    -352.1928   XYZZ      89.7899   YYZZ     -89.9545
      XZZZ     159.6072   YZZZ     -22.7601   ZZZZ    -114.6713
 -----------------------------------------------------------------
Archival summary:
1\1\nid00533\SP\ProcedureUnspecified\BasisUnspecified\246\meili\SunSep2611:00:252021SunSep2611:00:252021\0\\#,ProcedureUnspecified,BasisUnspecified,\\0,1\N\C,1,1.34047\H,2,1.08371,1,125.229\N,2,1.33786,1,110.2,3,-179.119,0\H,4,1.01903,2,124.954,1,-179.588,0\C,1,1.38746,2,107.085,3,-178.46,0\C,6,1.3734,1,108.093,2,-2.10859,0\H,7,1.07939,6,127.592,1,-178.36,0\C,6,1.4979,1,120.83,2,178.114,0\H,9,1.09002,6,107.514,1,58.4562,0\H,9,1.0912,6,108.516,1,-57.6166,0\H,9,1.1,6,114.839,1,179.432,0\\\@

 Total job time:  15800.17s(wall), 31320.48s(cpu) 
 Sun Sep 26 11:00:27 2021

        *************************************************************
        *                                                           *
        *  Thank you very much for using Q-Chem.  Have a nice day.  *
        *                                                           *
        *************************************************************


Done Job For Fragment 0
calling putenv with: QCSCRATCH=/global/cscratch1/sd/meili 
calling putenv with: QCLOCALSCR=/tmp 
calling putenv with: QCTHREADS=32 
Creating input file /tmp/qchem6023/Frg2.input
using default PutDataFrgm: nothing
calling putenv with: QCSCRATCH=/tmp/qchem6023/ 
calling putenv with: QCLOCALSCR=/tmp/qchem6023/ 
Spawning Job For Fragment 1
                  Welcome to Q-Chem
     A Quantum Leap Into The Future Of Chemistry


 Q-Chem 5.2, Q-Chem, Inc., Pleasanton, CA (2019)

 License issued to: National Energy Research Scientific Computing Center

 Yihan Shao,  Zhengting Gan,  E. Epifanovsky,  A. T. B. Gilbert,  M. Wormit,  
 J. Kussmann,  A. W. Lange,  A. Behn,  Jia Deng,  Xintian Feng,  D. Ghosh,  
 M. Goldey,  P. R. Horn,  L. D. Jacobson,  I. Kaliman,  T. Kus,  A. Landau,  
 Jie Liu,  E. I. Proynov,  R. M. Richard,  R. P. Steele,  E. J. Sundstrom,  
 H. L. Woodcock III,  P. M. Zimmerman,  D. Zuev,  B. Albrecht,  E. Alguire,  
 S. A. Baeppler,  D. Barton,  Z. Benda,  Y. A. Bernard,  E. J. Berquist,  
 K. B. Bravaya,  H. Burton,  D. Casanova,  Chun-Min Chang,  Yunqing Chen,  
 A. Chien,  K. D. Closser,  M. P. Coons,  S. Coriani,  S. Dasgupta,  
 A. L. Dempwolff,  M. Diedenhofen,  Hainam Do,  R. G. Edgar,  Po-Tung Fang,  
 S. Faraji,  S. Fatehi,  Qingguo Feng,  K. D. Fenk,  J. Fosso-Tande,  
 J. Gayvert,  Qinghui Ge,  A. Ghysels,  G. Gidofalvi,  J. Gomes,  
 J. Gonthier,  A. Gunina,  D. Hait,  M. W. D. Hanson-Heine,  
 P. H. P. Harbach,  A. W. Hauser,  M. F. Herbst,  J. E. Herr,  
 E. G. Hohenstein,  Z. C. Holden,  Kerwin Hui,  B. C. Huynh,  T.-C. Jagau,  
 Hyunjun Ji,  B. Kaduk,  K. Khistyaev,  Jaehoon Kim,  P. Klunzinger,  K. Koh,  
 D. Kosenkov,  L. Koulias,  T. Kowalczyk,  C. M. Krauter,  A. Kunitsa,  
 Ka Un Lao,  A. Laurent,  K. V. Lawler,  Joonho Lee,  D. Lefrancois,  
 S. Lehtola,  D. S. Levine,  Yi-Pei Li,  You-Sheng Lin,  Fenglai Liu,  
 E. Livshits,  A. Luenser,  P. Manohar,  E. Mansoor,  S. F. Manzer,  
 Shan-Ping Mao,  Yuezhi Mao,  N. Mardirossian,  A. V. Marenich,  
 T. Markovich,  L. A. Martinez-Martinez,  S. A. Maurer,  N. J. Mayhall,  
 S. C. McKenzie,  J.-M. Mewes,  P. Morgante,  A. F. Morrison,  
 J. W. Mullinax,  K. Nanda,  T. S. Nguyen-Beck,  R. Olivares-Amaya,  
 J. A. Parkhill,  Zheng Pei,  T. M. Perrine,  F. Plasser,  P. Pokhilko,  
 S. Prager,  A. Prociuk,  E. Ramos,  D. R. Rehn,  F. Rob,  M. Scheurer,  
 M. Schneider,  N. Sergueev,  S. M. Sharada,  S. Sharma,  D. W. Small,  
 T. Stauch,  T. Stein,  Yu-Chuan Su,  A. J. W. Thom,  A. Tkatchenko,  
 T. Tsuchimochi,  N. M. Tubman,  L. Vogt,  M. L. Vidal,  O. Vydrov,  
 M. A. Watson,  J. Wenzel,  M. de Wergifosse,  T. A. Wesolowski,  A. White,  
 J. Witte,  A. Yamada,  Jun Yang,  K. Yao,  S. Yeganeh,  S. R. Yost,  
 Zhi-Qiang You,  A. Zech,  Igor Ying Zhang,  Xing Zhang,  Yan Zhao,  
 Ying Zhu,  B. R. Brooks,  G. K. L. Chan,  C. J. Cramer,  M. S. Gordon,  
 W. J. Hehre,  A. Klamt,  M. W. Schmidt,  C. D. Sherrill,  D. G. Truhlar,  
 A. Aspuru-Guzik,  R. Baer,  A. T. Bell,  N. A. Besley,  Jeng-Da Chai,  
 A. E. DePrince, III,  R. A. DiStasio Jr.,  A. Dreuw,  B. D. Dunietz,  
 T. R. Furlani,  Chao-Ping Hsu,  Yousung Jung,  Jing Kong,  D. S. Lambrecht,  
 WanZhen Liang,  C. Ochsenfeld,  V. A. Rassolov,  L. V. Slipchenko,  
 J. E. Subotnik,  T. Van Voorhis,  J. M. Herbert,  A. I. Krylov,  
 P. M. W. Gill,  M. Head-Gordon

 Contributors to earlier versions of Q-Chem not listed above: 
 R. D. Adamson,  B. Austin,  J. Baker,  G. J. O. Beran,  K. Brandhorst,  
 S. T. Brown,  E. F. C. Byrd,  A. K. Chakraborty,  C.-L. Cheng,  
 Siu Hung Chien,  D. M. Chipman,  D. L. Crittenden,  H. Dachsel,  
 R. J. Doerksen,  A. D. Dutoi,  L. Fusti-Molnar,  W. A. Goddard III,  
 A. Golubeva-Zadorozhnaya,  S. R. Gwaltney,  G. Hawkins,  A. Heyden,  
 S. Hirata,  G. Kedziora,  F. J. Keil,  C. Kelley,  Jihan Kim,  R. A. King,  
 R. Z. Khaliullin,  P. P. Korambath,  W. Kurlancheek,  A. M. Lee,  M. S. Lee,  
 S. V. Levchenko,  Ching Yeh Lin,  D. Liotard,  R. C. Lochan,  I. Lotan,  
 P. E. Maslen,  N. Nair,  D. P. O'Neill,  D. Neuhauser,  E. Neuscamman,  
 C. M. Oana,  R. Olson,  B. Peters,  R. Peverati,  P. A. Pieniazek,  
 Y. M. Rhee,  J. Ritchie,  M. A. Rohrdanz,  E. Rosta,  N. J. Russ,  
 H. F. Schaefer III,  N. E. Schultz,  N. Shenvi,  A. C. Simmonett,  A. Sodt,  
 D. Stuck,  K. S. Thanthiriwatte,  V. Vanovschi,  Tao Wang,  A. Warshel,  
 C. F. Williams,  Q. Wu,  X. Xu,  W. Zhang

 Please cite Q-Chem as follows:
 Y. Shao et al., Mol. Phys. 113, 184-215 (2015)
 DOI: 10.1080/00268976.2014.952696

 Q-Chem 5.2.0 for Intel X86 EM64T Linux

 Parts of Q-Chem use Armadillo 8.300.2 (Tropical Shenanigans).
 http://arma.sourceforge.net/

 Q-Chem begins on Sun Sep 26 11:00:29 2021  

Host: cori01
0

     Scratch files written to /tmp/qchem6023//Frg2//
 May1019 |scratch|qcdevops|jenkins|workspace|build_RNUM -1
Processing $rem in /global/common/cori/software/qchem/5.2/config/preferences:
	 MEM_TOTAL  96000 
NAlpha2: 44
NElect   44
Mult     1
Symmetry turned off for PCM/SM12/SMD calculation

Checking the input file for inconsistencies... 	...done.

--------------------------------------------------------------
User input:
--------------------------------------------------------------
$molecule
0 1
 6	-2.0037270125	-0.8804341040	1.9603493096
 6	-2.4617270125	0.1605658960	0.9823493096
 6	-2.3237270125	1.5005658960	-0.7506506904
 6	-3.6007270125	0.8995658960	0.9433493096
 7	-1.6647270125	0.5665658960	-0.0576506904
 7	-3.5017270125	1.7275658960	-0.1616506904
 1	-1.9547270125	2.0065658960	-1.6366506904
 1	-2.2307270125	-0.5404341040	2.9623493096
 1	-0.9177270125	-0.9564341040	1.8873493096
 1	-4.1907270125	2.4015658960	-0.4726506904
 1	-4.4277270125	0.8375658960	1.6383493096
 1	-2.4289050125	-1.8865741040	1.8302953096
$end
$rem
EDA2		1
METHOD		WB97X-V
BASIS		DEF2-TZVPD
XC_GRID		000099000590
NL_GRID		1
UNRESTRICTED		FALSE
MAX_SCF_CYCLES		200
SYMMETRY		FALSE
SYM_IGNORE		TRUE
BASIS_LIN_DEP_THRESH		6
THRESH		14
SCF_CONVERGENCE		8
SCF_PRINT_FRGM		TRUE
SOLVENT_METHOD		SMD
!required keywords
JOBTYPE		SP
SYM_IGNORE		TRUE
SUBSYSTEM		TRUE
GEN_SCFMAN		TRUE
CHILD_INSTRUCTION		2
SYM_IGNORE		TRUE
SCFMI		0
RI_K 0		
PARI_K 0		
MIN_PARI_K 0		
IARI_K 0		
OCC_RI_K 0		
PURECART		1111
MEM_STATIC		2000
MEM_TOTAL		96000
GUI		0
CHILD_MP		1
CHILD_MP_ORDERS		232
FRZ_RELAX		0
FRZ_RELAX_METHOD		0
EDA_CLS_ELEC		1
EDA_CLS_DISP		0
FRZ_ORTHO_DECOMP		1
EDA2		FALSE
FRGM_METHOD		FALSE
CIS_N_ROOTS  0
LOCAL_CIS    0
CIS_RLX_DNS  1
$end
$smx
SOLVENT			WATER
$end
--------------------------------------------------------------
 ----------------------------------------------------------------
             Standard Nuclear Orientation (Angstroms)
    I     Atom           X                Y                Z
 ----------------------------------------------------------------
    1      C      -2.0037270125    -0.8804341040     1.9603493096
    2      C      -2.4617270125     0.1605658960     0.9823493096
    3      C      -2.3237270125     1.5005658960    -0.7506506904
    4      C      -3.6007270125     0.8995658960     0.9433493096
    5      N      -1.6647270125     0.5665658960    -0.0576506904
    6      N      -3.5017270125     1.7275658960    -0.1616506904
    7      H      -1.9547270125     2.0065658960    -1.6366506904
    8      H      -2.2307270125    -0.5404341040     2.9623493096
    9      H      -0.9177270125    -0.9564341040     1.8873493096
   10      H      -4.1907270125     2.4015658960    -0.4726506904
   11      H      -4.4277270125     0.8375658960     1.6383493096
   12      H      -2.4289050125    -1.8865741040     1.8302953096
 ----------------------------------------------------------------
 Nuclear Repulsion Energy =         224.37206541 hartrees
 There are       22 alpha and       22 beta electrons
 Requested basis set is def2-TZVPD
 There are 108 shells and 276 basis functions

 Total QAlloc Memory Limit  96000 MB
 Mega-Array Size      1956 MB
 MEM_STATIC part      2000 MB
 
 Citation of the SMD model:
 Marenich, A.V.; Cramer, C.J.; Truhlar, D.G.
 J. Phys. Chem. B 2009, 113, 6378-6396.
 iSolventCode=           1
 Solvent: water                                                           
 
 vradii
            1           2           3           4           5           6
    1   1.8500000   1.8500000   1.8500000   1.8500000   1.8900000   1.8900000
            7           8           9          10          11          12
    1   1.2000000   1.2000000   1.2000000   1.2000000   1.2000000   1.2000000
 Changing PCM_VDW_RADII to SMD_RADIUS
 Discretize the solute cavity surface with Lebedev spheres
	Using 110 Lebedev grid points for each H atom
	Using 194 Lebedev grid points for other atoms
	Atomic van der Waals radii will be scaled by 1.20
 Remove points where switching function is < 1.0e-08
 Keep 889 surface tesserae and discard 935 interior tesserae
 Molecular Surface Area = 116.170 Angst**2

                       Distance Matrix (Angstroms)
             C (  1)   C (  2)   C (  3)   C (  4)   N (  5)   N (  6)
   C (  2)  1.499976
   C (  3)  3.622303  2.194979
   C (  4)  2.598672  1.358294  2.204896
   N (  5)  2.506203  1.371731  1.336745  2.204764
   N (  6)  3.680836  2.201323  1.336463  1.384345  2.175616
   H (  7)  4.612546  3.244060  1.084985  3.254407  2.156604  2.155615
   H (  8)  1.082189  2.113093  4.238006  2.833172  3.265916  4.064313
   H (  9)  1.091101  2.109656  3.869461  3.396227  2.580807  4.251978
   H ( 10)  4.634003  3.182538  2.091596  2.146895  3.149623  1.012777
   H ( 11)  2.988475  2.180326  3.251724  1.082034  3.253310  2.211239
   H ( 12)  1.100004  2.216049  4.259702  3.149987  3.188449  4.263895
             H (  7)   H (  8)   H (  9)   H ( 10)   H ( 11)
   H (  8)  5.264426
   H (  9)  4.719461  1.747183
   H ( 10)  2.551591  4.929116  5.249599
   H ( 11)  4.267073  2.911815  3.949752  2.637913
   H ( 12)  5.234606  1.770004  1.775408  5.176458  3.384239
 
 A cutoff of  1.0D-14 yielded   5734 shell pairs
 There are     38176 function pairs (     48955 Cartesian)
 Smallest overlap matrix eigenvalue = 1.84E-06

 Scale SEOQF with 1.000000e-01/1.000000e-01/1.000000e-01

 Standard Electronic Orientation quadrupole field applied
 Nucleus-field energy     =     0.0000000098 hartrees
 Guess from superposition of atomic densities
 Warning:  Energy on first SCF cycle will be non-variational
 SAD guess density has 43.559167 electrons

 -----------------------------------------------------------------------
  General SCF calculation program by
  Eric Jon Sundstrom, Paul Horn, Yuezhi Mao, Dmitri Zuev, Alec White,
  David Stuck, Shaama M.S., Shane Yost, Joonho Lee, David Small,
  Daniel Levine, Susi Lehtola, Hugh Burton, Evgeny Epifanovsky
 -----------------------------------------------------------------------
 Exchange:     0.1670 Hartree-Fock + 1.0000 wB97X-V + LR-HF
 Correlation:  1.0000 wB97X-V
 Using Euler-Maclaurin-Lebedev (99,590) quadrature formula
 Nonlocal Correlation:  VV10 with C = 0.0100 and b = 6.00 and scale = 1.00000
 Grid used for NLC:  SG-1 standard quadrature
Energy prior to optimization (guess energy) = -265.145094333283
Begin Timing: Total SCF Calculation
begin iterations for algorithm: DIIS         
the SCF tolerance is set to 1.00e-08
    1    -265.1450943333      7.20e-03     00000 
    2    -265.1055315360      7.35e-03     00000 
    3    -265.5664931699      7.26e-04     00000 
    4    -265.5711769516      3.77e-04     00000 
    5    -265.5725725170      1.14e-04     00000 
    6    -265.5727349709      4.20e-05     00000 
    7    -265.5727600100      1.16e-05     00000 
    8    -265.5727626958      3.27e-06     00000 
    9    -265.5727629932      1.65e-06     00000 
   10    -265.5727630434      4.38e-07     00000 
   11    -265.5727630493      8.94e-08     00000 
   12    -265.5727630496      4.74e-08     00000 
   13    -265.5727630496      1.26e-08     00000 
   14    -265.5727630496      4.98e-09     00000 Convergence criterion met
Timing for Total SCF: 899.00s (wall), 1784.77s (cpu)
(3)  G-ENP(liq) elect-nuc-pol free energy of system     -265.572763050 a.u.
(4)  G-CDS(liq) cavity-dispersion-solvent structure 
     free energy                                                2.1649 kcal/mol
(6)  G-S(liq) free energy of system                     -265.569313119 a.u.
E_pcm = -0.0224387150
E_cds = 0.0034499309
Multipole orders to be included
        2
        3
computing dipole RHS
computing quadrupole RHS
total number of RHS in solve_reponses: 8
RHS batch sizes
        8
Beginning Block Conjugate Gradient Iterations. Batch Number: 0
computing hessian-vector products by finite difference
              1      6.43e-01     00000 Conjugate Gradient Iteration
computing hessian-vector products by finite difference
              2      2.06e-01     00000 Conjugate Gradient Iteration
computing hessian-vector products by finite difference
              3      4.81e-02     00000 Conjugate Gradient Iteration
computing hessian-vector products by finite difference
              4      1.35e-02     00000 Conjugate Gradient Iteration
computing hessian-vector products by finite difference
              5      2.67e-03     00000 Conjugate Gradient Iteration
computing hessian-vector products by finite difference
              6      4.80e-04     00000 Conjugate Gradient Iteration
computing hessian-vector products by finite difference
              7      8.36e-05     00000 Conjugate Gradient Iteration
computing hessian-vector products by finite difference
              8      1.43e-05     00000 Conjugate Gradient Iteration
computing hessian-vector products by finite difference
              9      2.50e-06     00000 Conjugate Gradient Iteration
computing hessian-vector products by finite difference
             10      4.91e-07     00000 Conjugate Gradient Iteration
computing hessian-vector products by finite difference
             11      7.58e-08     00000 Conjugate Gradient Iteration
computing hessian-vector products by finite difference
             12      9.77e-09     00000 CG Converged
batch 0 complete
Done Calculating Responses
TESTING ORTHOGONALIZATION OF MULTIPOLE BASIS
Multipole virts passed orthogonality test
Virts Per Order
           66
          110
 
 --------------------------------------------------------------
 
                    Orbital Energies (a.u.)
 --------------------------------------------------------------
 
 Alpha MOs
 -- Occupied --
-14.4607 -14.3870 -10.3187 -10.2839 -10.2825 -10.2553  -1.1489  -0.9945
 -0.8931  -0.8218  -0.7245  -0.6803  -0.6620  -0.5606  -0.5536  -0.5359
 -0.5071  -0.4945  -0.4741  -0.3799  -0.3764  -0.3202
 -- Virtual --
  0.0690   0.0878   0.0973   0.1032   0.1185   0.1306   0.1364   0.1460
  0.1720   0.1744   0.1822   0.1874   0.2003   0.2033   0.2259   0.2412
  0.2475   0.2570   0.2597   0.2626   0.2728   0.2926   0.2972   0.3084
  0.3126   0.3177   0.3223   0.3266   0.3363   0.3438   0.3503   0.3572
  0.3596   0.3670   0.3809   0.3847   0.3963   0.3987   0.4130   0.4189
  0.4225   0.4283   0.4365   0.4520   0.4581   0.4719   0.4749   0.4831
  0.4871   0.4950   0.5001   0.5150   0.5162   0.5498   0.5555   0.5642
  0.5707   0.5796   0.5861   0.5923   0.6037   0.6141   0.6165   0.6303
  0.6514   0.6583   0.6659   0.6862   0.6935   0.7025   0.7107   0.7316
  0.7381   0.7492   0.7656   0.7764   0.7812   0.7832   0.7875   0.7968
  0.8119   0.8250   0.8290   0.8348   0.8738   0.8777   0.8921   0.9065
  0.9162   0.9391   0.9488   0.9867   1.0045   1.0126   1.0239   1.0450
  1.0711   1.0742   1.0857   1.0952   1.1302   1.1707   1.1892   1.2108
  1.2288   1.2523   1.2761   1.3155   1.3437   1.3615   1.4012   1.4285
  1.4508   1.4607   1.5280   1.5695   1.6163   1.6285   1.6565   1.6748
  1.6978   1.7481   1.8015   1.8358   1.8402   1.8607   1.8684   1.8813
  1.9057   1.9349   1.9438   1.9511   1.9712   1.9918   2.0094   2.0112
  2.0337   2.0578   2.0995   2.1485   2.1895   2.2423   2.2535   2.2676
  2.2873   2.3069   2.3979   2.4090   2.4262   2.4583   2.4675   2.5149
  2.5213   2.5650   2.5935   2.6365   2.6532   2.6732   2.6903   2.7204
  2.7555   2.7636   2.8033   2.8234   2.8572   2.8940   2.9421   2.9828
  2.9974   3.0319   3.0473   3.0635   3.0940   3.1046   3.1470   3.1818
  3.1935   3.2097   3.2356   3.2486   3.2819   3.3036   3.3311   3.3347
  3.3558   3.3597   3.3905   3.4033   3.4245   3.4398   3.4621   3.4850
  3.5003   3.5290   3.5901   3.5965   3.6241   3.6665   3.6717   3.7093
  3.7421   3.7841   3.8250   3.8780   3.9246   3.9388   3.9688   4.0398
  4.0764   4.1128   4.1475   4.2354   4.2861   4.3601   4.4408   4.4595
  4.5199   4.5687   4.6059   4.7650   4.7683   4.8107   4.8243   4.8650
  4.9138   4.9605   5.0195   5.0366   5.0537   5.1032   5.1507   5.2042
  5.2322   5.2989   5.3713   5.4354   5.4821   5.5292   5.5806   5.6004
  5.6712   5.7039   5.7569   5.7880   5.8645   6.0320   6.2318   6.2780
 22.6357  22.8543  23.0999  23.3977  32.6416  32.7667
 --------------------------------------------------------------
 
          Ground-State Mulliken Net Atomic Charges

     Atom                 Charge (a.u.)
  ----------------------------------------
      1 C                    -0.831172
      2 C                     0.575489
      3 C                    -0.269738
      4 C                    -0.611649
      5 N                    -0.524943
      6 N                     0.078287
      7 H                     0.343133
      8 H                     0.246568
      9 H                     0.242595
     10 H                     0.197785
     11 H                     0.319247
     12 H                     0.234397
  ----------------------------------------
  Sum of atomic charges =     0.000000

 -----------------------------------------------------------------
                    Cartesian Multipole Moments
 -----------------------------------------------------------------
    Charge (ESU x 10^10)
                -0.0000
    Dipole Moment (Debye)
         X      -4.2391      Y       2.6400      Z      -0.0585
       Tot       4.9943
    Quadrupole Moments (Debye-Ang)
        XX     -13.9940     XY     -12.6844     YY     -27.9527
        XZ      -0.1899     YZ      -5.1739     ZZ     -31.8932
    Octopole Moments (Debye-Ang^2)
       XXX     176.9993    XXY      34.6780    XYY      59.5344
       YYY     -47.3684    XXZ     -16.0666    XYZ      12.6669
       YYZ     -30.2700    XZZ      80.5600    YZZ     -17.7349
       ZZZ     -57.7108
    Hexadecapole Moments (Debye-Ang^3)
      XXXX   -1152.5168   XXXY     -41.1872   XXYY    -182.3887
      XYYY     136.4527   YYYY    -273.1050   XXXZ     122.3719
      XXYZ     -16.5253   XYYZ      79.4049   YYYZ      26.9781
      XXZZ    -280.5124   XYZZ      60.0864   YYZZ     -98.7774
      XZZZ     136.0006   YZZZ      44.8792   ZZZZ    -309.2548
 -----------------------------------------------------------------
Archival summary:
1\1\nid00533\SP\ProcedureUnspecified\BasisUnspecified\246\meili\SunSep2615:15:122021SunSep2615:15:122021\0\\#,ProcedureUnspecified,BasisUnspecified,\\0,1\N\C,1,1.33674\H,2,1.08499,1,125.559\N,2,1.33646,1,108.95,3,-178.915,0\H,4,1.01278,2,125.264,1,178.821,0\C,1,1.37173,2,108.265,3,-179.414,0\C,6,1.35829,1,107.723,2,-2.27086,0\H,7,1.08203,6,126.249,1,-178.784,0\C,6,1.49998,1,121.489,2,-179.555,0\H,9,1.08219,6,108.76,1,134.197,0\H,9,1.0911,6,107.977,1,18.4056,0\H,9,1.1,6,116.084,1,-103.285,0\\\@

 Total job time:  15285.52s(wall), 30300.97s(cpu) 
 Sun Sep 26 15:15:14 2021

        *************************************************************
        *                                                           *
        *  Thank you very much for using Q-Chem.  Have a nice day.  *
        *                                                           *
        *************************************************************


Done Job For Fragment 1
calling putenv with: QCSCRATCH=/global/cscratch1/sd/meili 
calling putenv with: QCLOCALSCR=/tmp 
calling putenv with: QCTHREADS=32 
Doing General SCFMI
 Exchange:     0.1670 Hartree-Fock + 1.0000 wB97X-V + LR-HF
 Correlation:  1.0000 wB97X-V
 Using Euler-Maclaurin-Lebedev (99,590) quadrature formula
 Nonlocal Correlation:  VV10 with C = 0.0100 and b = 6.00 and scale = 1.00000
 Grid used for NLC:  SG-1 standard quadrature
performing fock build before subrot guess so that all methods have access
Printing subrot_rss_gen Method Specification:
Occupied Subspace Method is 0
Virtual Subspace Method is 0
Energy of the unrelaxed supersystem initial determinant -531.115100912262
performing fock build before subrot guess so that all methods have access
Printing subrot_rss_gen Method Specification:
Occupied Subspace Method is 0
Virtual Subspace Method is 0
Energy of the unrelaxed supersystem initial determinant w/ solvent -531.146552370770
write pseudocanon occs and virts to disk
write pseudocanon orbital energies to disk
Tolerance of ortho_decomp_scf: 1.00e-06
GDM subspace size: 20
Beginning the Orthogonal Decomposition of the Initial Supersystem Wavefunction
    1    -531.0407581442      6.72e-02     ortho_decomp Preconditoned Steepest Descent
    2    -531.0512571895      1.59e-03     ortho_decomp BFGS Step
    3    -531.0512899788      1.49e-04     ortho_decomp BFGS Step
    4    -531.0512901021      7.85e-06     ortho_decomp BFGS Step
    5    -531.0512901026      3.53e-07     ortho_decomp 00000 Convergence criterion met
 Hartree-Fock
 Hartree-Fock
 Hartree-Fock
Doing General SCFMI
 Exchange:     0.1670 Hartree-Fock + 1.0000 wB97X-V + LR-HF
 Correlation:  1.0000 wB97X-V
 Using Euler-Maclaurin-Lebedev (99,590) quadrature formula
 Nonlocal Correlation:  VV10 with C = 0.0100 and b = 6.00 and scale = 1.00000
 Grid used for NLC:  SG-1 standard quadrature
performing fock build at end of subrot_r(subrot) constructor so that all methods have access
<S^2> of initial wavefunction before polarization iterations 0.0000000000
Beginning iterations for the determination of the polarized wavefunction
Energy prior to optimization (guess energy) = -531.146552370770
Begin Timing: Total SCF Calculation
begin iterations for algorithm: DIIS         
the SCF tolerance is set to 1.00e-08
    1    -531.1465523708      1.67e-04     00000 
    2    -531.1488142926      6.56e-05     00000 
    3    -531.1490214422      4.68e-05     00000 
    4    -531.1491141521      1.12e-05     00000 
    5    -531.1491247013      5.91e-06     00000 
    6    -531.1491283914      2.88e-06     00000 
    7    -531.1491295097      1.35e-06     00000 
    8    -531.1491297096      4.12e-07     00000 
    9    -531.1491297240      1.61e-07     00000 
   10    -531.1491297254      9.63e-08     00000 
   11    -531.1491297259      4.83e-08     00000 
   12    -531.1491297260      2.87e-08     00000 
   13    -531.1491297260      1.08e-08     00000 
   14    -531.1491297260      5.87e-09     00000 Convergence criterion met
write pseudocanon occs and virts to disk
write pseudocanon orbital energies to disk
Timing for Total SCF: 6275.00s (wall), 12488.78s (cpu)
<S^2> of polarized wavefunction after polarization iterations 0.0000000000
relaxing scfmi constraint to allow all rotations in the entire AO span
Doing General SCFMI
 Exchange:     0.1670 Hartree-Fock + 1.0000 wB97X-V + LR-HF
 Correlation:  1.0000 wB97X-V
 Using Euler-Maclaurin-Lebedev (99,590) quadrature formula
 Nonlocal Correlation:  VV10 with C = 0.0100 and b = 6.00 and scale = 1.00000
 Grid used for NLC:  SG-1 standard quadrature
performing fock build at end of subrot_r(subrot) constructor so that all methods have access
<S^2> of polarized wavefunction before ct-allowed iterations 0.0000000000
Beginning iterations for the determination of the CT-Allowed wavefunction
Energy prior to optimization (guess energy) = -531.149129726005
Begin Timing: Total SCF Calculation
begin iterations for algorithm: DIIS         
the SCF tolerance is set to 1.00e-08
    1    -531.1491297260      1.88e-04     00000 
    2    -531.1556580849      3.14e-05     00000 
    3    -531.1559520329      1.44e-05     00000 
    4    -531.1559784730      6.93e-06     00000 
    5    -531.1559865371      1.22e-06     00000 
    6    -531.1559868494      5.55e-07     00000 
    7    -531.1559869257      1.61e-07     00000 
    8    -531.1559869322      5.63e-08     00000 
    9    -531.1559869333      1.82e-08     00000 
   10    -531.1559869334      1.01e-08     00000 
   11    -531.1559869335      2.96e-09     00000 Convergence criterion met
write pseudocanon occs and virts to disk
write pseudocanon orbital energies to disk
Timing for Total SCF: 4928.00s (wall), 9806.41s (cpu)
<S^2> of ct_allowed wavefunction after ct-allowed iterations 0.0000000000

================================
        Results of EDA2         
================================
Basic EDA Quantities
--------------------
Fragment Energies (Ha):
1 -265.5716929075
2 -265.5693131187
--------------------
  E_prp (kJ/mol) = 0.0000
  E_sol (kJ/mol) = 38.1919
  E_frz (kJ/mol) = -32.3119
  E_pol (kJ/mol) = -6.7669
  E_vct (kJ/mol) = -18.0038
  E_int (kJ/mol) = -18.8907
--------------------


Initial Wavefunction Decomposition
--------------------
  --------------------
  Orthogonal Fragment Subspace Decomposition:
  --------------------
     E_elec   (ELEC)   (kJ/mol) = -128.1696
     E_pauli  (PAULI)  (kJ/mol) = 113.0479
     E_disp   (DISP)   (kJ/mol) = -17.1902
     --------------------
     Terms summing to E_pauli:
     --------------------
        E_kep_pauli       (kJ/mol) = 135.2254
        E_disp_free_pauli (kJ/mol) = -22.1775
  --------------------
  Classical Frozen Decomposition:
  --------------------
     E_cls_elec  (CLS ELEC)  (kJ/mol) = -91.4003
     E_cls_pauli (CLS PAULI) (kJ/mol) = 59.0884
    [E_mod_pauli (MOD PAULI) (kJ/mol) = 76.2786 (CLS PAULI - DISP from orthogonal decomposition) ]
  --------------------
--------------------

Simplified EDA Summary (kJ/mol)
--------------------
 PREPARATION     0.0000
 SOLVATION       38.1919
 FROZEN          -15.1217      (does not include dispersion)
[PAULI           113.0479]     (if this is negligible, then frozen describes electrostatics)
 DISPERSION      -17.1902
 POLARIZATION    -6.7669
 CHARGE TRANSFER -18.0038
 TOTAL           -18.8907     (PRP + SOL + FRZ + DISP + POL + CT)
--------------------
 
 --------------------------------------------------------------
 
                    Orbital Energies (a.u.)
 --------------------------------------------------------------
 
 Alpha MOs
 -- Occupied --
-14.4646 -14.4431 -14.3944 -14.3853 -10.3243 -10.3146 -10.2873 -10.2866
-10.2830 -10.2812 -10.2572 -10.2560  -1.1537  -1.1368  -1.0012  -0.9850
 -0.8970  -0.8881  -0.8244  -0.8172  -0.7320  -0.7132  -0.6857  -0.6744
 -0.6651  -0.6535  -0.5646  -0.5586  -0.5539  -0.5480  -0.5388  -0.5307
 -0.5091  -0.5032  -0.4977  -0.4898  -0.4779  -0.4757  -0.3916  -0.3841
 -0.3747  -0.3686  -0.3234  -0.3154
 -- Virtual --
  0.0636   0.0758   0.0835   0.0912   0.0986   0.1017   0.1086   0.1129
  0.1172   0.1241   0.1311   0.1344   0.1357   0.1448   0.1569   0.1688
  0.1709   0.1726   0.1775   0.1815   0.1867   0.1915   0.1962   0.2025
  0.2117   0.2135   0.2222   0.2332   0.2382   0.2405   0.2431   0.2447
  0.2571   0.2581   0.2637   0.2706   0.2800   0.2826   0.2835   0.2866
  0.2899   0.2994   0.3021   0.3052   0.3089   0.3129   0.3188   0.3215
  0.3246   0.3278   0.3291   0.3333   0.3347   0.3394   0.3435   0.3490
  0.3539   0.3577   0.3599   0.3623   0.3679   0.3733   0.3803   0.3828
  0.3838   0.3865   0.3915   0.3947   0.4028   0.4039   0.4088   0.4102
  0.4187   0.4214   0.4239   0.4265   0.4389   0.4407   0.4443   0.4493
  0.4511   0.4544   0.4580   0.4596   0.4644   0.4688   0.4754   0.4789
  0.4847   0.4899   0.4945   0.4986   0.5027   0.5061   0.5164   0.5190
  0.5238   0.5286   0.5349   0.5369   0.5470   0.5511   0.5532   0.5649
  0.5673   0.5703   0.5747   0.5811   0.5878   0.5907   0.5972   0.5980
  0.6005   0.6083   0.6159   0.6175   0.6211   0.6262   0.6342   0.6388
  0.6456   0.6520   0.6563   0.6583   0.6643   0.6762   0.6799   0.6831
  0.6923   0.6940   0.6976   0.7031   0.7110   0.7165   0.7191   0.7247
  0.7312   0.7355   0.7389   0.7467   0.7479   0.7537   0.7579   0.7611
  0.7633   0.7735   0.7825   0.7856   0.7892   0.7924   0.7983   0.8005
  0.8084   0.8135   0.8188   0.8213   0.8253   0.8303   0.8350   0.8492
  0.8561   0.8620   0.8625   0.8752   0.8759   0.8912   0.8977   0.9011
  0.9091   0.9194   0.9271   0.9342   0.9451   0.9566   0.9603   0.9654
  0.9801   0.9852   1.0022   1.0056   1.0180   1.0335   1.0401   1.0509
  1.0555   1.0646   1.0715   1.0746   1.0952   1.1015   1.1045   1.1131
  1.1198   1.1246   1.1306   1.1441   1.1540   1.1580   1.1681   1.1747
  1.1883   1.2076   1.2248   1.2373   1.2443   1.2540   1.2651   1.2825
  1.2918   1.3003   1.3100   1.3268   1.3309   1.3357   1.3505   1.3637
  1.3812   1.3901   1.4051   1.4104   1.4223   1.4467   1.4594   1.4683
  1.4807   1.4922   1.4993   1.5331   1.5525   1.5854   1.6038   1.6255
  1.6363   1.6492   1.6528   1.6694   1.6794   1.6852   1.7006   1.7045
  1.7226   1.7374   1.7490   1.7998   1.8238   1.8465   1.8484   1.8515
  1.8615   1.8674   1.8776   1.8860   1.9085   1.9141   1.9282   1.9331
  1.9439   1.9504   1.9620   1.9643   1.9690   1.9780   1.9887   1.9935
  1.9988   2.0068   2.0219   2.0266   2.0381   2.0457   2.0496   2.0566
  2.0645   2.0837   2.1037   2.1075   2.1308   2.1353   2.1650   2.1671
  2.1954   2.2008   2.2573   2.2654   2.2681   2.2906   2.2956   2.3095
  2.3434   2.3595   2.3930   2.4067   2.4073   2.4200   2.4331   2.4529
  2.4642   2.4726   2.4953   2.5001   2.5291   2.5365   2.5515   2.5726
  2.5850   2.6041   2.6140   2.6347   2.6451   2.6490   2.6560   2.6614
  2.6772   2.6819   2.6861   2.7076   2.7256   2.7373   2.7539   2.7633
  2.7873   2.7930   2.8098   2.8180   2.8221   2.8463   2.8768   2.8834
  2.8882   2.8932   2.8984   2.9149   2.9541   2.9638   2.9968   3.0165
  3.0286   3.0506   3.0530   3.0667   3.0797   3.0906   3.1022   3.1071
  3.1130   3.1243   3.1335   3.1606   3.1654   3.1747   3.1897   3.1959
  3.2047   3.2170   3.2189   3.2295   3.2448   3.2483   3.2500   3.2618
  3.2923   3.3100   3.3177   3.3246   3.3314   3.3413   3.3474   3.3542
  3.3728   3.3786   3.3867   3.3944   3.3974   3.4099   3.4274   3.4404
  3.4525   3.4623   3.4650   3.4789   3.4844   3.4884   3.5040   3.5159
  3.5314   3.5434   3.5456   3.5735   3.5854   3.6100   3.6184   3.6323
  3.6542   3.6566   3.6828   3.6898   3.7094   3.7283   3.7315   3.7469
  3.7555   3.7688   3.8006   3.8200   3.8256   3.8397   3.8541   3.8851
  3.9004   3.9365   3.9539   3.9632   3.9697   4.0021   4.0581   4.0615
  4.0827   4.1082   4.1247   4.1413   4.1469   4.1611   4.2515   4.2586
  4.2921   4.2990   4.3747   4.4481   4.4541   4.4625   4.4667   4.5072
  4.5327   4.5371   4.5755   4.5827   4.6072   4.6346   4.6717   4.7504
  4.7774   4.7870   4.8145   4.8241   4.8430   4.8665   4.8733   4.8917
  4.9456   4.9527   4.9695   4.9986   5.0262   5.0378   5.0460   5.0506
  5.0618   5.0748   5.0813   5.1277   5.1519   5.1781   5.2231   5.2384
  5.2479   5.3000   5.3091   5.3155   5.3750   5.4122   5.4395   5.4438
  5.5007   5.5120   5.5278   5.5328   5.5775   5.5930   5.6232   5.6384
  5.6996   5.7209   5.7349   5.7514   5.7918   5.8013   5.8167   5.8999
  5.9068   5.9675   6.0401   6.0865   6.2373   6.2482   6.2822   6.3506
 22.6502  22.6667  22.8819  22.8958  23.1380  23.1624  23.3684  23.4239
 32.6881  32.7840  32.8447  32.9659
 --------------------------------------------------------------
 
          Ground-State Mulliken Net Atomic Charges

     Atom                 Charge (a.u.)
  ----------------------------------------
      1 C                    -0.927022
      2 C                    -0.174062
      3 C                    -0.326463
      4 C                     0.218849
      5 N                     0.313331
      6 N                    -0.564272
      7 H                     0.333520
      8 H                     0.343670
      9 H                     0.350968
     10 H                     0.245930
     11 H                     0.239064
     12 H                     0.255257
     13 C                    -0.799390
     14 C                     0.338160
     15 C                    -0.514468
     16 C                    -0.590535
     17 N                    -0.290672
     18 N                     0.053775
     19 H                     0.337738
     20 H                     0.258883
     21 H                     0.162471
     22 H                     0.189767
     23 H                     0.315312
     24 H                     0.230189
  ----------------------------------------
  Sum of atomic charges =     0.000000

 -----------------------------------------------------------------
                    Cartesian Multipole Moments
 -----------------------------------------------------------------
    Charge (ESU x 10^10)
                -0.0000
    Dipole Moment (Debye)
         X     -10.1214      Y       1.9991      Z       0.8126
       Tot      10.3489
    Quadrupole Moments (Debye-Ang)
        XX     -68.7969     XY     -18.2599     YY     -58.2719
        XZ       4.2043     YZ      -6.0246     ZZ     -70.8684
    Octopole Moments (Debye-Ang^2)
       XXX    -196.9285    XXY      37.6153    XYY     -28.0844
       YYY      24.3289    XXZ      21.1360    XYZ      14.7103
       YYZ     -13.3930    XZZ     -25.7559    YZZ       9.9665
       ZZZ       0.6642
    Hexadecapole Moments (Debye-Ang^3)
      XXXX   -3293.1499   XXXY     113.1108   XXYY    -532.9949
      XYYY     387.3440   YYYY    -640.2876   XXXZ     344.8725
      XXYZ      -9.5303   XYYZ     126.2975   YYYZ      -5.3249
      XXZZ    -631.7474   XYZZ     149.5713   YYZZ    -188.2982
      XZZZ     295.3486   YZZZ      21.4173   ZZZZ    -421.9787
 -----------------------------------------------------------------
Archival summary:
1\1\nid00533\SP\ProcedureUnspecified\BasisUnspecified\4812\meili\SunSep2620:23:462021SunSep2620:23:462021\0\\#,ProcedureUnspecified,BasisUnspecified,\\0,1\N\H,1,1.01903\C,1,1.33786,2,124.954\H,3,1.08371,1,124.565,2,1.2865,0\N,3,1.34047,1,110.2,2,-179.588,0\C,5,1.38746,3,107.085,1,2.42139,0\C,6,1.3734,5,108.093,3,-2.10859,0\H,7,1.07939,6,127.592,5,-178.36,0\C,6,1.4979,5,120.83,3,178.114,0\H,9,1.09002,6,107.514,5,58.4562,0\H,9,1.0912,6,108.516,5,-57.6166,0\H,9,1.1,6,114.839,5,179.432,0\N,2,1.89624,1,173.555,3,-44.9599,0\C,13,1.33674,2,126.503,1,79.4591,0\H,14,1.08499,13,125.559,2,7.77338,0\N,14,1.33646,13,108.95,2,-171.142,0\H,16,1.01278,14,125.264,13,178.821,0\C,13,1.37173,2,124.812,1,-92.2202,0\C,18,1.35829,13,107.723,2,170.693,0\H,19,1.08203,18,126.249,13,-178.784,0\C,18,1.49998,13,121.489,2,-6.59155,0\H,21,1.08219,18,108.76,13,134.197,0\H,21,1.0911,18,107.977,13,18.4056,0\H,21,1.1,18,116.084,13,-103.285,0\\\@

 Total job time:  49607.94s(wall), 36870.28s(cpu) 
 Sun Sep 26 20:23:50 2021

        *************************************************************
        *                                                           *
        *  Thank you very much for using Q-Chem.  Have a nice day.  *
        *                                                           *
        *************************************************************


