
Running Job 1 of 1 SSI-055ASN-058TYR-1_PCM_TZVPD.in
qchem SSI-055ASN-058TYR-1_PCM_TZVPD.in_60017.0 /tmp/qchem60017/ 0
/global/common/cori/software/qchem/5.2/exe/qcprog.exe_s SSI-055ASN-058TYR-1_PCM_TZVPD.in_60017.0 /tmp/qchem60017/
                  Welcome to Q-Chem
     A Quantum Leap Into The Future Of Chemistry


 Q-Chem 5.2, Q-Chem, Inc., Pleasanton, CA (2019)

 License issued to: National Energy Research Scientific Computing Center

 Yihan Shao,  Zhengting Gan,  E. Epifanovsky,  A. T. B. Gilbert,  M. Wormit,  
 J. Kussmann,  A. W. Lange,  A. Behn,  Jia Deng,  Xintian Feng,  D. Ghosh,  
 M. Goldey,  P. R. Horn,  L. D. Jacobson,  I. Kaliman,  T. Kus,  A. Landau,  
 Jie Liu,  E. I. Proynov,  R. M. Richard,  R. P. Steele,  E. J. Sundstrom,  
 H. L. Woodcock III,  P. M. Zimmerman,  D. Zuev,  B. Albrecht,  E. Alguire,  
 S. A. Baeppler,  D. Barton,  Z. Benda,  Y. A. Bernard,  E. J. Berquist,  
 K. B. Bravaya,  H. Burton,  D. Casanova,  Chun-Min Chang,  Yunqing Chen,  
 A. Chien,  K. D. Closser,  M. P. Coons,  S. Coriani,  S. Dasgupta,  
 A. L. Dempwolff,  M. Diedenhofen,  Hainam Do,  R. G. Edgar,  Po-Tung Fang,  
 S. Faraji,  S. Fatehi,  Qingguo Feng,  K. D. Fenk,  J. Fosso-Tande,  
 J. Gayvert,  Qinghui Ge,  A. Ghysels,  G. Gidofalvi,  J. Gomes,  
 J. Gonthier,  A. Gunina,  D. Hait,  M. W. D. Hanson-Heine,  
 P. H. P. Harbach,  A. W. Hauser,  M. F. Herbst,  J. E. Herr,  
 E. G. Hohenstein,  Z. C. Holden,  Kerwin Hui,  B. C. Huynh,  T.-C. Jagau,  
 Hyunjun Ji,  B. Kaduk,  K. Khistyaev,  Jaehoon Kim,  P. Klunzinger,  K. Koh,  
 D. Kosenkov,  L. Koulias,  T. Kowalczyk,  C. M. Krauter,  A. Kunitsa,  
 Ka Un Lao,  A. Laurent,  K. V. Lawler,  Joonho Lee,  D. Lefrancois,  
 S. Lehtola,  D. S. Levine,  Yi-Pei Li,  You-Sheng Lin,  Fenglai Liu,  
 E. Livshits,  A. Luenser,  P. Manohar,  E. Mansoor,  S. F. Manzer,  
 Shan-Ping Mao,  Yuezhi Mao,  N. Mardirossian,  A. V. Marenich,  
 T. Markovich,  L. A. Martinez-Martinez,  S. A. Maurer,  N. J. Mayhall,  
 S. C. McKenzie,  J.-M. Mewes,  P. Morgante,  A. F. Morrison,  
 J. W. Mullinax,  K. Nanda,  T. S. Nguyen-Beck,  R. Olivares-Amaya,  
 J. A. Parkhill,  Zheng Pei,  T. M. Perrine,  F. Plasser,  P. Pokhilko,  
 S. Prager,  A. Prociuk,  E. Ramos,  D. R. Rehn,  F. Rob,  M. Scheurer,  
 M. Schneider,  N. Sergueev,  S. M. Sharada,  S. Sharma,  D. W. Small,  
 T. Stauch,  T. Stein,  Yu-Chuan Su,  A. J. W. Thom,  A. Tkatchenko,  
 T. Tsuchimochi,  N. M. Tubman,  L. Vogt,  M. L. Vidal,  O. Vydrov,  
 M. A. Watson,  J. Wenzel,  M. de Wergifosse,  T. A. Wesolowski,  A. White,  
 J. Witte,  A. Yamada,  Jun Yang,  K. Yao,  S. Yeganeh,  S. R. Yost,  
 Zhi-Qiang You,  A. Zech,  Igor Ying Zhang,  Xing Zhang,  Yan Zhao,  
 Ying Zhu,  B. R. Brooks,  G. K. L. Chan,  C. J. Cramer,  M. S. Gordon,  
 W. J. Hehre,  A. Klamt,  M. W. Schmidt,  C. D. Sherrill,  D. G. Truhlar,  
 A. Aspuru-Guzik,  R. Baer,  A. T. Bell,  N. A. Besley,  Jeng-Da Chai,  
 A. E. DePrince, III,  R. A. DiStasio Jr.,  A. Dreuw,  B. D. Dunietz,  
 T. R. Furlani,  Chao-Ping Hsu,  Yousung Jung,  Jing Kong,  D. S. Lambrecht,  
 WanZhen Liang,  C. Ochsenfeld,  V. A. Rassolov,  L. V. Slipchenko,  
 J. E. Subotnik,  T. Van Voorhis,  J. M. Herbert,  A. I. Krylov,  
 P. M. W. Gill,  M. Head-Gordon

 Contributors to earlier versions of Q-Chem not listed above: 
 R. D. Adamson,  B. Austin,  J. Baker,  G. J. O. Beran,  K. Brandhorst,  
 S. T. Brown,  E. F. C. Byrd,  A. K. Chakraborty,  C.-L. Cheng,  
 Siu Hung Chien,  D. M. Chipman,  D. L. Crittenden,  H. Dachsel,  
 R. J. Doerksen,  A. D. Dutoi,  L. Fusti-Molnar,  W. A. Goddard III,  
 A. Golubeva-Zadorozhnaya,  S. R. Gwaltney,  G. Hawkins,  A. Heyden,  
 S. Hirata,  G. Kedziora,  F. J. Keil,  C. Kelley,  Jihan Kim,  R. A. King,  
 R. Z. Khaliullin,  P. P. Korambath,  W. Kurlancheek,  A. M. Lee,  M. S. Lee,  
 S. V. Levchenko,  Ching Yeh Lin,  D. Liotard,  R. C. Lochan,  I. Lotan,  
 P. E. Maslen,  N. Nair,  D. P. O'Neill,  D. Neuhauser,  E. Neuscamman,  
 C. M. Oana,  R. Olson,  B. Peters,  R. Peverati,  P. A. Pieniazek,  
 Y. M. Rhee,  J. Ritchie,  M. A. Rohrdanz,  E. Rosta,  N. J. Russ,  
 H. F. Schaefer III,  N. E. Schultz,  N. Shenvi,  A. C. Simmonett,  A. Sodt,  
 D. Stuck,  K. S. Thanthiriwatte,  V. Vanovschi,  Tao Wang,  A. Warshel,  
 C. F. Williams,  Q. Wu,  X. Xu,  W. Zhang

 Please cite Q-Chem as follows:
 Y. Shao et al., Mol. Phys. 113, 184-215 (2015)
 DOI: 10.1080/00268976.2014.952696

 Q-Chem 5.2.0 for Intel X86 EM64T Linux

 Parts of Q-Chem use Armadillo 8.300.2 (Tropical Shenanigans).
 http://arma.sourceforge.net/

 Q-Chem begins on Sun Sep 26 08:40:11 2021  

Host: cori01
0

     Scratch files written to /tmp/qchem60017//
 May1019 |scratch|qcdevops|jenkins|workspace|build_RNUM -1
Processing $rem in /global/common/cori/software/qchem/5.2/config/preferences:
	 MEM_TOTAL  96000 
NAlpha2: 106
NElect   106
Mult     1
Symmetry turned off for PCM/SM12/SMD calculation

 Q-Chem warning in module libgen/rem_setup.C, line 2803:

 Neither GIA nor STOLL is specified by user. Use STOLL as the default


Checking the input file for inconsistencies... 	...done.

--------------------------------------------------------------
User input:
--------------------------------------------------------------
$comment
SSI-055ASN-058TYR-1.pdb
$end

$molecule
0 1
--
0 1
C   -2.156484867165    2.150626637438   -1.435250537630
C   -2.993484867165    2.726626637438   -0.288250537630
C   -2.964484867165    1.300626637438   -2.400250537630
O   -2.991484867165    0.080626637438   -2.295250537630
N   -3.611484867165    1.944626637438   -3.359250537630
H   -1.739484867165    2.992626637438   -1.988250537630
H   -1.318484867165    1.581626637438   -1.049250537630
H   -3.775484867165    3.366626637438   -0.705250537630
H   -4.165484867165    1.401626637438   -4.006250537630
H   -3.599484867165    2.953626637438   -3.417250537630
H   -2.342256867165    3.344016637438    0.347939462370
H   -3.463200867165    1.924796637438    0.300339462370
--
0 1
C   -0.351484867165   -1.028373362562   -0.193250537630
C   -1.172484867165   -2.249373362562    0.216749462370
C    0.942515132835   -0.900373362562    0.568749462370
C    2.029515132835   -1.721373362562    0.264749462370
C    1.063515132835    0.017626637438    1.610749462370
C    3.217515132835   -1.621373362562    0.976749462370
C    2.247515132835    0.111626637438    2.341749462370
C    3.325515132835   -0.708373362562    2.013749462370
O    4.505515132835   -0.614373362562    2.689749462370
H   -0.152484867165   -1.062373362562   -1.265250537630
H   -0.944484867165   -0.149373362562    0.022749462370
H   -0.716484867165   -3.138373362562   -0.222250537630
H    1.947515132835   -2.435373362562   -0.544250537630
H    0.236515132835    0.670626637438    1.852749462370
H    4.061515132835   -2.242373362562    0.722749462370
H    2.341515132835    0.832626637438    3.141749462370
H    5.182515132835   -1.179373362562    2.301749462370
H   -2.200806867165   -2.146543362562   -0.160050537630
H   -1.155953867165   -2.376593362562    1.309239462370
$end

$rem
JOBTYPE			EDA
EDA2			1
method			wB97X-V
BASIS			def2-TZVPD
XC_GRID			000099000590
NL_GRID			1
UNRESTRICTED		FALSE
MAX_SCF_CYCLES		200
SYMMETRY		FALSE
SYM_IGNORE		TRUE
MEM_STATIC		2000
BASIS_LIN_DEP_THRESH 	6
THRESH 			14
SCF_CONVERGENCE 	8
SCF_PRINT_FRGM 		TRUE
SOLVENT_METHOD          PCM
$end

$PCM
THEORY                  CPCM
METHOD                  SWIG
SOLVER                  INVERSION
RADII                   UFF
HPOINTS                 302
HEAVYPOINTS             302
PRINTLEVEL              0
$END

$SOLVENT
DIELECTRIC              78.390000 ! water
$END
--------------------------------------------------------------
 ----------------------------------------------------------------
             Standard Nuclear Orientation (Angstroms)
    I     Atom           X                Y                Z
 ----------------------------------------------------------------
    1      C      -2.1564848672     2.1506266374    -1.4352505376
    2      C      -2.9934848672     2.7266266374    -0.2882505376
    3      C      -2.9644848672     1.3006266374    -2.4002505376
    4      O      -2.9914848672     0.0806266374    -2.2952505376
    5      N      -3.6114848672     1.9446266374    -3.3592505376
    6      H      -1.7394848672     2.9926266374    -1.9882505376
    7      H      -1.3184848672     1.5816266374    -1.0492505376
    8      H      -3.7754848672     3.3666266374    -0.7052505376
    9      H      -4.1654848672     1.4016266374    -4.0062505376
   10      H      -3.5994848672     2.9536266374    -3.4172505376
   11      H      -2.3422568672     3.3440166374     0.3479394624
   12      H      -3.4632008672     1.9247966374     0.3003394624
   13      C      -0.3514848672    -1.0283733626    -0.1932505376
   14      C      -1.1724848672    -2.2493733626     0.2167494624
   15      C       0.9425151328    -0.9003733626     0.5687494624
   16      C       2.0295151328    -1.7213733626     0.2647494624
   17      C       1.0635151328     0.0176266374     1.6107494624
   18      C       3.2175151328    -1.6213733626     0.9767494624
   19      C       2.2475151328     0.1116266374     2.3417494624
   20      C       3.3255151328    -0.7083733626     2.0137494624
   21      O       4.5055151328    -0.6143733626     2.6897494624
   22      H      -0.1524848672    -1.0623733626    -1.2652505376
   23      H      -0.9444848672    -0.1493733626     0.0227494624
   24      H      -0.7164848672    -3.1383733626    -0.2222505376
   25      H       1.9475151328    -2.4353733626    -0.5442505376
   26      H       0.2365151328     0.6706266374     1.8527494624
   27      H       4.0615151328    -2.2423733626     0.7227494624
   28      H       2.3415151328     0.8326266374     3.1417494624
   29      H       5.1825151328    -1.1793733626     2.3017494624
   30      H      -2.2008068672    -2.1465433626    -0.1600505376
   31      H      -1.1559538672    -2.3765933626     1.3092394624
 ----------------------------------------------------------------
 Nuclear Repulsion Energy =         828.12518717 hartrees
 There are       53 alpha and       53 beta electrons
 Requested basis set is def2-TZVPD
 There are 269 shells and 677 basis functions

 Total QAlloc Memory Limit  96000 MB
 Mega-Array Size      1956 MB
 MEM_STATIC part      2000 MB
 Discretize the solute cavity surface with Lebedev spheres
	Using 302 Lebedev grid points for each H atom
	Using 302 Lebedev grid points for other atoms
	Atomic van der Waals radii will be scaled by 1.20
 Remove points where switching function is < 1.0e-08
 Keep 3431 surface tesserae and discard 5931 interior tesserae
 Molecular Surface Area = 336.645 Angst**2
 A cutoff of  1.0D-14 yielded  29680 shell pairs
 There are    186938 function pairs (    233895 Cartesian)
 Smallest overlap matrix eigenvalue = 4.73E-07
 Linear dependence detected in AO basis
 Tighter screening thresholds may be required for diffuse basis sets
 Use S2THRESH > 14 and THRESH = 14 in case of SCF convergence issues
 Number of orthogonalized atomic orbitals = 674
 Maximum deviation from orthogonality = 2.683E-10

 Scale SEOQF with 1.000000e-02/1.000000e-01/1.000000e-01

 Standard Electronic Orientation quadrupole field applied
 Nucleus-field energy     =    -0.0000000167 hartrees

 -----------------------------------------------------------------------
  General SCF calculation program by
  Eric Jon Sundstrom, Paul Horn, Yuezhi Mao, Dmitri Zuev, Alec White,
  David Stuck, Shaama M.S., Shane Yost, Joonho Lee, David Small,
  Daniel Levine, Susi Lehtola, Hugh Burton, Evgeny Epifanovsky
 -----------------------------------------------------------------------
================================================================
                 ALMO-EDA with the EDA2 driver                  
================================================================
 The second-generation ALMO-EDA (for DFT):                      
 P. R. Horn, Y. Mao and M. Head-Gordon, PCCP, 18, 23067 (2016)  
 Decomposition of the frozen energy:                            
 P. R. Horn, Y. Mao and M. Head-Gordon, JCP, 144, 114107 (2016) 
 FERF model for polarization:                                   
 P. R. Horn and M. Head-Gordon, JCP, 143, 114111 (2015)         
Using eda2 option set 1
Option set summary: Frozen orbital wavefunction, initial wavefunction decomposition, and nDQ polarization.
--------------------------------
Printing EDA Options
--------------------------------
eda_child_super_basis      0
fragmo_guess_mode          0
child_mp                   1
child_mp_orders            232
cls_elec                   1
cls_disp                   0
scfmi_mode                 1
scfmi_occs                 0
scfmi_virts                0
frz_relax                  0
frz_relax_method           0
dc_pen_start               0
dc_pen_conv                0
dc_pen_increment           0
dc_pen_steps               0
dc_pen_thresh_factor       0
dc_pen_pre_newton_thresh   0
frz_ortho_decomp           1
frz_ortho_decomp_conv      6
frgm_method                2
scfmi_freeze_ss            0
separate_rehyb             0
plot_diff_den              0
eda_nocv                   0
eda_vct_relax              1
disp_free_x                0
disp_free_c                0
eda_bsse                   0
eda_pct_a                  0
eda_covp                   0
--------------------------------
Attempting to make child job directory: /tmp/qchem60017//Frg1/
Attempting to make child job directory: /tmp/qchem60017//Frg2/
Creating input file /tmp/qchem60017/Frg1.input
using default PutDataFrgm: nothing
calling putenv with: QCSCRATCH=/tmp/qchem60017/ 
calling putenv with: QCLOCALSCR=/tmp/qchem60017/ 
Spawning Job For Fragment 0
                  Welcome to Q-Chem
     A Quantum Leap Into The Future Of Chemistry


 Q-Chem 5.2, Q-Chem, Inc., Pleasanton, CA (2019)

 License issued to: National Energy Research Scientific Computing Center

 Yihan Shao,  Zhengting Gan,  E. Epifanovsky,  A. T. B. Gilbert,  M. Wormit,  
 J. Kussmann,  A. W. Lange,  A. Behn,  Jia Deng,  Xintian Feng,  D. Ghosh,  
 M. Goldey,  P. R. Horn,  L. D. Jacobson,  I. Kaliman,  T. Kus,  A. Landau,  
 Jie Liu,  E. I. Proynov,  R. M. Richard,  R. P. Steele,  E. J. Sundstrom,  
 H. L. Woodcock III,  P. M. Zimmerman,  D. Zuev,  B. Albrecht,  E. Alguire,  
 S. A. Baeppler,  D. Barton,  Z. Benda,  Y. A. Bernard,  E. J. Berquist,  
 K. B. Bravaya,  H. Burton,  D. Casanova,  Chun-Min Chang,  Yunqing Chen,  
 A. Chien,  K. D. Closser,  M. P. Coons,  S. Coriani,  S. Dasgupta,  
 A. L. Dempwolff,  M. Diedenhofen,  Hainam Do,  R. G. Edgar,  Po-Tung Fang,  
 S. Faraji,  S. Fatehi,  Qingguo Feng,  K. D. Fenk,  J. Fosso-Tande,  
 J. Gayvert,  Qinghui Ge,  A. Ghysels,  G. Gidofalvi,  J. Gomes,  
 J. Gonthier,  A. Gunina,  D. Hait,  M. W. D. Hanson-Heine,  
 P. H. P. Harbach,  A. W. Hauser,  M. F. Herbst,  J. E. Herr,  
 E. G. Hohenstein,  Z. C. Holden,  Kerwin Hui,  B. C. Huynh,  T.-C. Jagau,  
 Hyunjun Ji,  B. Kaduk,  K. Khistyaev,  Jaehoon Kim,  P. Klunzinger,  K. Koh,  
 D. Kosenkov,  L. Koulias,  T. Kowalczyk,  C. M. Krauter,  A. Kunitsa,  
 Ka Un Lao,  A. Laurent,  K. V. Lawler,  Joonho Lee,  D. Lefrancois,  
 S. Lehtola,  D. S. Levine,  Yi-Pei Li,  You-Sheng Lin,  Fenglai Liu,  
 E. Livshits,  A. Luenser,  P. Manohar,  E. Mansoor,  S. F. Manzer,  
 Shan-Ping Mao,  Yuezhi Mao,  N. Mardirossian,  A. V. Marenich,  
 T. Markovich,  L. A. Martinez-Martinez,  S. A. Maurer,  N. J. Mayhall,  
 S. C. McKenzie,  J.-M. Mewes,  P. Morgante,  A. F. Morrison,  
 J. W. Mullinax,  K. Nanda,  T. S. Nguyen-Beck,  R. Olivares-Amaya,  
 J. A. Parkhill,  Zheng Pei,  T. M. Perrine,  F. Plasser,  P. Pokhilko,  
 S. Prager,  A. Prociuk,  E. Ramos,  D. R. Rehn,  F. Rob,  M. Scheurer,  
 M. Schneider,  N. Sergueev,  S. M. Sharada,  S. Sharma,  D. W. Small,  
 T. Stauch,  T. Stein,  Yu-Chuan Su,  A. J. W. Thom,  A. Tkatchenko,  
 T. Tsuchimochi,  N. M. Tubman,  L. Vogt,  M. L. Vidal,  O. Vydrov,  
 M. A. Watson,  J. Wenzel,  M. de Wergifosse,  T. A. Wesolowski,  A. White,  
 J. Witte,  A. Yamada,  Jun Yang,  K. Yao,  S. Yeganeh,  S. R. Yost,  
 Zhi-Qiang You,  A. Zech,  Igor Ying Zhang,  Xing Zhang,  Yan Zhao,  
 Ying Zhu,  B. R. Brooks,  G. K. L. Chan,  C. J. Cramer,  M. S. Gordon,  
 W. J. Hehre,  A. Klamt,  M. W. Schmidt,  C. D. Sherrill,  D. G. Truhlar,  
 A. Aspuru-Guzik,  R. Baer,  A. T. Bell,  N. A. Besley,  Jeng-Da Chai,  
 A. E. DePrince, III,  R. A. DiStasio Jr.,  A. Dreuw,  B. D. Dunietz,  
 T. R. Furlani,  Chao-Ping Hsu,  Yousung Jung,  Jing Kong,  D. S. Lambrecht,  
 WanZhen Liang,  C. Ochsenfeld,  V. A. Rassolov,  L. V. Slipchenko,  
 J. E. Subotnik,  T. Van Voorhis,  J. M. Herbert,  A. I. Krylov,  
 P. M. W. Gill,  M. Head-Gordon

 Contributors to earlier versions of Q-Chem not listed above: 
 R. D. Adamson,  B. Austin,  J. Baker,  G. J. O. Beran,  K. Brandhorst,  
 S. T. Brown,  E. F. C. Byrd,  A. K. Chakraborty,  C.-L. Cheng,  
 Siu Hung Chien,  D. M. Chipman,  D. L. Crittenden,  H. Dachsel,  
 R. J. Doerksen,  A. D. Dutoi,  L. Fusti-Molnar,  W. A. Goddard III,  
 A. Golubeva-Zadorozhnaya,  S. R. Gwaltney,  G. Hawkins,  A. Heyden,  
 S. Hirata,  G. Kedziora,  F. J. Keil,  C. Kelley,  Jihan Kim,  R. A. King,  
 R. Z. Khaliullin,  P. P. Korambath,  W. Kurlancheek,  A. M. Lee,  M. S. Lee,  
 S. V. Levchenko,  Ching Yeh Lin,  D. Liotard,  R. C. Lochan,  I. Lotan,  
 P. E. Maslen,  N. Nair,  D. P. O'Neill,  D. Neuhauser,  E. Neuscamman,  
 C. M. Oana,  R. Olson,  B. Peters,  R. Peverati,  P. A. Pieniazek,  
 Y. M. Rhee,  J. Ritchie,  M. A. Rohrdanz,  E. Rosta,  N. J. Russ,  
 H. F. Schaefer III,  N. E. Schultz,  N. Shenvi,  A. C. Simmonett,  A. Sodt,  
 D. Stuck,  K. S. Thanthiriwatte,  V. Vanovschi,  Tao Wang,  A. Warshel,  
 C. F. Williams,  Q. Wu,  X. Xu,  W. Zhang

 Please cite Q-Chem as follows:
 Y. Shao et al., Mol. Phys. 113, 184-215 (2015)
 DOI: 10.1080/00268976.2014.952696

 Q-Chem 5.2.0 for Intel X86 EM64T Linux

 Parts of Q-Chem use Armadillo 8.300.2 (Tropical Shenanigans).
 http://arma.sourceforge.net/

 Q-Chem begins on Sun Sep 26 08:40:19 2021  

Host: cori01
0

     Scratch files written to /tmp/qchem60017//Frg1//
 May1019 |scratch|qcdevops|jenkins|workspace|build_RNUM -1
Processing $rem in /global/common/cori/software/qchem/5.2/config/preferences:
	 MEM_TOTAL  96000 
NAlpha2: 40
NElect   40
Mult     1
Symmetry turned off for PCM/SM12/SMD calculation

Checking the input file for inconsistencies... 	...done.

--------------------------------------------------------------
User input:
--------------------------------------------------------------
$molecule
0 1
 6	-2.1564848672	2.1506266374	-1.4352505376
 6	-2.9934848672	2.7266266374	-0.2882505376
 6	-2.9644848672	1.3006266374	-2.4002505376
 8	-2.9914848672	0.0806266374	-2.2952505376
 7	-3.6114848672	1.9446266374	-3.3592505376
 1	-1.7394848672	2.9926266374	-1.9882505376
 1	-1.3184848672	1.5816266374	-1.0492505376
 1	-3.7754848672	3.3666266374	-0.7052505376
 1	-4.1654848672	1.4016266374	-4.0062505376
 1	-3.5994848672	2.9536266374	-3.4172505376
 1	-2.3422568672	3.3440166374	0.3479394624
 1	-3.4632008672	1.9247966374	0.3003394624
$end
$rem
EDA2		1
METHOD		WB97X-V
BASIS		DEF2-TZVPD
XC_GRID		000099000590
NL_GRID		1
UNRESTRICTED		FALSE
MAX_SCF_CYCLES		200
SYMMETRY		FALSE
SYM_IGNORE		TRUE
BASIS_LIN_DEP_THRESH		6
THRESH		14
SCF_CONVERGENCE		8
SCF_PRINT_FRGM		TRUE
SOLVENT_METHOD		PCM
!required keywords
JOBTYPE		SP
SYM_IGNORE		TRUE
SUBSYSTEM		TRUE
GEN_SCFMAN		TRUE
CHILD_INSTRUCTION		2
SYM_IGNORE		TRUE
SCFMI		0
RI_K 0		
PARI_K 0		
MIN_PARI_K 0		
IARI_K 0		
OCC_RI_K 0		
PURECART		1111
MEM_STATIC		2000
MEM_TOTAL		96000
GUI		0
CHILD_MP		1
CHILD_MP_ORDERS		232
FRZ_RELAX		0
FRZ_RELAX_METHOD		0
EDA_CLS_ELEC		1
EDA_CLS_DISP		0
FRZ_ORTHO_DECOMP		1
EDA2		FALSE
FRGM_METHOD		FALSE
CIS_N_ROOTS  0
LOCAL_CIS    0
CIS_RLX_DNS  1
$end
$pcm
THEORY                  CPCM
METHOD                  SWIG
SOLVER                  INVERSION
RADII                   UFF
HPOINTS                 302
HEAVYPOINTS             302
PRINTLEVEL              0
$end
$solvent
DIELECTRIC              78.390000 ! water
$end
--------------------------------------------------------------
 ----------------------------------------------------------------
             Standard Nuclear Orientation (Angstroms)
    I     Atom           X                Y                Z
 ----------------------------------------------------------------
    1      C      -2.1564848672     2.1506266374    -1.4352505376
    2      C      -2.9934848672     2.7266266374    -0.2882505376
    3      C      -2.9644848672     1.3006266374    -2.4002505376
    4      O      -2.9914848672     0.0806266374    -2.2952505376
    5      N      -3.6114848672     1.9446266374    -3.3592505376
    6      H      -1.7394848672     2.9926266374    -1.9882505376
    7      H      -1.3184848672     1.5816266374    -1.0492505376
    8      H      -3.7754848672     3.3666266374    -0.7052505376
    9      H      -4.1654848672     1.4016266374    -4.0062505376
   10      H      -3.5994848672     2.9536266374    -3.4172505376
   11      H      -2.3422568672     3.3440166374     0.3479394624
   12      H      -3.4632008672     1.9247966374     0.3003394624
 ----------------------------------------------------------------
 Nuclear Repulsion Energy =         179.38222846 hartrees
 There are       20 alpha and       20 beta electrons
 Requested basis set is def2-TZVPD
 There are 101 shells and 251 basis functions

 Total QAlloc Memory Limit  96000 MB
 Mega-Array Size      1956 MB
 MEM_STATIC part      2000 MB
 Discretize the solute cavity surface with Lebedev spheres
	Using 302 Lebedev grid points for each H atom
	Using 302 Lebedev grid points for other atoms
	Atomic van der Waals radii will be scaled by 1.20
 Remove points where switching function is < 1.0e-08
 Keep 1502 surface tesserae and discard 2122 interior tesserae
 Molecular Surface Area = 152.774 Angst**2

                       Distance Matrix (Angstroms)
             C (  1)   C (  2)   C (  3)   O (  4)   N (  5)   H (  6)
   C (  2)  1.532303
   C (  3)  1.518746  2.548502
   O (  4)  2.392013  3.321049  1.224808
   N (  5)  2.420999  3.228698  1.324019  2.234053
   H (  6)  1.090258  2.129148  2.129139  3.184572  2.546042
   H (  7)  1.083975  2.166973  2.147901  2.569912  3.275014  1.746391
   H (  8)  2.152375  1.093167  2.792687  3.733705  3.015410  2.435418
   H (  9)  3.347704  4.117370  2.007944  2.459845  1.010136  3.533989
   H ( 10)  2.579803  3.195216  2.042039  3.143673  1.010737  2.345882
   H ( 11)  2.153708  1.100003  3.480684  4.249431  4.160828  2.438154
   H ( 12)  2.184211  1.100001  2.816291  3.218783  3.662647  3.057630
             H (  7)   H (  8)   H (  9)   H ( 10)   H ( 11)
   H (  8)  3.056372
   H (  9)  4.108729  3.861337
   H ( 10)  3.562691  2.748907  1.753847
   H ( 11)  2.471086  1.778725  5.104509  3.988694
   H ( 12)  2.557140  1.785387  4.394727  3.859733  1.809134
 
 A cutoff of  1.0D-14 yielded   5053 shell pairs
 There are     31723 function pairs (     39882 Cartesian)
 Smallest overlap matrix eigenvalue = 7.96E-06

 Scale SEOQF with 1.000000e-01/1.000000e-01/1.000000e-01

 Standard Electronic Orientation quadrupole field applied
 Nucleus-field energy     =     0.0000000026 hartrees
 Guess from superposition of atomic densities
 Warning:  Energy on first SCF cycle will be non-variational
 SAD guess density has 39.592240 electrons

 -----------------------------------------------------------------------
  General SCF calculation program by
  Eric Jon Sundstrom, Paul Horn, Yuezhi Mao, Dmitri Zuev, Alec White,
  David Stuck, Shaama M.S., Shane Yost, Joonho Lee, David Small,
  Daniel Levine, Susi Lehtola, Hugh Burton, Evgeny Epifanovsky
 -----------------------------------------------------------------------
 Exchange:     0.1670 Hartree-Fock + 1.0000 wB97X-V + LR-HF
 Correlation:  1.0000 wB97X-V
 Using Euler-Maclaurin-Lebedev (99,590) quadrature formula
 Nonlocal Correlation:  VV10 with C = 0.0100 and b = 6.00 and scale = 1.00000
 Grid used for NLC:  SG-1 standard quadrature
Energy prior to optimization (guess energy) = -248.021390212647
Begin Timing: Total SCF Calculation
begin iterations for algorithm: DIIS         
the SCF tolerance is set to 1.00e-08
    1    -248.0213902126      9.78e-03     00000 
    2    -247.6731136138      1.19e-02     00000 
    3    -248.5387636121      1.94e-03     00000 
    4    -248.5587826149      6.23e-04     00000 
    5    -248.5613262378      9.66e-05     00000 
    6    -248.5614217693      4.02e-05     00000 
    7    -248.5614399148      8.85e-06     00000 
    8    -248.5614411399      1.65e-06     00000 
    9    -248.5614412346      5.21e-07     00000 
   10    -248.5614412401      2.08e-07     00000 
   11    -248.5614412408      5.85e-08     00000 
   12    -248.5614412409      1.51e-08     00000 
   13    -248.5614412409      4.41e-09     00000 Convergence criterion met
Timing for Total SCF: 741.00s (wall), 1468.91s (cpu)

************** Final PCM Free Energy Summary **************
 G_electrostatic  =      -0.01194279 hartree =      -7.49421243 kcal/mol
 G_cavitation     =       0.00000000 hartree =       0.00000000 kcal/mol
 G_dispersion     =       0.00000000 hartree =       0.00000000 kcal/mol
 G_repulsion      =       0.00000000 hartree =       0.00000000 kcal/mol
 --------------------------------------------------
 Non-electrostatic Free Energy =       0.00000000 hartree =       0.00000000 kcal/mol
 Total                         =      -0.01194279 hartree =      -7.49421243 kcal/mol
 --------------------------------------------------
 SCF Energy (H0 + V/2)                       =    -248.56144124 
 Solute Internal Energy (H0)                 =    -248.54949845 
 Total Free Energy (H0 + V/2 + non-elec)     =    -248.56144124 hartree
                                             = -155974.65850407 kcal/mol
***********************************************************

E_pcm = -0.0119427878
Multipole orders to be included
        2
        3
computing dipole RHS
computing quadrupole RHS
total number of RHS in solve_reponses: 8
RHS batch sizes
        8
Beginning Block Conjugate Gradient Iterations. Batch Number: 0
computing hessian-vector products by finite difference
              1      6.20e-01     00000 Conjugate Gradient Iteration
computing hessian-vector products by finite difference
              2      2.05e-01     00000 Conjugate Gradient Iteration
computing hessian-vector products by finite difference
              3      5.19e-02     00000 Conjugate Gradient Iteration
computing hessian-vector products by finite difference
              4      1.30e-02     00000 Conjugate Gradient Iteration
computing hessian-vector products by finite difference
              5      2.13e-03     00000 Conjugate Gradient Iteration
computing hessian-vector products by finite difference
              6      4.30e-04     00000 Conjugate Gradient Iteration
computing hessian-vector products by finite difference
              7      6.31e-05     00000 Conjugate Gradient Iteration
computing hessian-vector products by finite difference
              8      8.82e-06     00000 Conjugate Gradient Iteration
computing hessian-vector products by finite difference
              9      1.27e-06     00000 Conjugate Gradient Iteration
computing hessian-vector products by finite difference
             10      2.03e-07     00000 Conjugate Gradient Iteration
computing hessian-vector products by finite difference
             11      4.83e-08     00000 Conjugate Gradient Iteration
computing hessian-vector products by finite difference
             12      8.72e-09     00000 CG Converged
batch 0 complete
Done Calculating Responses
TESTING ORTHOGONALIZATION OF MULTIPOLE BASIS
Multipole virts passed orthogonality test
Virts Per Order
           60
          100
 
 --------------------------------------------------------------
 
                    Orbital Energies (a.u.)
 --------------------------------------------------------------
 
 Alpha MOs
 -- Occupied --
-19.1782 -14.4342 -10.3731 -10.2746 -10.2683  -1.1735  -1.0472  -0.9127
 -0.7812  -0.7079  -0.6607  -0.6008  -0.5580  -0.5475  -0.5283  -0.4827
 -0.4655  -0.4577  -0.3827  -0.3644
 -- Virtual --
  0.0587   0.0823   0.0894   0.0939   0.1093   0.1273   0.1317   0.1347
  0.1398   0.1681   0.1727   0.1875   0.1925   0.1999   0.2127   0.2288
  0.2424   0.2459   0.2539   0.2714   0.2811   0.2836   0.2930   0.3006
  0.3142   0.3218   0.3323   0.3335   0.3364   0.3452   0.3565   0.3599
  0.3674   0.3732   0.3814   0.3977   0.4044   0.4085   0.4214   0.4289
  0.4394   0.4440   0.4465   0.4618   0.4682   0.4842   0.4913   0.4966
  0.5022   0.5151   0.5172   0.5211   0.5337   0.5390   0.5416   0.5581
  0.5794   0.5858   0.5996   0.6138   0.6247   0.6305   0.6688   0.6755
  0.6853   0.6964   0.7042   0.7220   0.7326   0.7390   0.7516   0.7675
  0.7804   0.7809   0.7933   0.7995   0.8150   0.8230   0.8271   0.8478
  0.8573   0.8657   0.8865   0.8993   0.9169   0.9454   0.9857   1.0064
  1.0162   1.0394   1.0773   1.0904   1.1033   1.1082   1.1471   1.1884
  1.2182   1.2508   1.2744   1.3325   1.3436   1.3644   1.3818   1.4153
  1.4348   1.4741   1.5079   1.5343   1.5373   1.6467   1.6941   1.7458
  1.7642   1.8450   1.8695   1.8781   1.9010   1.9259   1.9345   1.9416
  1.9720   1.9843   1.9885   2.0052   2.0282   2.0667   2.0913   2.1495
  2.1552   2.1960   2.2236   2.2692   2.2783   2.3149   2.3565   2.3957
  2.4457   2.4728   2.4766   2.5310   2.5444   2.5679   2.5819   2.6172
  2.6384   2.6413   2.6904   2.7304   2.7466   2.7747   2.8207   2.8443
  2.8517   2.9159   2.9247   2.9764   3.0101   3.0178   3.0733   3.0864
  3.1594   3.1731   3.2154   3.2484   3.2751   3.2929   3.3047   3.3114
  3.3676   3.4264   3.4337   3.4605   3.4651   3.5138   3.5508   3.5573
  3.5672   3.5992   3.6462   3.6563   3.6872   3.7216   3.7744   3.7901
  3.8939   3.9811   3.9837   4.0170   4.0916   4.1074   4.1717   4.2120
  4.2513   4.3723   4.4599   4.5159   4.5591   4.5967   4.6751   4.7216
  4.7594   4.8348   4.8975   4.9124   4.9639   5.0571   5.1679   5.1941
  5.2818   5.3613   5.3964   5.4104   5.4225   5.5030   5.5494   5.7927
  5.9328   6.1600   6.2850   6.5454   6.6542   6.7557   6.8480   6.9978
  7.2483   7.3387  22.6091  22.7676  23.6317  32.4370  44.3546
 --------------------------------------------------------------
 
          Ground-State Mulliken Net Atomic Charges

     Atom                 Charge (a.u.)
  ----------------------------------------
      1 C                    -0.140549
      2 C                    -0.751329
      3 C                     0.319271
      4 O                    -0.580235
      5 N                    -0.267996
      6 H                     0.202267
      7 H                     0.163883
      8 H                     0.219203
      9 H                     0.212339
     10 H                     0.202060
     11 H                     0.206039
     12 H                     0.215048
  ----------------------------------------
  Sum of atomic charges =     0.000000

 -----------------------------------------------------------------
                    Cartesian Multipole Moments
 -----------------------------------------------------------------
    Charge (ESU x 10^10)
                -0.0000
    Dipole Moment (Debye)
         X      -0.5856      Y       5.0632      Z      -1.1196
       Tot       5.2185
    Quadrupole Moments (Debye-Ang)
        XX     -26.2448     XY     -15.9582     YY     -19.3074
        XZ       7.9094     YZ     -13.6642     ZZ     -22.5692
    Octopole Moments (Debye-Ang^2)
       XXX     246.6980    XXY      -1.6222    XYY      54.2985
       YYY    -127.5404    XXZ      15.8620    XYZ      49.1716
       YYZ      25.1915    XZZ      44.1969    YZZ     -11.6282
       ZZZ     129.7725
    Hexadecapole Moments (Debye-Ang^3)
      XXXX   -1575.5298   XXXY     295.6895   XXYY    -292.1844
      XYYY     362.2407   YYYY    -663.7703   XXXZ    -337.8736
      XXYZ     -94.6354   XYYZ     -61.8207   YYYZ     153.3320
      XXZZ    -210.0941   XYZZ      -6.0815   YYZZ    -179.9226
      XZZZ    -309.2403   YZZZ     111.7301   ZZZZ    -728.2315
 -----------------------------------------------------------------
Archival summary:
1\1\nid00559\SP\ProcedureUnspecified\BasisUnspecified\1137\meili\SunSep2612:22:422021SunSep2612:22:422021\0\\#,ProcedureUnspecified,BasisUnspecified,\\0,1\C\O,1,1.22481\N,1,1.32402,2,122.399\H,3,1.01014,1,118.065,2,1.77508,0\H,3,1.01074,1,121.421,2,178.319,0\C,1,1.51875,2,120.98,3,-178.957,0\H,6,1.08397,1,110.107,2,27.6285,0\H,6,1.09026,1,108.266,2,144.142,0\C,6,1.5323,1,113.291,2,-96.9064,0\H,9,1.09317,6,108.983,1,-60.7866,0\H,9,1.1,6,111.086,1,59.31,0\H,9,1.1,6,108.694,1,-178.734,0\\\@

 Total job time:  13344.85s(wall), 26446.94s(cpu) 
 Sun Sep 26 12:22:43 2021

        *************************************************************
        *                                                           *
        *  Thank you very much for using Q-Chem.  Have a nice day.  *
        *                                                           *
        *************************************************************


Done Job For Fragment 0
calling putenv with: QCSCRATCH=/global/cscratch1/sd/meili 
calling putenv with: QCLOCALSCR=/tmp 
calling putenv with: QCTHREADS=32 
Creating input file /tmp/qchem60017/Frg2.input
using default PutDataFrgm: nothing
calling putenv with: QCSCRATCH=/tmp/qchem60017/ 
calling putenv with: QCLOCALSCR=/tmp/qchem60017/ 
Spawning Job For Fragment 1
                  Welcome to Q-Chem
     A Quantum Leap Into The Future Of Chemistry


 Q-Chem 5.2, Q-Chem, Inc., Pleasanton, CA (2019)

 License issued to: National Energy Research Scientific Computing Center

 Yihan Shao,  Zhengting Gan,  E. Epifanovsky,  A. T. B. Gilbert,  M. Wormit,  
 J. Kussmann,  A. W. Lange,  A. Behn,  Jia Deng,  Xintian Feng,  D. Ghosh,  
 M. Goldey,  P. R. Horn,  L. D. Jacobson,  I. Kaliman,  T. Kus,  A. Landau,  
 Jie Liu,  E. I. Proynov,  R. M. Richard,  R. P. Steele,  E. J. Sundstrom,  
 H. L. Woodcock III,  P. M. Zimmerman,  D. Zuev,  B. Albrecht,  E. Alguire,  
 S. A. Baeppler,  D. Barton,  Z. Benda,  Y. A. Bernard,  E. J. Berquist,  
 K. B. Bravaya,  H. Burton,  D. Casanova,  Chun-Min Chang,  Yunqing Chen,  
 A. Chien,  K. D. Closser,  M. P. Coons,  S. Coriani,  S. Dasgupta,  
 A. L. Dempwolff,  M. Diedenhofen,  Hainam Do,  R. G. Edgar,  Po-Tung Fang,  
 S. Faraji,  S. Fatehi,  Qingguo Feng,  K. D. Fenk,  J. Fosso-Tande,  
 J. Gayvert,  Qinghui Ge,  A. Ghysels,  G. Gidofalvi,  J. Gomes,  
 J. Gonthier,  A. Gunina,  D. Hait,  M. W. D. Hanson-Heine,  
 P. H. P. Harbach,  A. W. Hauser,  M. F. Herbst,  J. E. Herr,  
 E. G. Hohenstein,  Z. C. Holden,  Kerwin Hui,  B. C. Huynh,  T.-C. Jagau,  
 Hyunjun Ji,  B. Kaduk,  K. Khistyaev,  Jaehoon Kim,  P. Klunzinger,  K. Koh,  
 D. Kosenkov,  L. Koulias,  T. Kowalczyk,  C. M. Krauter,  A. Kunitsa,  
 Ka Un Lao,  A. Laurent,  K. V. Lawler,  Joonho Lee,  D. Lefrancois,  
 S. Lehtola,  D. S. Levine,  Yi-Pei Li,  You-Sheng Lin,  Fenglai Liu,  
 E. Livshits,  A. Luenser,  P. Manohar,  E. Mansoor,  S. F. Manzer,  
 Shan-Ping Mao,  Yuezhi Mao,  N. Mardirossian,  A. V. Marenich,  
 T. Markovich,  L. A. Martinez-Martinez,  S. A. Maurer,  N. J. Mayhall,  
 S. C. McKenzie,  J.-M. Mewes,  P. Morgante,  A. F. Morrison,  
 J. W. Mullinax,  K. Nanda,  T. S. Nguyen-Beck,  R. Olivares-Amaya,  
 J. A. Parkhill,  Zheng Pei,  T. M. Perrine,  F. Plasser,  P. Pokhilko,  
 S. Prager,  A. Prociuk,  E. Ramos,  D. R. Rehn,  F. Rob,  M. Scheurer,  
 M. Schneider,  N. Sergueev,  S. M. Sharada,  S. Sharma,  D. W. Small,  
 T. Stauch,  T. Stein,  Yu-Chuan Su,  A. J. W. Thom,  A. Tkatchenko,  
 T. Tsuchimochi,  N. M. Tubman,  L. Vogt,  M. L. Vidal,  O. Vydrov,  
 M. A. Watson,  J. Wenzel,  M. de Wergifosse,  T. A. Wesolowski,  A. White,  
 J. Witte,  A. Yamada,  Jun Yang,  K. Yao,  S. Yeganeh,  S. R. Yost,  
 Zhi-Qiang You,  A. Zech,  Igor Ying Zhang,  Xing Zhang,  Yan Zhao,  
 Ying Zhu,  B. R. Brooks,  G. K. L. Chan,  C. J. Cramer,  M. S. Gordon,  
 W. J. Hehre,  A. Klamt,  M. W. Schmidt,  C. D. Sherrill,  D. G. Truhlar,  
 A. Aspuru-Guzik,  R. Baer,  A. T. Bell,  N. A. Besley,  Jeng-Da Chai,  
 A. E. DePrince, III,  R. A. DiStasio Jr.,  A. Dreuw,  B. D. Dunietz,  
 T. R. Furlani,  Chao-Ping Hsu,  Yousung Jung,  Jing Kong,  D. S. Lambrecht,  
 WanZhen Liang,  C. Ochsenfeld,  V. A. Rassolov,  L. V. Slipchenko,  
 J. E. Subotnik,  T. Van Voorhis,  J. M. Herbert,  A. I. Krylov,  
 P. M. W. Gill,  M. Head-Gordon

 Contributors to earlier versions of Q-Chem not listed above: 
 R. D. Adamson,  B. Austin,  J. Baker,  G. J. O. Beran,  K. Brandhorst,  
 S. T. Brown,  E. F. C. Byrd,  A. K. Chakraborty,  C.-L. Cheng,  
 Siu Hung Chien,  D. M. Chipman,  D. L. Crittenden,  H. Dachsel,  
 R. J. Doerksen,  A. D. Dutoi,  L. Fusti-Molnar,  W. A. Goddard III,  
 A. Golubeva-Zadorozhnaya,  S. R. Gwaltney,  G. Hawkins,  A. Heyden,  
 S. Hirata,  G. Kedziora,  F. J. Keil,  C. Kelley,  Jihan Kim,  R. A. King,  
 R. Z. Khaliullin,  P. P. Korambath,  W. Kurlancheek,  A. M. Lee,  M. S. Lee,  
 S. V. Levchenko,  Ching Yeh Lin,  D. Liotard,  R. C. Lochan,  I. Lotan,  
 P. E. Maslen,  N. Nair,  D. P. O'Neill,  D. Neuhauser,  E. Neuscamman,  
 C. M. Oana,  R. Olson,  B. Peters,  R. Peverati,  P. A. Pieniazek,  
 Y. M. Rhee,  J. Ritchie,  M. A. Rohrdanz,  E. Rosta,  N. J. Russ,  
 H. F. Schaefer III,  N. E. Schultz,  N. Shenvi,  A. C. Simmonett,  A. Sodt,  
 D. Stuck,  K. S. Thanthiriwatte,  V. Vanovschi,  Tao Wang,  A. Warshel,  
 C. F. Williams,  Q. Wu,  X. Xu,  W. Zhang

 Please cite Q-Chem as follows:
 Y. Shao et al., Mol. Phys. 113, 184-215 (2015)
 DOI: 10.1080/00268976.2014.952696

 Q-Chem 5.2.0 for Intel X86 EM64T Linux

 Parts of Q-Chem use Armadillo 8.300.2 (Tropical Shenanigans).
 http://arma.sourceforge.net/

 Q-Chem begins on Sun Sep 26 12:22:45 2021  

Host: cori01
0

     Scratch files written to /tmp/qchem60017//Frg2//
 May1019 |scratch|qcdevops|jenkins|workspace|build_RNUM -1
Processing $rem in /global/common/cori/software/qchem/5.2/config/preferences:
	 MEM_TOTAL  96000 
NAlpha2: 66
NElect   66
Mult     1
Symmetry turned off for PCM/SM12/SMD calculation

Checking the input file for inconsistencies... 	...done.

--------------------------------------------------------------
User input:
--------------------------------------------------------------
$molecule
0 1
 6	-0.3514848672	-1.0283733626	-0.1932505376
 6	-1.1724848672	-2.2493733626	0.2167494624
 6	0.9425151328	-0.9003733626	0.5687494624
 6	2.0295151328	-1.7213733626	0.2647494624
 6	1.0635151328	0.0176266374	1.6107494624
 6	3.2175151328	-1.6213733626	0.9767494624
 6	2.2475151328	0.1116266374	2.3417494624
 6	3.3255151328	-0.7083733626	2.0137494624
 8	4.5055151328	-0.6143733626	2.6897494624
 1	-0.1524848672	-1.0623733626	-1.2652505376
 1	-0.9444848672	-0.1493733626	0.0227494624
 1	-0.7164848672	-3.1383733626	-0.2222505376
 1	1.9475151328	-2.4353733626	-0.5442505376
 1	0.2365151328	0.6706266374	1.8527494624
 1	4.0615151328	-2.2423733626	0.7227494624
 1	2.3415151328	0.8326266374	3.1417494624
 1	5.1825151328	-1.1793733626	2.3017494624
 1	-2.2008068672	-2.1465433626	-0.1600505376
 1	-1.1559538672	-2.3765933626	1.3092394624
$end
$rem
EDA2		1
METHOD		WB97X-V
BASIS		DEF2-TZVPD
XC_GRID		000099000590
NL_GRID		1
UNRESTRICTED		FALSE
MAX_SCF_CYCLES		200
SYMMETRY		FALSE
SYM_IGNORE		TRUE
BASIS_LIN_DEP_THRESH		6
THRESH		14
SCF_CONVERGENCE		8
SCF_PRINT_FRGM		TRUE
SOLVENT_METHOD		PCM
!required keywords
JOBTYPE		SP
SYM_IGNORE		TRUE
SUBSYSTEM		TRUE
GEN_SCFMAN		TRUE
CHILD_INSTRUCTION		2
SYM_IGNORE		TRUE
SCFMI		0
RI_K 0		
PARI_K 0		
MIN_PARI_K 0		
IARI_K 0		
OCC_RI_K 0		
PURECART		1111
MEM_STATIC		2000
MEM_TOTAL		96000
GUI		0
CHILD_MP		1
CHILD_MP_ORDERS		232
FRZ_RELAX		0
FRZ_RELAX_METHOD		0
EDA_CLS_ELEC		1
EDA_CLS_DISP		0
FRZ_ORTHO_DECOMP		1
EDA2		FALSE
FRGM_METHOD		FALSE
CIS_N_ROOTS  0
LOCAL_CIS    0
CIS_RLX_DNS  1
$end
$pcm
THEORY                  CPCM
METHOD                  SWIG
SOLVER                  INVERSION
RADII                   UFF
HPOINTS                 302
HEAVYPOINTS             302
PRINTLEVEL              0
$end
$solvent
DIELECTRIC              78.390000 ! water
$end
--------------------------------------------------------------
 ----------------------------------------------------------------
             Standard Nuclear Orientation (Angstroms)
    I     Atom           X                Y                Z
 ----------------------------------------------------------------
    1      C      -0.3514848672    -1.0283733626    -0.1932505376
    2      C      -1.1724848672    -2.2493733626     0.2167494624
    3      C       0.9425151328    -0.9003733626     0.5687494624
    4      C       2.0295151328    -1.7213733626     0.2647494624
    5      C       1.0635151328     0.0176266374     1.6107494624
    6      C       3.2175151328    -1.6213733626     0.9767494624
    7      C       2.2475151328     0.1116266374     2.3417494624
    8      C       3.3255151328    -0.7083733626     2.0137494624
    9      O       4.5055151328    -0.6143733626     2.6897494624
   10      H      -0.1524848672    -1.0623733626    -1.2652505376
   11      H      -0.9444848672    -0.1493733626     0.0227494624
   12      H      -0.7164848672    -3.1383733626    -0.2222505376
   13      H       1.9475151328    -2.4353733626    -0.5442505376
   14      H       0.2365151328     0.6706266374     1.8527494624
   15      H       4.0615151328    -2.2423733626     0.7227494624
   16      H       2.3415151328     0.8326266374     3.1417494624
   17      H       5.1825151328    -1.1793733626     2.3017494624
   18      H      -2.2008068672    -2.1465433626    -0.1600505376
   19      H      -1.1559538672    -2.3765933626     1.3092394624
 ----------------------------------------------------------------
 Nuclear Repulsion Energy =         419.66447139 hartrees
 There are       33 alpha and       33 beta electrons
 Requested basis set is def2-TZVPD
 There are 168 shells and 426 basis functions

 Total QAlloc Memory Limit  96000 MB
 Mega-Array Size      1956 MB
 MEM_STATIC part      2000 MB
 Discretize the solute cavity surface with Lebedev spheres
	Using 302 Lebedev grid points for each H atom
	Using 302 Lebedev grid points for other atoms
	Atomic van der Waals radii will be scaled by 1.20
 Remove points where switching function is < 1.0e-08
 Keep 2138 surface tesserae and discard 3600 interior tesserae
 Molecular Surface Area = 213.149 Angst**2
 A cutoff of  1.0D-14 yielded  13239 shell pairs
 There are     86657 function pairs (    110149 Cartesian)
 Smallest overlap matrix eigenvalue = 5.13E-07
 Linear dependence detected in AO basis
 Tighter screening thresholds may be required for diffuse basis sets
 Use S2THRESH > 14 and THRESH = 14 in case of SCF convergence issues
 Number of orthogonalized atomic orbitals = 425
 Maximum deviation from orthogonality = 3.311E-10

 Scale SEOQF with 1.000000e-02/1.000000e-01/1.000000e-01

 Standard Electronic Orientation quadrupole field applied
 Nucleus-field energy     =    -0.0000000076 hartrees
 Guess from superposition of atomic densities
 Warning:  Energy on first SCF cycle will be non-variational
 SAD guess density has 65.726064 electrons

 -----------------------------------------------------------------------
  General SCF calculation program by
  Eric Jon Sundstrom, Paul Horn, Yuezhi Mao, Dmitri Zuev, Alec White,
  David Stuck, Shaama M.S., Shane Yost, Joonho Lee, David Small,
  Daniel Levine, Susi Lehtola, Hugh Burton, Evgeny Epifanovsky
 -----------------------------------------------------------------------
 Exchange:     0.1670 Hartree-Fock + 1.0000 wB97X-V + LR-HF
 Correlation:  1.0000 wB97X-V
 Using Euler-Maclaurin-Lebedev (99,590) quadrature formula
 Nonlocal Correlation:  VV10 with C = 0.0100 and b = 6.00 and scale = 1.00000
 Grid used for NLC:  SG-1 standard quadrature
Energy prior to optimization (guess energy) = -385.805308227069
Begin Timing: Total SCF Calculation
begin iterations for algorithm: DIIS         
the SCF tolerance is set to 1.00e-08
    1    -385.8053082271      4.54e-03     00000 
    2    -385.7487590109      4.87e-03     00000 
    3    -386.1277285793      4.79e-04     00000 
    4    -386.1320358176      1.62e-04     00000 
    5    -386.1326782239      2.19e-05     00000 
    6    -386.1326970833      1.16e-05     00000 
    7    -386.1327005980      3.75e-06     00000 
    8    -386.1327010788      1.02e-06     00000 
    9    -386.1327011331      4.65e-07     00000 
   10    -386.1327011424      1.19e-07     00000 
   11    -386.1327011442      5.32e-08     00000 
   12    -386.1327011445      2.91e-08     00000 
   13    -386.1327011446      6.98e-09     00000 Convergence criterion met
Timing for Total SCF: 3452.00s (wall), 6858.54s (cpu)

************** Final PCM Free Energy Summary **************
 G_electrostatic  =      -0.00568227 hartree =      -3.56567868 kcal/mol
 G_cavitation     =       0.00000000 hartree =       0.00000000 kcal/mol
 G_dispersion     =       0.00000000 hartree =       0.00000000 kcal/mol
 G_repulsion      =       0.00000000 hartree =       0.00000000 kcal/mol
 --------------------------------------------------
 Non-electrostatic Free Energy =       0.00000000 hartree =       0.00000000 kcal/mol
 Total                         =      -0.00568227 hartree =      -3.56567868 kcal/mol
 --------------------------------------------------
 SCF Energy (H0 + V/2)                       =    -386.13270114 
 Solute Internal Energy (H0)                 =    -386.12701887 
 Total Free Energy (H0 + V/2 + non-elec)     =    -386.13270114 hartree
                                             = -242301.92703103 kcal/mol
***********************************************************

E_pcm = -0.0056822707
Multipole orders to be included
        2
        3
computing dipole RHS
computing quadrupole RHS
total number of RHS in solve_reponses: 8
RHS batch sizes
        8
Beginning Block Conjugate Gradient Iterations. Batch Number: 0
computing hessian-vector products by finite difference
              1      5.74e-01     00000 Conjugate Gradient Iteration
computing hessian-vector products by finite difference
              2      1.86e-01     00000 Conjugate Gradient Iteration
computing hessian-vector products by finite difference
              3      5.04e-02     00000 Conjugate Gradient Iteration
computing hessian-vector products by finite difference
              4      1.52e-02     00000 Conjugate Gradient Iteration
computing hessian-vector products by finite difference
              5      5.66e-03     00000 Conjugate Gradient Iteration
computing hessian-vector products by finite difference
              6      1.37e-03     00000 Conjugate Gradient Iteration
computing hessian-vector products by finite difference
              7      3.21e-04     00000 Conjugate Gradient Iteration
computing hessian-vector products by finite difference
              8      6.32e-05     00000 Conjugate Gradient Iteration
computing hessian-vector products by finite difference
              9      1.16e-05     00000 Conjugate Gradient Iteration
computing hessian-vector products by finite difference
             10      2.06e-06     00000 Conjugate Gradient Iteration
computing hessian-vector products by finite difference
             11      3.41e-07     00000 Conjugate Gradient Iteration
computing hessian-vector products by finite difference
             12      5.18e-08     00000 Conjugate Gradient Iteration
computing hessian-vector products by finite difference
             13      8.22e-09     00000 CG Converged
batch 0 complete
Done Calculating Responses
TESTING ORTHOGONALIZATION OF MULTIPOLE BASIS
Multipole virts passed orthogonality test
Virts Per Order
           99
          165
 
 --------------------------------------------------------------
 
                    Orbital Energies (a.u.)
 --------------------------------------------------------------
 
 Alpha MOs
 -- Occupied --
-19.2449 -10.3352 -10.2753 -10.2745 -10.2730 -10.2723 -10.2711 -10.2640
-10.2570  -1.1956  -0.9973  -0.9202  -0.8852  -0.8504  -0.7597  -0.7482
 -0.7046  -0.6667  -0.6091  -0.5870  -0.5560  -0.5433  -0.5391  -0.5324
 -0.5209  -0.4924  -0.4825  -0.4523  -0.4401  -0.4371  -0.4338  -0.3534
 -0.3133
 -- Virtual --
  0.0574   0.0592   0.0672   0.0777   0.0817   0.0898   0.0965   0.1075
  0.1094   0.1144   0.1284   0.1404   0.1534   0.1633   0.1669   0.1754
  0.1804   0.1888   0.1920   0.2020   0.2066   0.2188   0.2275   0.2297
  0.2388   0.2456   0.2497   0.2645   0.2705   0.2717   0.2751   0.2830
  0.2894   0.2911   0.2960   0.2988   0.3005   0.3057   0.3191   0.3215
  0.3252   0.3333   0.3403   0.3419   0.3465   0.3546   0.3591   0.3617
  0.3639   0.3692   0.3734   0.3753   0.3806   0.3834   0.3892   0.3912
  0.4012   0.4035   0.4145   0.4198   0.4199   0.4310   0.4339   0.4391
  0.4412   0.4466   0.4559   0.4654   0.4701   0.4749   0.4764   0.4792
  0.4889   0.4893   0.4945   0.4963   0.5020   0.5111   0.5129   0.5243
  0.5299   0.5350   0.5378   0.5441   0.5455   0.5547   0.5618   0.5661
  0.5775   0.5846   0.5867   0.5906   0.6016   0.6115   0.6186   0.6262
  0.6332   0.6506   0.6526   0.6597   0.6657   0.6708   0.6809   0.6866
  0.6957   0.7008   0.7068   0.7143   0.7160   0.7229   0.7293   0.7383
  0.7400   0.7437   0.7582   0.7669   0.7689   0.7747   0.7778   0.7832
  0.7908   0.7992   0.8008   0.8050   0.8078   0.8118   0.8182   0.8196
  0.8309   0.8336   0.8397   0.8499   0.8579   0.8632   0.8716   0.8739
  0.8895   0.8979   0.9026   0.9140   0.9333   0.9413   0.9492   0.9729
  0.9790   0.9847   1.0154   1.0261   1.0329   1.0365   1.0504   1.0530
  1.0685   1.0714   1.0791   1.0916   1.1022   1.1214   1.1329   1.1618
  1.1785   1.1948   1.2238   1.2390   1.2582   1.2853   1.3051   1.3291
  1.3332   1.3465   1.3700   1.3783   1.3923   1.4113   1.4223   1.4391
  1.4531   1.4672   1.4761   1.5014   1.5177   1.5492   1.5747   1.5816
  1.6198   1.6413   1.6557   1.6581   1.6928   1.7234   1.7552   1.7597
  1.7767   1.8114   1.8286   1.8358   1.8564   1.8665   1.8804   1.8953
  1.9142   1.9279   1.9324   1.9395   1.9671   1.9825   1.9903   1.9999
  2.0113   2.0236   2.0399   2.0460   2.0590   2.0699   2.0709   2.0867
  2.1018   2.1391   2.1487   2.1706   2.2038   2.2088   2.2187   2.2470
  2.2603   2.2876   2.3133   2.3214   2.3341   2.3611   2.3742   2.4062
  2.4166   2.4388   2.4526   2.4817   2.5001   2.5211   2.5308   2.5573
  2.5696   2.6005   2.6116   2.6369   2.6492   2.6640   2.6718   2.6905
  2.7142   2.7451   2.7626   2.7800   2.7864   2.8123   2.8210   2.8245
  2.8549   2.8647   2.8853   2.9049   2.9128   2.9271   2.9395   2.9554
  2.9686   2.9801   2.9910   3.0027   3.0191   3.0267   3.0486   3.0665
  3.0783   3.0973   3.1185   3.1398   3.1443   3.1766   3.1877   3.2059
  3.2221   3.2463   3.2552   3.2707   3.2869   3.3084   3.3181   3.3366
  3.3658   3.3901   3.4076   3.4113   3.4259   3.4420   3.4609   3.4661
  3.4779   3.4854   3.4919   3.5132   3.5207   3.5342   3.5453   3.5474
  3.5537   3.5702   3.5770   3.5942   3.6048   3.6244   3.6382   3.6465
  3.6730   3.6803   3.6972   3.7145   3.7287   3.7588   3.7866   3.7985
  3.8227   3.8397   3.8627   3.8985   3.9427   3.9667   4.0023   4.0149
  4.0338   4.0854   4.1235   4.1425   4.1664   4.2067   4.2172   4.2608
  4.2730   4.3213   4.3268   4.3401   4.3518   4.3745   4.3872   4.3962
  4.4243   4.4477   4.4695   4.5096   4.5692   4.6095   4.6370   4.6836
  4.7366   4.7471   4.7845   4.8006   4.8796   4.9079   4.9309   5.0283
  5.0590   5.0785   5.1247   5.1422   5.1709   5.3326   5.3496   5.4026
  5.4653   5.5504   5.6121   5.6647   5.7358   5.7805   5.9486   6.2097
  6.4914   6.5877   6.6393   6.8743   7.0202   7.3055   7.4559  22.6487
 22.7138  22.8243  22.9499  23.0220  23.0525  23.2011  23.5397  44.4276
 --------------------------------------------------------------
 
          Ground-State Mulliken Net Atomic Charges

     Atom                 Charge (a.u.)
  ----------------------------------------
      1 C                    -0.516385
      2 C                    -0.803898
      3 C                     0.519858
      4 C                    -0.600012
      5 C                    -0.394788
      6 C                    -0.462685
      7 C                    -0.811360
      8 C                     0.845355
      9 O                    -0.491497
     10 H                     0.238811
     11 H                     0.261318
     12 H                     0.227157
     13 H                     0.337351
     14 H                     0.291496
     15 H                     0.273489
     16 H                     0.329933
     17 H                     0.292805
     18 H                     0.206916
     19 H                     0.256136
  ----------------------------------------
  Sum of atomic charges =     0.000000

 -----------------------------------------------------------------
                    Cartesian Multipole Moments
 -----------------------------------------------------------------
    Charge (ESU x 10^10)
                -0.0000
    Dipole Moment (Debye)
         X       0.1704      Y      -1.1266      Z      -1.3908
       Tot       1.7979
    Quadrupole Moments (Debye-Ang)
        XX     -46.4502     XY      -8.2773     YY     -52.2765
        XZ      -3.5407     YZ       2.2520     ZZ     -59.9315
    Octopole Moments (Debye-Ang^2)
       XXX    -201.3295    XXY      10.2566    XYY     -73.4822
       YYY     163.8573    XXZ     -65.7558    XYZ      -6.5800
       YYZ     -62.7134    XZZ    -111.3319    YZZ      61.8742
       ZZZ    -204.0230
    Hexadecapole Moments (Debye-Ang^3)
      XXXX   -1573.6811   XXXY     -60.8092   XXYY    -371.2630
      XYYY     161.2349   YYYY    -640.9688   XXXZ    -479.5047
      XXYZ     -32.0617   XYYZ    -160.8564   YYYZ     101.5941
      XXZZ    -560.4750   XYZZ      64.0865   YYZZ    -240.1768
      XZZZ    -612.8323   YZZZ     117.2024   ZZZZ    -901.2466
 -----------------------------------------------------------------
Archival summary:
1\1\nid00559\SP\ProcedureUnspecified\BasisUnspecified\1810\meili\MonSep2705:33:542021MonSep2705:33:542021\0\\#,ProcedureUnspecified,BasisUnspecified,\\0,1\C\C,1,1.39396\H,2,1.08116,1,119.912\C,2,1.39465,1,120.656,3,-179.502,0\H,4,1.08105,2,120.441,1,179.295,0\C,4,1.39358,2,119.583,1,0.889435,0\O,6,1.36316,4,120.818,2,178.358,0\H,7,0.963378,6,111.601,4,-174.552,0\C,6,1.38586,4,120.23,2,-0.666714,0\H,9,1.07819,6,119.651,4,179.222,0\C,9,1.38863,6,119.853,4,-0.169823,0\H,11,1.08213,9,119.714,6,-179.972,0\C,1,1.50714,2,120.557,3,-2.3103,0\H,13,1.0821,1,107.494,2,16.0173,0\H,13,1.09084,1,110.052,2,134.301,0\C,13,1.52741,1,113.183,2,-102.572,0\H,16,1.09132,13,108.579,1,-75.9444,0\H,16,1.1,13,110.547,1,41.6293,0\H,16,1.1,13,109.622,1,164.827,0\\\@

 Total job time:  61870.87s(wall), 122791.54s(cpu) 
 Mon Sep 27 05:33:56 2021

        *************************************************************
        *                                                           *
        *  Thank you very much for using Q-Chem.  Have a nice day.  *
        *                                                           *
        *************************************************************


Done Job For Fragment 1
calling putenv with: QCSCRATCH=/global/cscratch1/sd/meili 
calling putenv with: QCLOCALSCR=/tmp 
calling putenv with: QCTHREADS=32 
Doing General SCFMI
 Exchange:     0.1670 Hartree-Fock + 1.0000 wB97X-V + LR-HF
 Correlation:  1.0000 wB97X-V
 Using Euler-Maclaurin-Lebedev (99,590) quadrature formula
 Nonlocal Correlation:  VV10 with C = 0.0100 and b = 6.00 and scale = 1.00000
 Grid used for NLC:  SG-1 standard quadrature
performing fock build before subrot guess so that all methods have access
Printing subrot_rss_gen Method Specification:
Occupied Subspace Method is 0
Virtual Subspace Method is 0
Energy of the unrelaxed supersystem initial determinant -634.678606673244
performing fock build before subrot guess so that all methods have access
Printing subrot_rss_gen Method Specification:
Occupied Subspace Method is 0
Virtual Subspace Method is 0
Energy of the unrelaxed supersystem initial determinant w/ solvent -634.694335036910
write pseudocanon occs and virts to disk
write pseudocanon orbital energies to disk
Tolerance of ortho_decomp_scf: 1.00e-06
GDM subspace size: 20
Beginning the Orthogonal Decomposition of the Initial Supersystem Wavefunction
    1    -634.6622850866      2.07e-02     ortho_decomp Preconditoned Steepest Descent
    2    -634.6644112191      6.27e-04     ortho_decomp BFGS Step
    3    -634.6644195492      3.63e-05     ortho_decomp BFGS Step
    4    -634.6644195561      1.30e-06     ortho_decomp BFGS Step
    5    -634.6644195561      4.02e-08     ortho_decomp 00000 Convergence criterion met
 Hartree-Fock
 Hartree-Fock
 Hartree-Fock
Doing General SCFMI
 Exchange:     0.1670 Hartree-Fock + 1.0000 wB97X-V + LR-HF
 Correlation:  1.0000 wB97X-V
 Using Euler-Maclaurin-Lebedev (99,590) quadrature formula
 Nonlocal Correlation:  VV10 with C = 0.0100 and b = 6.00 and scale = 1.00000
 Grid used for NLC:  SG-1 standard quadrature
performing fock build at end of subrot_r(subrot) constructor so that all methods have access
<S^2> of initial wavefunction before polarization iterations 0.0000000000
Beginning iterations for the determination of the polarized wavefunction
Energy prior to optimization (guess energy) = -634.694335036910
Begin Timing: Total SCF Calculation
begin iterations for algorithm: DIIS         
the SCF tolerance is set to 1.00e-08
    1    -634.6943350369      4.45e-05     00000 
    2    -634.6945317978      2.36e-05     00000 
    3    -634.6945591162      1.20e-05     00000 
    4    -634.6945668695      4.61e-06     00000 
    5    -634.6945682201      1.56e-06     00000 
    6    -634.6945684866      6.07e-07     00000 
    7    -634.6945685353      2.85e-07     00000 
    8    -634.6945685417      1.45e-07     00000 
    9    -634.6945685429      5.17e-08     00000 
   10    -634.6945685430      2.53e-08     00000 
   11    -634.6945685431      9.60e-09     00000 Convergence criterion met
write pseudocanon occs and virts to disk
write pseudocanon orbital energies to disk
Timing for Total SCF: 9100.00s (wall), 18116.61s (cpu)
<S^2> of polarized wavefunction after polarization iterations 0.0000000000
relaxing scfmi constraint to allow all rotations in the entire AO span
Doing General SCFMI
 Exchange:     0.1670 Hartree-Fock + 1.0000 wB97X-V + LR-HF
 Correlation:  1.0000 wB97X-V
 Using Euler-Maclaurin-Lebedev (99,590) quadrature formula
 Nonlocal Correlation:  VV10 with C = 0.0100 and b = 6.00 and scale = 1.00000
 Grid used for NLC:  SG-1 standard quadrature
performing fock build at end of subrot_r(subrot) constructor so that all methods have access
<S^2> of polarized wavefunction before ct-allowed iterations 0.0000000000
Beginning iterations for the determination of the CT-Allowed wavefunction
Energy prior to optimization (guess energy) = -634.694568543069
Begin Timing: Total SCF Calculation
begin iterations for algorithm: DIIS         
the SCF tolerance is set to 1.00e-08
    1    -634.6945685431      5.61e-05     00000 
    2    -634.6952890428      6.15e-06     00000 
    3    -634.6953090824      1.00e-06     00000 
    4    -634.6953094984      8.37e-07     00000 
    5    -634.6953096083      1.34e-07     00000 
    6    -634.6953096129      5.83e-08     00000 
    7    -634.6953096137      1.03e-08     00000 
    8    -634.6953096138      4.31e-09     00000 Convergence criterion met
write pseudocanon occs and virts to disk
write pseudocanon orbital energies to disk
Timing for Total SCF: 6476.00s (wall), 12885.23s (cpu)
<S^2> of ct_allowed wavefunction after ct-allowed iterations 0.0000000000

================================
        Results of EDA2         
================================
Basic EDA Quantities
--------------------
Fragment Energies (Ha):
1 -248.5614412409
2 -386.1327011446
--------------------
  E_prp (kJ/mol) = 0.0000
  E_sol (kJ/mol) = 4.9798
  E_frz (kJ/mol) = -5.4856
  E_pol (kJ/mol) = -0.6131
  E_vct (kJ/mol) = -1.9457
  E_int (kJ/mol) = -3.0646
--------------------


Initial Wavefunction Decomposition
--------------------
  --------------------
  Orthogonal Fragment Subspace Decomposition:
  --------------------
     E_elec   (ELEC)   (kJ/mol) = -17.5763
     E_pauli  (PAULI)  (kJ/mol) = 24.4149
     E_disp   (DISP)   (kJ/mol) = -12.3243
     --------------------
     Terms summing to E_pauli:
     --------------------
        E_kep_pauli       (kJ/mol) = 31.7631
        E_disp_free_pauli (kJ/mol) = -7.3482
  --------------------
  Classical Frozen Decomposition:
  --------------------
     E_cls_elec  (CLS ELEC)  (kJ/mol) = -6.9549
     E_cls_pauli (CLS PAULI) (kJ/mol) = 1.4693
    [E_mod_pauli (MOD PAULI) (kJ/mol) = 13.7935 (CLS PAULI - DISP from orthogonal decomposition) ]
  --------------------
--------------------

Simplified EDA Summary (kJ/mol)
--------------------
 PREPARATION     0.0000
 SOLVATION       4.9798
 FROZEN          6.8386      (does not include dispersion)
[PAULI           24.4149]     (if this is negligible, then frozen describes electrostatics)
 DISPERSION      -12.3243
 POLARIZATION    -0.6131
 CHARGE TRANSFER -1.9457
 TOTAL           -3.0646     (PRP + SOL + FRZ + DISP + POL + CT)
--------------------
 
 --------------------------------------------------------------
 
                    Orbital Energies (a.u.)
 --------------------------------------------------------------
 
 Alpha MOs
 -- Occupied --
-19.2445 -19.1766 -14.4334 -10.3720 -10.3347 -10.2747 -10.2738 -10.2737
-10.2719 -10.2717 -10.2706 -10.2683 -10.2607 -10.2544  -1.1952  -1.1721
 -1.0463  -0.9965  -0.9183  -0.9122  -0.8846  -0.8487  -0.7808  -0.7583
 -0.7474  -0.7081  -0.7026  -0.6662  -0.6602  -0.6083  -0.5999  -0.5856
 -0.5586  -0.5546  -0.5482  -0.5407  -0.5381  -0.5316  -0.5271  -0.5188
 -0.4914  -0.4825  -0.4807  -0.4655  -0.4586  -0.4506  -0.4386  -0.4330
 -0.4314  -0.3816  -0.3625  -0.3530  -0.3125
 -- Virtual --
  0.0543   0.0589   0.0599   0.0723   0.0755   0.0771   0.0805   0.0890
  0.0985   0.0994   0.1056   0.1111   0.1139   0.1150   0.1195   0.1308
  0.1313   0.1383   0.1482   0.1554   0.1570   0.1614   0.1702   0.1732
  0.1790   0.1821   0.1884   0.1922   0.1986   0.2021   0.2056   0.2115
  0.2124   0.2241   0.2249   0.2298   0.2345   0.2349   0.2393   0.2452
  0.2504   0.2596   0.2604   0.2663   0.2667   0.2713   0.2742   0.2772
  0.2831   0.2855   0.2865   0.2898   0.2913   0.2971   0.2981   0.3024
  0.3064   0.3121   0.3134   0.3157   0.3221   0.3244   0.3302   0.3333
  0.3380   0.3407   0.3423   0.3471   0.3498   0.3515   0.3572   0.3595
  0.3620   0.3655   0.3671   0.3716   0.3747   0.3763   0.3801   0.3827
  0.3831   0.3872   0.3923   0.3942   0.3973   0.3985   0.4032   0.4049
  0.4131   0.4156   0.4176   0.4199   0.4227   0.4244   0.4306   0.4355
  0.4393   0.4410   0.4462   0.4480   0.4511   0.4561   0.4602   0.4614
  0.4668   0.4701   0.4748   0.4764   0.4814   0.4842   0.4869   0.4899
  0.4964   0.5000   0.5013   0.5041   0.5092   0.5135   0.5203   0.5213
  0.5234   0.5280   0.5316   0.5337   0.5354   0.5412   0.5458   0.5494
  0.5510   0.5552   0.5597   0.5627   0.5667   0.5741   0.5792   0.5833
  0.5857   0.5883   0.5921   0.5978   0.5982   0.6067   0.6160   0.6208
  0.6243   0.6247   0.6291   0.6339   0.6402   0.6470   0.6487   0.6568
  0.6590   0.6655   0.6698   0.6747   0.6761   0.6842   0.6888   0.6915
  0.6928   0.6980   0.7038   0.7053   0.7097   0.7133   0.7202   0.7280
  0.7293   0.7304   0.7352   0.7384   0.7423   0.7474   0.7506   0.7533
  0.7574   0.7636   0.7662   0.7716   0.7773   0.7787   0.7796   0.7882
  0.7915   0.7968   0.7993   0.8004   0.8064   0.8067   0.8147   0.8198
  0.8202   0.8249   0.8280   0.8313   0.8400   0.8454   0.8492   0.8512
  0.8567   0.8607   0.8648   0.8679   0.8748   0.8772   0.8814   0.8896
  0.8929   0.8984   0.9066   0.9122   0.9170   0.9184   0.9272   0.9275
  0.9404   0.9470   0.9512   0.9560   0.9640   0.9683   0.9785   0.9841
  0.9912   0.9964   1.0010   1.0109   1.0145   1.0318   1.0358   1.0387
  1.0395   1.0515   1.0641   1.0700   1.0773   1.0848   1.0875   1.0987
  1.1086   1.1134   1.1257   1.1301   1.1363   1.1461   1.1547   1.1563
  1.1681   1.1823   1.1946   1.2074   1.2263   1.2362   1.2378   1.2509
  1.2601   1.2744   1.2818   1.2953   1.3043   1.3119   1.3196   1.3259
  1.3337   1.3531   1.3681   1.3755   1.3825   1.3862   1.3964   1.4097
  1.4130   1.4254   1.4424   1.4444   1.4520   1.4714   1.4722   1.4817
  1.5026   1.5093   1.5218   1.5474   1.5497   1.5620   1.5662   1.5734
  1.5947   1.6159   1.6175   1.6431   1.6538   1.6592   1.6717   1.6878
  1.7001   1.7257   1.7330   1.7463   1.7644   1.7864   1.7955   1.8028
  1.8247   1.8382   1.8506   1.8607   1.8753   1.8897   1.8993   1.9100
  1.9159   1.9187   1.9316   1.9424   1.9535   1.9592   1.9630   1.9690
  1.9734   1.9855   2.0014   2.0061   2.0069   2.0160   2.0202   2.0273
  2.0289   2.0389   2.0495   2.0524   2.0607   2.0743   2.0841   2.0899
  2.0958   2.0981   2.1078   2.1127   2.1326   2.1567   2.1638   2.1751
  2.1773   2.2002   2.2076   2.2234   2.2289   2.2549   2.2728   2.2773
  2.2922   2.2970   2.2985   2.3172   2.3237   2.3356   2.3383   2.3483
  2.3690   2.3808   2.3890   2.3904   2.4219   2.4272   2.4367   2.4517
  2.4637   2.4693   2.5020   2.5025   2.5158   2.5245   2.5467   2.5525
  2.5639   2.5753   2.5785   2.5957   2.6053   2.6175   2.6213   2.6255
  2.6416   2.6538   2.6654   2.6780   2.6802   2.6978   2.7022   2.7094
  2.7250   2.7278   2.7574   2.7632   2.7680   2.7889   2.7990   2.8053
  2.8161   2.8322   2.8466   2.8527   2.8593   2.8746   2.8897   2.9000
  2.9094   2.9169   2.9230   2.9282   2.9477   2.9520   2.9598   2.9703
  2.9772   2.9856   2.9976   3.0022   3.0144   3.0214   3.0278   3.0346
  3.0429   3.0530   3.0794   3.0873   3.0968   3.1091   3.1140   3.1315
  3.1414   3.1513   3.1565   3.1815   3.1887   3.1922   3.2018   3.2175
  3.2310   3.2541   3.2600   3.2718   3.2809   3.2879   3.2927   3.3067
  3.3249   3.3297   3.3342   3.3489   3.3513   3.3683   3.3923   3.3998
  3.4116   3.4174   3.4322   3.4401   3.4520   3.4578   3.4637   3.4722
  3.4784   3.4804   3.4899   3.5004   3.5081   3.5144   3.5265   3.5373
  3.5406   3.5449   3.5530   3.5574   3.5696   3.5709   3.5776   3.5811
  3.5875   3.5962   3.6077   3.6206   3.6320   3.6403   3.6599   3.6644
  3.6752   3.6852   3.6955   3.6995   3.7183   3.7196   3.7361   3.7416
  3.7561   3.7569   3.7894   3.7999   3.8072   3.8142   3.8330   3.8557
  3.8729   3.9073   3.9155   3.9486   3.9758   3.9980   4.0138   4.0173
  4.0285   4.0348   4.0496   4.0985   4.1161   4.1423   4.1515   4.1629
  4.1704   4.2091   4.2263   4.2309   4.2455   4.2693   4.2716   4.2810
  4.3316   4.3330   4.3449   4.3619   4.3787   4.3902   4.4044   4.4060
  4.4332   4.4626   4.4791   4.4798   4.5230   4.5377   4.5827   4.5956
  4.6095   4.6263   4.6601   4.6930   4.6985   4.7436   4.7531   4.7614
  4.7741   4.7934   4.8118   4.8638   4.8959   4.9081   4.9211   4.9249
  4.9444   4.9840   5.0332   5.0635   5.0782   5.0883   5.1443   5.1472
  5.1758   5.1869   5.2154   5.2938   5.3371   5.3534   5.3742   5.4031
  5.4062   5.4211   5.4295   5.4791   5.5208   5.5517   5.5778   5.6121
  5.6590   5.7390   5.7697   5.7977   5.9422   5.9491   6.1679   6.2114
  6.2955   6.4847   6.5695   6.5884   6.6403   6.6902   6.7778   6.8684
  6.8753   7.0133   7.0167   7.2785   7.3021   7.3636   7.4572  22.6455
 22.6785  22.7365  22.8254  22.8917  22.9582  23.0470  23.0632  23.2059
 23.5407  23.6495  32.4734  44.3904  44.4339
 --------------------------------------------------------------
 
          Ground-State Mulliken Net Atomic Charges

     Atom                 Charge (a.u.)
  ----------------------------------------
      1 C                     0.218385
      2 C                    -0.770329
      3 C                     0.240553
      4 O                    -0.565075
      5 N                    -0.262460
      6 H                     0.245206
      7 H                    -0.189257
      8 H                     0.250952
      9 H                     0.227685
     10 H                     0.191844
     11 H                     0.223918
     12 H                     0.192082
     13 C                     0.220804
     14 C                    -1.027324
     15 C                     0.328874
     16 C                    -0.401165
     17 C                    -0.274069
     18 C                    -0.573206
     19 C                    -0.665546
     20 C                     0.594879
     21 O                    -0.474895
     22 H                     0.271851
     23 H                    -0.405678
     24 H                     0.255185
     25 H                     0.356346
     26 H                     0.366690
     27 H                     0.287090
     28 H                     0.344057
     29 H                     0.302346
     30 H                     0.228985
     31 H                     0.261273
  ----------------------------------------
  Sum of atomic charges =     0.000000

 -----------------------------------------------------------------
                    Cartesian Multipole Moments
 -----------------------------------------------------------------
    Charge (ESU x 10^10)
                -0.0000
    Dipole Moment (Debye)
         X      -0.5167      Y       3.8920      Z      -2.6049
       Tot       4.7117
    Quadrupole Moments (Debye-Ang)
        XX     -72.9741     XY     -23.9821     YY     -71.9558
        XZ       4.2559     YZ     -11.1970     ZZ     -82.7603
    Octopole Moments (Debye-Ang^2)
       XXX      45.2445    XXY       8.2402    XYY     -18.8685
       YYY      36.6289    XXZ     -49.7551    XYZ      42.1051
       YYZ     -37.4852    XZZ     -66.7526    YZZ      49.9093
       ZZZ     -73.9698
    Hexadecapole Moments (Debye-Ang^3)
      XXXX   -3156.9771   XXXY     237.6726   XXYY    -665.3743
      XYYY     524.4182   YYYY   -1309.4603   XXXZ    -821.7174
      XXYZ    -124.9180   XYYZ    -223.4434   YYYZ     256.3172
      XXZZ    -774.5351   XYZZ      59.4667   YYZZ    -421.6159
      XZZZ    -925.4823   YZZZ     230.5823   ZZZZ   -1633.6922
 -----------------------------------------------------------------
Archival summary:
1\1\nid00559\SP\ProcedureUnspecified\BasisUnspecified\211117\meili\MonSep2713:29:022021MonSep2713:29:022021\0\\#,ProcedureUnspecified,BasisUnspecified,\\0,1\O\C,1,1.22481\N,2,1.32402,1,122.399\H,3,1.01014,2,118.065,1,1.77508,0\H,3,1.01074,2,121.421,1,178.319,0\C,2,1.51875,1,120.98,3,-178.957,0\H,6,1.08397,2,110.107,1,27.6285,0\H,6,1.09026,2,108.266,1,144.142,0\C,6,1.5323,2,113.291,1,-96.9064,0\H,9,1.09317,6,108.983,2,-60.7866,0\H,9,1.1,6,111.086,2,59.31,0\H,9,1.1,6,108.694,2,-178.734,0\H,7,2.07013,6,139.729,2,-59.822,0\C,13,1.0821,7,132.444,6,123.611,0\H,14,1.09084,13,108.751,7,-17.393,0\C,14,1.50714,13,107.494,7,101.727,0\C,16,1.39396,14,120.557,13,16.0173,0\H,17,1.08116,16,119.912,14,-2.3103,0\C,17,1.39465,16,120.656,14,178.188,0\H,19,1.08105,17,120.441,16,179.295,0\C,19,1.39358,17,119.583,16,0.889435,0\O,21,1.36316,19,120.818,17,178.358,0\H,22,0.963378,21,111.601,19,-174.552,0\C,21,1.38586,19,120.23,17,-0.666714,0\H,24,1.07819,21,119.651,19,179.222,0\C,24,1.38863,21,119.853,19,-0.169823,0\H,26,1.08213,24,119.714,21,-179.972,0\C,14,1.52741,13,107.53,7,-136.103,0\H,28,1.09132,14,108.579,13,165.487,0\H,28,1.1,14,110.547,13,-76.9391,0\H,28,1.1,14,109.622,13,46.2587,0\\\@

 Total job time:  103733.00s(wall), 56796.88s(cpu) 
 Mon Sep 27 13:29:04 2021

        *************************************************************
        *                                                           *
        *  Thank you very much for using Q-Chem.  Have a nice day.  *
        *                                                           *
        *************************************************************


