
Running Job 1 of 1 SSI-041PHE-054HIE-1_SMD_TZVPD.in
qchem SSI-041PHE-054HIE-1_SMD_TZVPD.in_47729.0 /tmp/qchem47729/ 0
/global/common/cori/software/qchem/5.2/exe/qcprog.exe_s SSI-041PHE-054HIE-1_SMD_TZVPD.in_47729.0 /tmp/qchem47729/
                  Welcome to Q-Chem
     A Quantum Leap Into The Future Of Chemistry


 Q-Chem 5.2, Q-Chem, Inc., Pleasanton, CA (2019)

 License issued to: National Energy Research Scientific Computing Center

 Yihan Shao,  Zhengting Gan,  E. Epifanovsky,  A. T. B. Gilbert,  M. Wormit,  
 J. Kussmann,  A. W. Lange,  A. Behn,  Jia Deng,  Xintian Feng,  D. Ghosh,  
 M. Goldey,  P. R. Horn,  L. D. Jacobson,  I. Kaliman,  T. Kus,  A. Landau,  
 Jie Liu,  E. I. Proynov,  R. M. Richard,  R. P. Steele,  E. J. Sundstrom,  
 H. L. Woodcock III,  P. M. Zimmerman,  D. Zuev,  B. Albrecht,  E. Alguire,  
 S. A. Baeppler,  D. Barton,  Z. Benda,  Y. A. Bernard,  E. J. Berquist,  
 K. B. Bravaya,  H. Burton,  D. Casanova,  Chun-Min Chang,  Yunqing Chen,  
 A. Chien,  K. D. Closser,  M. P. Coons,  S. Coriani,  S. Dasgupta,  
 A. L. Dempwolff,  M. Diedenhofen,  Hainam Do,  R. G. Edgar,  Po-Tung Fang,  
 S. Faraji,  S. Fatehi,  Qingguo Feng,  K. D. Fenk,  J. Fosso-Tande,  
 J. Gayvert,  Qinghui Ge,  A. Ghysels,  G. Gidofalvi,  J. Gomes,  
 J. Gonthier,  A. Gunina,  D. Hait,  M. W. D. Hanson-Heine,  
 P. H. P. Harbach,  A. W. Hauser,  M. F. Herbst,  J. E. Herr,  
 E. G. Hohenstein,  Z. C. Holden,  Kerwin Hui,  B. C. Huynh,  T.-C. Jagau,  
 Hyunjun Ji,  B. Kaduk,  K. Khistyaev,  Jaehoon Kim,  P. Klunzinger,  K. Koh,  
 D. Kosenkov,  L. Koulias,  T. Kowalczyk,  C. M. Krauter,  A. Kunitsa,  
 Ka Un Lao,  A. Laurent,  K. V. Lawler,  Joonho Lee,  D. Lefrancois,  
 S. Lehtola,  D. S. Levine,  Yi-Pei Li,  You-Sheng Lin,  Fenglai Liu,  
 E. Livshits,  A. Luenser,  P. Manohar,  E. Mansoor,  S. F. Manzer,  
 Shan-Ping Mao,  Yuezhi Mao,  N. Mardirossian,  A. V. Marenich,  
 T. Markovich,  L. A. Martinez-Martinez,  S. A. Maurer,  N. J. Mayhall,  
 S. C. McKenzie,  J.-M. Mewes,  P. Morgante,  A. F. Morrison,  
 J. W. Mullinax,  K. Nanda,  T. S. Nguyen-Beck,  R. Olivares-Amaya,  
 J. A. Parkhill,  Zheng Pei,  T. M. Perrine,  F. Plasser,  P. Pokhilko,  
 S. Prager,  A. Prociuk,  E. Ramos,  D. R. Rehn,  F. Rob,  M. Scheurer,  
 M. Schneider,  N. Sergueev,  S. M. Sharada,  S. Sharma,  D. W. Small,  
 T. Stauch,  T. Stein,  Yu-Chuan Su,  A. J. W. Thom,  A. Tkatchenko,  
 T. Tsuchimochi,  N. M. Tubman,  L. Vogt,  M. L. Vidal,  O. Vydrov,  
 M. A. Watson,  J. Wenzel,  M. de Wergifosse,  T. A. Wesolowski,  A. White,  
 J. Witte,  A. Yamada,  Jun Yang,  K. Yao,  S. Yeganeh,  S. R. Yost,  
 Zhi-Qiang You,  A. Zech,  Igor Ying Zhang,  Xing Zhang,  Yan Zhao,  
 Ying Zhu,  B. R. Brooks,  G. K. L. Chan,  C. J. Cramer,  M. S. Gordon,  
 W. J. Hehre,  A. Klamt,  M. W. Schmidt,  C. D. Sherrill,  D. G. Truhlar,  
 A. Aspuru-Guzik,  R. Baer,  A. T. Bell,  N. A. Besley,  Jeng-Da Chai,  
 A. E. DePrince, III,  R. A. DiStasio Jr.,  A. Dreuw,  B. D. Dunietz,  
 T. R. Furlani,  Chao-Ping Hsu,  Yousung Jung,  Jing Kong,  D. S. Lambrecht,  
 WanZhen Liang,  C. Ochsenfeld,  V. A. Rassolov,  L. V. Slipchenko,  
 J. E. Subotnik,  T. Van Voorhis,  J. M. Herbert,  A. I. Krylov,  
 P. M. W. Gill,  M. Head-Gordon

 Contributors to earlier versions of Q-Chem not listed above: 
 R. D. Adamson,  B. Austin,  J. Baker,  G. J. O. Beran,  K. Brandhorst,  
 S. T. Brown,  E. F. C. Byrd,  A. K. Chakraborty,  C.-L. Cheng,  
 Siu Hung Chien,  D. M. Chipman,  D. L. Crittenden,  H. Dachsel,  
 R. J. Doerksen,  A. D. Dutoi,  L. Fusti-Molnar,  W. A. Goddard III,  
 A. Golubeva-Zadorozhnaya,  S. R. Gwaltney,  G. Hawkins,  A. Heyden,  
 S. Hirata,  G. Kedziora,  F. J. Keil,  C. Kelley,  Jihan Kim,  R. A. King,  
 R. Z. Khaliullin,  P. P. Korambath,  W. Kurlancheek,  A. M. Lee,  M. S. Lee,  
 S. V. Levchenko,  Ching Yeh Lin,  D. Liotard,  R. C. Lochan,  I. Lotan,  
 P. E. Maslen,  N. Nair,  D. P. O'Neill,  D. Neuhauser,  E. Neuscamman,  
 C. M. Oana,  R. Olson,  B. Peters,  R. Peverati,  P. A. Pieniazek,  
 Y. M. Rhee,  J. Ritchie,  M. A. Rohrdanz,  E. Rosta,  N. J. Russ,  
 H. F. Schaefer III,  N. E. Schultz,  N. Shenvi,  A. C. Simmonett,  A. Sodt,  
 D. Stuck,  K. S. Thanthiriwatte,  V. Vanovschi,  Tao Wang,  A. Warshel,  
 C. F. Williams,  Q. Wu,  X. Xu,  W. Zhang

 Please cite Q-Chem as follows:
 Y. Shao et al., Mol. Phys. 113, 184-215 (2015)
 DOI: 10.1080/00268976.2014.952696

 Q-Chem 5.2.0 for Intel X86 EM64T Linux

 Parts of Q-Chem use Armadillo 8.300.2 (Tropical Shenanigans).
 http://arma.sourceforge.net/

 Q-Chem begins on Sun Sep 26 07:02:03 2021  

Host: cori01
0

     Scratch files written to /tmp/qchem47729//
 May1019 |scratch|qcdevops|jenkins|workspace|build_RNUM -1
Processing $rem in /global/common/cori/software/qchem/5.2/config/preferences:
	 MEM_TOTAL  96000 
NAlpha2: 102
NElect   102
Mult     1
Symmetry turned off for PCM/SM12/SMD calculation

 Q-Chem warning in module libgen/rem_setup.C, line 2803:

 Neither GIA nor STOLL is specified by user. Use STOLL as the default


Checking the input file for inconsistencies... 	...done.

--------------------------------------------------------------
User input:
--------------------------------------------------------------
$comment
SSI-041PHE-054HIE-1.pdb
$end

$molecule
0 1
--
0 1
C   -2.091096742516   -0.439070477996    0.689866126666
C   -3.153096742516   -0.962070477996    1.656866126666
C   -0.696096742516   -0.654070477996    1.193866126666
C   -0.252096742516    0.044929522004    2.307866126666
C    0.147903257484   -1.578070477996    0.592866126666
C    1.023903257484   -0.165070477996    2.810866126666
C    1.427903257484   -1.790070477996    1.091866126666
C    1.867903257484   -1.086070477996    2.207866126666
H   -2.215096742516   -0.927070477996   -0.276133873334
H   -2.233096742516    0.627929522004    0.535866126666
H   -2.945096742516   -0.511070477996    2.624866126666
H   -0.898096742516    0.765929522004    2.788866126666
H   -0.184096742516   -2.128070477996   -0.274133873334
H    1.358903257484    0.380929522004    3.680866126666
H    2.038903257484   -2.499070477996    0.582866126666
H    2.862903257484   -1.243070477996    2.594866126666
H   -3.066383742516   -2.054654477996    1.750365126666
H   -4.163934242516   -0.628023477996    1.380063126666
--
0 1
C    1.668903257484    1.766929522004   -0.381133873334
C   -0.523096742516    1.690929522004   -1.765133873334
C    0.753903257484    1.324929522004   -1.483133873334
C    0.108903257484    0.210929522004   -3.263133873334
N   -0.898096742516    0.983929522004   -2.882133873334
N    1.132903257484    0.397929522004   -2.435133873334
H   -1.123096742516    2.396929522004   -1.212133873334
H   -1.828096742516    0.978929522004   -3.299133873334
H    1.948903257484    0.883929522004    0.188866126666
H    1.129903257484    2.440929522004    0.286866126666
H    0.092903257484   -0.465070477996   -4.111133873334
H    2.582468257484    2.258295522004   -0.747136453334
$end

$rem
JOBTYPE			EDA
EDA2			1
method			wB97X-V
BASIS			def2-TZVPD
XC_GRID			000099000590
NL_GRID			1
UNRESTRICTED		FALSE
MAX_SCF_CYCLES		200
SYMMETRY		FALSE
SYM_IGNORE		TRUE
MEM_STATIC		2000
BASIS_LIN_DEP_THRESH 	6
THRESH 			14
SCF_CONVERGENCE 	8
SCF_PRINT_FRGM 		TRUE
SOLVENT_METHOD          SMD
$end

$SMX
SOLVENT			WATER
$END
--------------------------------------------------------------
 ----------------------------------------------------------------
             Standard Nuclear Orientation (Angstroms)
    I     Atom           X                Y                Z
 ----------------------------------------------------------------
    1      C      -2.0910967425    -0.4390704780     0.6898661267
    2      C      -3.1530967425    -0.9620704780     1.6568661267
    3      C      -0.6960967425    -0.6540704780     1.1938661267
    4      C      -0.2520967425     0.0449295220     2.3078661267
    5      C       0.1479032575    -1.5780704780     0.5928661267
    6      C       1.0239032575    -0.1650704780     2.8108661267
    7      C       1.4279032575    -1.7900704780     1.0918661267
    8      C       1.8679032575    -1.0860704780     2.2078661267
    9      H      -2.2150967425    -0.9270704780    -0.2761338733
   10      H      -2.2330967425     0.6279295220     0.5358661267
   11      H      -2.9450967425    -0.5110704780     2.6248661267
   12      H      -0.8980967425     0.7659295220     2.7888661267
   13      H      -0.1840967425    -2.1280704780    -0.2741338733
   14      H       1.3589032575     0.3809295220     3.6808661267
   15      H       2.0389032575    -2.4990704780     0.5828661267
   16      H       2.8629032575    -1.2430704780     2.5948661267
   17      H      -3.0663837425    -2.0546544780     1.7503651267
   18      H      -4.1639342425    -0.6280234780     1.3800631267
   19      C       1.6689032575     1.7669295220    -0.3811338733
   20      C      -0.5230967425     1.6909295220    -1.7651338733
   21      C       0.7539032575     1.3249295220    -1.4831338733
   22      C       0.1089032575     0.2109295220    -3.2631338733
   23      N      -0.8980967425     0.9839295220    -2.8821338733
   24      N       1.1329032575     0.3979295220    -2.4351338733
   25      H      -1.1230967425     2.3969295220    -1.2121338733
   26      H      -1.8280967425     0.9789295220    -3.2991338733
   27      H       1.9489032575     0.8839295220     0.1888661267
   28      H       1.1299032575     2.4409295220     0.2868661267
   29      H       0.0929032575    -0.4650704780    -4.1111338733
   30      H       2.5824682575     2.2582955220    -0.7471364533
 ----------------------------------------------------------------
 Nuclear Repulsion Energy =         858.41642789 hartrees
 There are       51 alpha and       51 beta electrons
 Requested basis set is def2-TZVPD
 There are 262 shells and 662 basis functions

 Total QAlloc Memory Limit  96000 MB
 Mega-Array Size      1956 MB
 MEM_STATIC part      2000 MB
 
 Citation of the SMD model:
 Marenich, A.V.; Cramer, C.J.; Truhlar, D.G.
 J. Phys. Chem. B 2009, 113, 6378-6396.
 iSolventCode=           1
 Solvent: water                                                           
 
 vradii
            1           2           3           4           5           6
    1   1.8500000   1.8500000   1.8500000   1.8500000   1.8500000   1.8500000
            7           8           9          10          11          12
    1   1.8500000   1.8500000   1.2000000   1.2000000   1.2000000   1.2000000
           13          14          15          16          17          18
    1   1.2000000   1.2000000   1.2000000   1.2000000   1.2000000   1.2000000
           19          20          21          22          23          24
    1   1.8500000   1.8500000   1.8500000   1.8500000   1.8900000   1.8900000
           25          26          27          28          29          30
    1   1.2000000   1.2000000   1.2000000   1.2000000   1.2000000   1.2000000
 Changing PCM_VDW_RADII to SMD_RADIUS
 Discretize the solute cavity surface with Lebedev spheres
	Using 110 Lebedev grid points for each H atom
	Using 194 Lebedev grid points for other atoms
	Atomic van der Waals radii will be scaled by 1.20
 Remove points where switching function is < 1.0e-08
 Keep 2162 surface tesserae and discard 2314 interior tesserae
 Molecular Surface Area = 259.846 Angst**2
 A cutoff of  1.0D-14 yielded  30802 shell pairs
 There are    199418 function pairs (    252563 Cartesian)
 Smallest overlap matrix eigenvalue = 4.05E-07
 Linear dependence detected in AO basis
 Tighter screening thresholds may be required for diffuse basis sets
 Use S2THRESH > 14 and THRESH = 14 in case of SCF convergence issues
 Number of orthogonalized atomic orbitals = 660
 Maximum deviation from orthogonality = 1.382E-10

 Scale SEOQF with 1.000000e-01/1.000000e-01/1.000000e-01

 Standard Electronic Orientation quadrupole field applied
 Nucleus-field energy     =    -0.0000000253 hartrees

 -----------------------------------------------------------------------
  General SCF calculation program by
  Eric Jon Sundstrom, Paul Horn, Yuezhi Mao, Dmitri Zuev, Alec White,
  David Stuck, Shaama M.S., Shane Yost, Joonho Lee, David Small,
  Daniel Levine, Susi Lehtola, Hugh Burton, Evgeny Epifanovsky
 -----------------------------------------------------------------------
================================================================
                 ALMO-EDA with the EDA2 driver                  
================================================================
 The second-generation ALMO-EDA (for DFT):                      
 P. R. Horn, Y. Mao and M. Head-Gordon, PCCP, 18, 23067 (2016)  
 Decomposition of the frozen energy:                            
 P. R. Horn, Y. Mao and M. Head-Gordon, JCP, 144, 114107 (2016) 
 FERF model for polarization:                                   
 P. R. Horn and M. Head-Gordon, JCP, 143, 114111 (2015)         
Using eda2 option set 1
Option set summary: Frozen orbital wavefunction, initial wavefunction decomposition, and nDQ polarization.
--------------------------------
Printing EDA Options
--------------------------------
eda_child_super_basis      0
fragmo_guess_mode          0
child_mp                   1
child_mp_orders            232
cls_elec                   1
cls_disp                   0
scfmi_mode                 1
scfmi_occs                 0
scfmi_virts                0
frz_relax                  0
frz_relax_method           0
dc_pen_start               0
dc_pen_conv                0
dc_pen_increment           0
dc_pen_steps               0
dc_pen_thresh_factor       0
dc_pen_pre_newton_thresh   0
frz_ortho_decomp           1
frz_ortho_decomp_conv      6
frgm_method                2
scfmi_freeze_ss            0
separate_rehyb             0
plot_diff_den              0
eda_nocv                   0
eda_vct_relax              1
disp_free_x                0
disp_free_c                0
eda_bsse                   0
eda_pct_a                  0
eda_covp                   0
--------------------------------
Attempting to make child job directory: /tmp/qchem47729//Frg1/
Attempting to make child job directory: /tmp/qchem47729//Frg2/
Creating input file /tmp/qchem47729/Frg1.input
using default PutDataFrgm: nothing
calling putenv with: QCSCRATCH=/tmp/qchem47729/ 
calling putenv with: QCLOCALSCR=/tmp/qchem47729/ 
Spawning Job For Fragment 0
                  Welcome to Q-Chem
     A Quantum Leap Into The Future Of Chemistry


 Q-Chem 5.2, Q-Chem, Inc., Pleasanton, CA (2019)

 License issued to: National Energy Research Scientific Computing Center

 Yihan Shao,  Zhengting Gan,  E. Epifanovsky,  A. T. B. Gilbert,  M. Wormit,  
 J. Kussmann,  A. W. Lange,  A. Behn,  Jia Deng,  Xintian Feng,  D. Ghosh,  
 M. Goldey,  P. R. Horn,  L. D. Jacobson,  I. Kaliman,  T. Kus,  A. Landau,  
 Jie Liu,  E. I. Proynov,  R. M. Richard,  R. P. Steele,  E. J. Sundstrom,  
 H. L. Woodcock III,  P. M. Zimmerman,  D. Zuev,  B. Albrecht,  E. Alguire,  
 S. A. Baeppler,  D. Barton,  Z. Benda,  Y. A. Bernard,  E. J. Berquist,  
 K. B. Bravaya,  H. Burton,  D. Casanova,  Chun-Min Chang,  Yunqing Chen,  
 A. Chien,  K. D. Closser,  M. P. Coons,  S. Coriani,  S. Dasgupta,  
 A. L. Dempwolff,  M. Diedenhofen,  Hainam Do,  R. G. Edgar,  Po-Tung Fang,  
 S. Faraji,  S. Fatehi,  Qingguo Feng,  K. D. Fenk,  J. Fosso-Tande,  
 J. Gayvert,  Qinghui Ge,  A. Ghysels,  G. Gidofalvi,  J. Gomes,  
 J. Gonthier,  A. Gunina,  D. Hait,  M. W. D. Hanson-Heine,  
 P. H. P. Harbach,  A. W. Hauser,  M. F. Herbst,  J. E. Herr,  
 E. G. Hohenstein,  Z. C. Holden,  Kerwin Hui,  B. C. Huynh,  T.-C. Jagau,  
 Hyunjun Ji,  B. Kaduk,  K. Khistyaev,  Jaehoon Kim,  P. Klunzinger,  K. Koh,  
 D. Kosenkov,  L. Koulias,  T. Kowalczyk,  C. M. Krauter,  A. Kunitsa,  
 Ka Un Lao,  A. Laurent,  K. V. Lawler,  Joonho Lee,  D. Lefrancois,  
 S. Lehtola,  D. S. Levine,  Yi-Pei Li,  You-Sheng Lin,  Fenglai Liu,  
 E. Livshits,  A. Luenser,  P. Manohar,  E. Mansoor,  S. F. Manzer,  
 Shan-Ping Mao,  Yuezhi Mao,  N. Mardirossian,  A. V. Marenich,  
 T. Markovich,  L. A. Martinez-Martinez,  S. A. Maurer,  N. J. Mayhall,  
 S. C. McKenzie,  J.-M. Mewes,  P. Morgante,  A. F. Morrison,  
 J. W. Mullinax,  K. Nanda,  T. S. Nguyen-Beck,  R. Olivares-Amaya,  
 J. A. Parkhill,  Zheng Pei,  T. M. Perrine,  F. Plasser,  P. Pokhilko,  
 S. Prager,  A. Prociuk,  E. Ramos,  D. R. Rehn,  F. Rob,  M. Scheurer,  
 M. Schneider,  N. Sergueev,  S. M. Sharada,  S. Sharma,  D. W. Small,  
 T. Stauch,  T. Stein,  Yu-Chuan Su,  A. J. W. Thom,  A. Tkatchenko,  
 T. Tsuchimochi,  N. M. Tubman,  L. Vogt,  M. L. Vidal,  O. Vydrov,  
 M. A. Watson,  J. Wenzel,  M. de Wergifosse,  T. A. Wesolowski,  A. White,  
 J. Witte,  A. Yamada,  Jun Yang,  K. Yao,  S. Yeganeh,  S. R. Yost,  
 Zhi-Qiang You,  A. Zech,  Igor Ying Zhang,  Xing Zhang,  Yan Zhao,  
 Ying Zhu,  B. R. Brooks,  G. K. L. Chan,  C. J. Cramer,  M. S. Gordon,  
 W. J. Hehre,  A. Klamt,  M. W. Schmidt,  C. D. Sherrill,  D. G. Truhlar,  
 A. Aspuru-Guzik,  R. Baer,  A. T. Bell,  N. A. Besley,  Jeng-Da Chai,  
 A. E. DePrince, III,  R. A. DiStasio Jr.,  A. Dreuw,  B. D. Dunietz,  
 T. R. Furlani,  Chao-Ping Hsu,  Yousung Jung,  Jing Kong,  D. S. Lambrecht,  
 WanZhen Liang,  C. Ochsenfeld,  V. A. Rassolov,  L. V. Slipchenko,  
 J. E. Subotnik,  T. Van Voorhis,  J. M. Herbert,  A. I. Krylov,  
 P. M. W. Gill,  M. Head-Gordon

 Contributors to earlier versions of Q-Chem not listed above: 
 R. D. Adamson,  B. Austin,  J. Baker,  G. J. O. Beran,  K. Brandhorst,  
 S. T. Brown,  E. F. C. Byrd,  A. K. Chakraborty,  C.-L. Cheng,  
 Siu Hung Chien,  D. M. Chipman,  D. L. Crittenden,  H. Dachsel,  
 R. J. Doerksen,  A. D. Dutoi,  L. Fusti-Molnar,  W. A. Goddard III,  
 A. Golubeva-Zadorozhnaya,  S. R. Gwaltney,  G. Hawkins,  A. Heyden,  
 S. Hirata,  G. Kedziora,  F. J. Keil,  C. Kelley,  Jihan Kim,  R. A. King,  
 R. Z. Khaliullin,  P. P. Korambath,  W. Kurlancheek,  A. M. Lee,  M. S. Lee,  
 S. V. Levchenko,  Ching Yeh Lin,  D. Liotard,  R. C. Lochan,  I. Lotan,  
 P. E. Maslen,  N. Nair,  D. P. O'Neill,  D. Neuhauser,  E. Neuscamman,  
 C. M. Oana,  R. Olson,  B. Peters,  R. Peverati,  P. A. Pieniazek,  
 Y. M. Rhee,  J. Ritchie,  M. A. Rohrdanz,  E. Rosta,  N. J. Russ,  
 H. F. Schaefer III,  N. E. Schultz,  N. Shenvi,  A. C. Simmonett,  A. Sodt,  
 D. Stuck,  K. S. Thanthiriwatte,  V. Vanovschi,  Tao Wang,  A. Warshel,  
 C. F. Williams,  Q. Wu,  X. Xu,  W. Zhang

 Please cite Q-Chem as follows:
 Y. Shao et al., Mol. Phys. 113, 184-215 (2015)
 DOI: 10.1080/00268976.2014.952696

 Q-Chem 5.2.0 for Intel X86 EM64T Linux

 Parts of Q-Chem use Armadillo 8.300.2 (Tropical Shenanigans).
 http://arma.sourceforge.net/

 Q-Chem begins on Sun Sep 26 07:02:15 2021  

Host: cori01
0

     Scratch files written to /tmp/qchem47729//Frg1//
 May1019 |scratch|qcdevops|jenkins|workspace|build_RNUM -1
Processing $rem in /global/common/cori/software/qchem/5.2/config/preferences:
	 MEM_TOTAL  96000 
NAlpha2: 58
NElect   58
Mult     1
Symmetry turned off for PCM/SM12/SMD calculation

Checking the input file for inconsistencies... 	...done.

--------------------------------------------------------------
User input:
--------------------------------------------------------------
$molecule
0 1
 6	-2.0910967425	-0.4390704780	0.6898661267
 6	-3.1530967425	-0.9620704780	1.6568661267
 6	-0.6960967425	-0.6540704780	1.1938661267
 6	-0.2520967425	0.0449295220	2.3078661267
 6	0.1479032575	-1.5780704780	0.5928661267
 6	1.0239032575	-0.1650704780	2.8108661267
 6	1.4279032575	-1.7900704780	1.0918661267
 6	1.8679032575	-1.0860704780	2.2078661267
 1	-2.2150967425	-0.9270704780	-0.2761338733
 1	-2.2330967425	0.6279295220	0.5358661267
 1	-2.9450967425	-0.5110704780	2.6248661267
 1	-0.8980967425	0.7659295220	2.7888661267
 1	-0.1840967425	-2.1280704780	-0.2741338733
 1	1.3589032575	0.3809295220	3.6808661267
 1	2.0389032575	-2.4990704780	0.5828661267
 1	2.8629032575	-1.2430704780	2.5948661267
 1	-3.0663837425	-2.0546544780	1.7503651267
 1	-4.1639342425	-0.6280234780	1.3800631267
$end
$rem
EDA2		1
METHOD		WB97X-V
BASIS		DEF2-TZVPD
XC_GRID		000099000590
NL_GRID		1
UNRESTRICTED		FALSE
MAX_SCF_CYCLES		200
SYMMETRY		FALSE
SYM_IGNORE		TRUE
BASIS_LIN_DEP_THRESH		6
THRESH		14
SCF_CONVERGENCE		8
SCF_PRINT_FRGM		TRUE
SOLVENT_METHOD		SMD
!required keywords
JOBTYPE		SP
SYM_IGNORE		TRUE
SUBSYSTEM		TRUE
GEN_SCFMAN		TRUE
CHILD_INSTRUCTION		2
SYM_IGNORE		TRUE
SCFMI		0
RI_K 0		
PARI_K 0		
MIN_PARI_K 0		
IARI_K 0		
OCC_RI_K 0		
PURECART		1111
MEM_STATIC		2000
MEM_TOTAL		96000
GUI		0
CHILD_MP		1
CHILD_MP_ORDERS		232
FRZ_RELAX		0
FRZ_RELAX_METHOD		0
EDA_CLS_ELEC		1
EDA_CLS_DISP		0
FRZ_ORTHO_DECOMP		1
EDA2		FALSE
FRGM_METHOD		FALSE
CIS_N_ROOTS  0
LOCAL_CIS    0
CIS_RLX_DNS  1
$end
$smx
SOLVENT			WATER
$end
--------------------------------------------------------------
 ----------------------------------------------------------------
             Standard Nuclear Orientation (Angstroms)
    I     Atom           X                Y                Z
 ----------------------------------------------------------------
    1      C      -2.0910967425    -0.4390704780     0.6898661267
    2      C      -3.1530967425    -0.9620704780     1.6568661267
    3      C      -0.6960967425    -0.6540704780     1.1938661267
    4      C      -0.2520967425     0.0449295220     2.3078661267
    5      C       0.1479032575    -1.5780704780     0.5928661267
    6      C       1.0239032575    -0.1650704780     2.8108661267
    7      C       1.4279032575    -1.7900704780     1.0918661267
    8      C       1.8679032575    -1.0860704780     2.2078661267
    9      H      -2.2150967425    -0.9270704780    -0.2761338733
   10      H      -2.2330967425     0.6279295220     0.5358661267
   11      H      -2.9450967425    -0.5110704780     2.6248661267
   12      H      -0.8980967425     0.7659295220     2.7888661267
   13      H      -0.1840967425    -2.1280704780    -0.2741338733
   14      H       1.3589032575     0.3809295220     3.6808661267
   15      H       2.0389032575    -2.4990704780     0.5828661267
   16      H       2.8629032575    -1.2430704780     2.5948661267
   17      H      -3.0663837425    -2.0546544780     1.7503651267
   18      H      -4.1639342425    -0.6280234780     1.3800631267
 ----------------------------------------------------------------
 Nuclear Repulsion Energy =         342.31218703 hartrees
 There are       29 alpha and       29 beta electrons
 Requested basis set is def2-TZVPD
 There are 154 shells and 386 basis functions

 Total QAlloc Memory Limit  96000 MB
 Mega-Array Size      1956 MB
 MEM_STATIC part      2000 MB
 
 Citation of the SMD model:
 Marenich, A.V.; Cramer, C.J.; Truhlar, D.G.
 J. Phys. Chem. B 2009, 113, 6378-6396.
 iSolventCode=           1
 Solvent: water                                                           
 
 vradii
            1           2           3           4           5           6
    1   1.8500000   1.8500000   1.8500000   1.8500000   1.8500000   1.8500000
            7           8           9          10          11          12
    1   1.8500000   1.8500000   1.2000000   1.2000000   1.2000000   1.2000000
           13          14          15          16          17          18
    1   1.2000000   1.2000000   1.2000000   1.2000000   1.2000000   1.2000000
 Changing PCM_VDW_RADII to SMD_RADIUS
 Discretize the solute cavity surface with Lebedev spheres
	Using 110 Lebedev grid points for each H atom
	Using 194 Lebedev grid points for other atoms
	Atomic van der Waals radii will be scaled by 1.20
 Remove points where switching function is < 1.0e-08
 Keep 1259 surface tesserae and discard 1393 interior tesserae
 Molecular Surface Area = 151.253 Angst**2
 A cutoff of  1.0D-14 yielded  11368 shell pairs
 There are     72832 function pairs (     92305 Cartesian)
 Smallest overlap matrix eigenvalue = 5.02E-07
 Linear dependence detected in AO basis
 Tighter screening thresholds may be required for diffuse basis sets
 Use S2THRESH > 14 and THRESH = 14 in case of SCF convergence issues
 Number of orthogonalized atomic orbitals = 385
 Maximum deviation from orthogonality = 3.059E-10

 Scale SEOQF with 1.000000e-01/1.000000e-01/1.000000e-01

 Standard Electronic Orientation quadrupole field applied
 Nucleus-field energy     =    -0.0000000082 hartrees
 Guess from superposition of atomic densities
 Warning:  Energy on first SCF cycle will be non-variational
 SAD guess density has 57.901037 electrons

 -----------------------------------------------------------------------
  General SCF calculation program by
  Eric Jon Sundstrom, Paul Horn, Yuezhi Mao, Dmitri Zuev, Alec White,
  David Stuck, Shaama M.S., Shane Yost, Joonho Lee, David Small,
  Daniel Levine, Susi Lehtola, Hugh Burton, Evgeny Epifanovsky
 -----------------------------------------------------------------------
 Exchange:     0.1670 Hartree-Fock + 1.0000 wB97X-V + LR-HF
 Correlation:  1.0000 wB97X-V
 Using Euler-Maclaurin-Lebedev (99,590) quadrature formula
 Nonlocal Correlation:  VV10 with C = 0.0100 and b = 6.00 and scale = 1.00000
 Grid used for NLC:  SG-1 standard quadrature
Energy prior to optimization (guess energy) = -310.826335619351
Begin Timing: Total SCF Calculation
begin iterations for algorithm: DIIS         
the SCF tolerance is set to 1.00e-08
    1    -310.8263356194      1.82e-03     00000 
    2    -310.8729579665      1.19e-03     00000 
    3    -310.9006770447      1.38e-04     00000 
    4    -310.9014131894      4.28e-05     00000 
    5    -310.9014640258      2.35e-05     00000 
    6    -310.9014755227      5.55e-06     00000 
    7    -310.9014764809      1.89e-06     00000 
    8    -310.9014765722      4.21e-07     00000 
    9    -310.9014765804      1.09e-07     00000 
   10    -310.9014765813      4.95e-08     00000 
   11    -310.9014765814      2.39e-08     00000 
   12    -310.9014765815      6.49e-09     00000 Convergence criterion met
Timing for Total SCF: 2381.00s (wall), 4684.12s (cpu)
(3)  G-ENP(liq) elect-nuc-pol free energy of system     -310.901476581 a.u.
(4)  G-CDS(liq) cavity-dispersion-solvent structure 
     free energy                                                3.4695 kcal/mol
(6)  G-S(liq) free energy of system                     -310.895947644 a.u.
E_pcm = -0.0077264001
E_cds = 0.0055289377
Multipole orders to be included
        2
        3
computing dipole RHS
computing quadrupole RHS
total number of RHS in solve_reponses: 8
RHS batch sizes
        8
Beginning Block Conjugate Gradient Iterations. Batch Number: 0
computing hessian-vector products by finite difference
              1      5.80e-01     00000 Conjugate Gradient Iteration
computing hessian-vector products by finite difference
              2      1.73e-01     00000 Conjugate Gradient Iteration
computing hessian-vector products by finite difference
              3      4.48e-02     00000 Conjugate Gradient Iteration
computing hessian-vector products by finite difference
              4      1.14e-02     00000 Conjugate Gradient Iteration
computing hessian-vector products by finite difference
              5      2.23e-03     00000 Conjugate Gradient Iteration
computing hessian-vector products by finite difference
              6      5.99e-04     00000 Conjugate Gradient Iteration
computing hessian-vector products by finite difference
              7      1.40e-04     00000 Conjugate Gradient Iteration
computing hessian-vector products by finite difference
              8      2.57e-05     00000 Conjugate Gradient Iteration
computing hessian-vector products by finite difference
              9      4.58e-06     00000 Conjugate Gradient Iteration
computing hessian-vector products by finite difference
             10      7.56e-07     00000 Conjugate Gradient Iteration
computing hessian-vector products by finite difference
             11      1.44e-07     00000 Conjugate Gradient Iteration
computing hessian-vector products by finite difference
             12      1.88e-08     00000 Conjugate Gradient Iteration
computing hessian-vector products by finite difference
             13      2.53e-09     00000 CG Converged
batch 0 complete
Done Calculating Responses
TESTING ORTHOGONALIZATION OF MULTIPOLE BASIS
Multipole virts passed orthogonality test
Virts Per Order
           87
          145
 
 --------------------------------------------------------------
 
                    Orbital Energies (a.u.)
 --------------------------------------------------------------
 
 Alpha MOs
 -- Occupied --
-10.2718 -10.2665 -10.2652 -10.2645 -10.2625 -10.2621 -10.2564 -10.2498
 -0.9962  -0.9186  -0.8757  -0.8479  -0.7526  -0.7249  -0.6935  -0.6251
 -0.5768  -0.5651  -0.5388  -0.5300  -0.5178  -0.4989  -0.4752  -0.4561
 -0.4497  -0.4269  -0.4234  -0.3464  -0.3346
 -- Virtual --
  0.0651   0.0697   0.0729   0.0867   0.0883   0.0970   0.1097   0.1147
  0.1188   0.1378   0.1641   0.1672   0.1711   0.1813   0.1918   0.1969
  0.2004   0.2066   0.2151   0.2209   0.2351   0.2384   0.2502   0.2566
  0.2653   0.2711   0.2756   0.2783   0.2823   0.2887   0.2946   0.3010
  0.3035   0.3070   0.3088   0.3148   0.3241   0.3320   0.3387   0.3401
  0.3523   0.3589   0.3624   0.3636   0.3692   0.3756   0.3769   0.3814
  0.3875   0.3898   0.3952   0.3984   0.4101   0.4104   0.4212   0.4233
  0.4331   0.4372   0.4417   0.4443   0.4503   0.4586   0.4591   0.4700
  0.4733   0.4761   0.4822   0.4838   0.4970   0.5012   0.5044   0.5131
  0.5162   0.5243   0.5297   0.5342   0.5407   0.5451   0.5493   0.5590
  0.5623   0.5678   0.5735   0.5813   0.5909   0.5945   0.6029   0.6121
  0.6214   0.6281   0.6390   0.6489   0.6569   0.6699   0.6792   0.6845
  0.6913   0.7008   0.7038   0.7092   0.7242   0.7305   0.7313   0.7372
  0.7428   0.7565   0.7584   0.7619   0.7705   0.7786   0.7810   0.7851
  0.7956   0.8024   0.8029   0.8061   0.8132   0.8211   0.8259   0.8302
  0.8386   0.8449   0.8502   0.8512   0.8585   0.8635   0.8700   0.8832
  0.8882   0.8937   0.9194   0.9265   0.9318   0.9483   0.9605   0.9810
  1.0100   1.0237   1.0321   1.0529   1.0574   1.0726   1.0799   1.0967
  1.1045   1.1112   1.1178   1.1212   1.1567   1.1698   1.2046   1.2179
  1.2345   1.2901   1.3122   1.3271   1.3500   1.3885   1.3988   1.4064
  1.4151   1.4256   1.4544   1.4625   1.4883   1.5002   1.5277   1.5426
  1.5587   1.5835   1.6320   1.6357   1.6438   1.6619   1.6967   1.7470
  1.7818   1.7869   1.8023   1.8186   1.8289   1.8487   1.8537   1.8929
  1.9017   1.9118   1.9297   1.9324   1.9448   1.9636   1.9817   1.9934
  2.0011   2.0096   2.0290   2.0365   2.0469   2.0528   2.0693   2.0809
  2.0884   2.1181   2.1501   2.1554   2.1856   2.2049   2.2182   2.2519
  2.2608   2.2871   2.2952   2.3344   2.3498   2.3868   2.4090   2.4239
  2.4331   2.4770   2.5122   2.5415   2.5565   2.5628   2.5957   2.6003
  2.6151   2.6464   2.6637   2.6824   2.6892   2.7140   2.7367   2.7506
  2.7703   2.7873   2.7969   2.8153   2.8298   2.8469   2.8516   2.8680
  2.9052   2.9115   2.9288   2.9338   2.9443   2.9495   2.9773   2.9926
  3.0047   3.0193   3.0314   3.0453   3.0519   3.0755   3.0893   3.1075
  3.1233   3.1719   3.1790   3.2031   3.2300   3.2360   3.2591   3.2747
  3.3033   3.3152   3.3525   3.3614   3.3787   3.3874   3.4048   3.4247
  3.4322   3.4411   3.4671   3.4897   3.4919   3.4955   3.5027   3.5129
  3.5193   3.5313   3.5471   3.5551   3.5732   3.5844   3.5932   3.6073
  3.6299   3.6448   3.6462   3.6802   3.6979   3.7085   3.7304   3.7414
  3.7635   3.7928   3.7998   3.8309   3.8799   3.9021   3.9355   3.9771
  3.9826   4.0094   4.0618   4.0872   4.1270   4.1480   4.1998   4.2125
  4.2508   4.2908   4.3046   4.3385   4.3426   4.3614   4.3650   4.3904
  4.4085   4.4331   4.4414   4.4507   4.4937   4.5211   4.5817   4.5945
  4.6431   4.6943   4.7668   4.8125   4.8458   4.8857   4.9024   4.9303
  4.9765   5.0371   5.0580   5.1389   5.1907   5.3174   5.3999   5.4172
  5.5292   5.5567   5.7078   5.8822  22.6462  22.6722  22.8146  22.9232
 22.9573  23.0597  23.1190  23.4762
 --------------------------------------------------------------
 
          Ground-State Mulliken Net Atomic Charges

     Atom                 Charge (a.u.)
  ----------------------------------------
      1 C                    -0.442226
      2 C                    -0.920210
      3 C                     0.783227
      4 C                    -0.283087
      5 C                    -0.515117
      6 C                    -0.668865
      7 C                    -0.607577
      8 C                    -0.597392
      9 H                     0.268222
     10 H                     0.261416
     11 H                     0.256045
     12 H                     0.396932
     13 H                     0.359891
     14 H                     0.384626
     15 H                     0.394864
     16 H                     0.407463
     17 H                     0.275705
     18 H                     0.246085
  ----------------------------------------
  Sum of atomic charges =     0.000000

 -----------------------------------------------------------------
                    Cartesian Multipole Moments
 -----------------------------------------------------------------
    Charge (ESU x 10^10)
                -0.0000
    Dipole Moment (Debye)
         X      -0.5457      Y       0.1714      Z      -0.1529
       Tot       0.5921
    Quadrupole Moments (Debye-Ang)
        XX     -45.4187     XY      -2.2501     YY     -48.9167
        XZ       1.2742     YZ       4.5090     ZZ     -48.1017
    Octopole Moments (Debye-Ang^2)
       XXX      52.4373    XXY      37.1828    XYY      18.7132
       YYY     121.8399    XXZ     -69.7817    XYZ      -3.4405
       YYZ     -84.5832    XZZ      23.0425    YZZ      54.2502
       ZZZ    -225.0393
    Hexadecapole Moments (Debye-Ang^3)
      XXXX    -967.1984   XXXY     -26.4399   XXYY    -224.9211
      XYYY      -4.9233   YYYY    -406.6075   XXXZ      37.3413
      XXYZ      47.4260   XYYZ       2.7099   YYYZ     162.7695
      XXZZ    -314.4593   XYZZ      -4.0240   YYZZ    -250.2300
      XZZZ      40.1851   YZZZ     191.7289   ZZZZ    -972.5816
 -----------------------------------------------------------------
Archival summary:
1\1\nid00529\SP\ProcedureUnspecified\BasisUnspecified\810\meili\SunSep2620:14:132021SunSep2620:14:132021\0\\#,ProcedureUnspecified,BasisUnspecified,\\0,1\C\C,1,1.38807\H,2,1.08098,1,120.121\C,2,1.38755,1,120.589,3,-179.566,0\H,4,1.08039,2,120.038,1,-179.75,0\C,4,1.38715,2,120.161,1,-0.438902,0\H,6,1.07909,4,120.114,2,179.51,0\C,1,1.38828,2,119.218,3,-179.84,0\H,8,1.07908,1,120.001,2,-179.962,0\C,8,1.39009,1,120.391,2,-0.705211,0\H,10,1.0654,8,117.262,1,-179.038,0\C,1,1.49875,2,119.694,3,-2.09819,0\H,12,1.08737,1,108.056,2,53.4156,0\H,12,1.08935,1,109.87,2,170.31,0\C,12,1.52855,1,112.635,2,-67.732,0\H,15,1.08797,12,106.75,1,53.2673,0\H,15,1.1,12,112.047,1,168.751,0\H,15,1.1,12,109.807,1,-64.4264,0\\\@

 Total job time:  47521.70s(wall), 94226.70s(cpu) 
 Sun Sep 26 20:14:16 2021

        *************************************************************
        *                                                           *
        *  Thank you very much for using Q-Chem.  Have a nice day.  *
        *                                                           *
        *************************************************************


Done Job For Fragment 0
calling putenv with: QCSCRATCH=/global/cscratch1/sd/meili 
calling putenv with: QCLOCALSCR=/tmp 
calling putenv with: QCTHREADS=32 
Creating input file /tmp/qchem47729/Frg2.input
using default PutDataFrgm: nothing
calling putenv with: QCSCRATCH=/tmp/qchem47729/ 
calling putenv with: QCLOCALSCR=/tmp/qchem47729/ 
Spawning Job For Fragment 1
                  Welcome to Q-Chem
     A Quantum Leap Into The Future Of Chemistry


 Q-Chem 5.2, Q-Chem, Inc., Pleasanton, CA (2019)

 License issued to: National Energy Research Scientific Computing Center

 Yihan Shao,  Zhengting Gan,  E. Epifanovsky,  A. T. B. Gilbert,  M. Wormit,  
 J. Kussmann,  A. W. Lange,  A. Behn,  Jia Deng,  Xintian Feng,  D. Ghosh,  
 M. Goldey,  P. R. Horn,  L. D. Jacobson,  I. Kaliman,  T. Kus,  A. Landau,  
 Jie Liu,  E. I. Proynov,  R. M. Richard,  R. P. Steele,  E. J. Sundstrom,  
 H. L. Woodcock III,  P. M. Zimmerman,  D. Zuev,  B. Albrecht,  E. Alguire,  
 S. A. Baeppler,  D. Barton,  Z. Benda,  Y. A. Bernard,  E. J. Berquist,  
 K. B. Bravaya,  H. Burton,  D. Casanova,  Chun-Min Chang,  Yunqing Chen,  
 A. Chien,  K. D. Closser,  M. P. Coons,  S. Coriani,  S. Dasgupta,  
 A. L. Dempwolff,  M. Diedenhofen,  Hainam Do,  R. G. Edgar,  Po-Tung Fang,  
 S. Faraji,  S. Fatehi,  Qingguo Feng,  K. D. Fenk,  J. Fosso-Tande,  
 J. Gayvert,  Qinghui Ge,  A. Ghysels,  G. Gidofalvi,  J. Gomes,  
 J. Gonthier,  A. Gunina,  D. Hait,  M. W. D. Hanson-Heine,  
 P. H. P. Harbach,  A. W. Hauser,  M. F. Herbst,  J. E. Herr,  
 E. G. Hohenstein,  Z. C. Holden,  Kerwin Hui,  B. C. Huynh,  T.-C. Jagau,  
 Hyunjun Ji,  B. Kaduk,  K. Khistyaev,  Jaehoon Kim,  P. Klunzinger,  K. Koh,  
 D. Kosenkov,  L. Koulias,  T. Kowalczyk,  C. M. Krauter,  A. Kunitsa,  
 Ka Un Lao,  A. Laurent,  K. V. Lawler,  Joonho Lee,  D. Lefrancois,  
 S. Lehtola,  D. S. Levine,  Yi-Pei Li,  You-Sheng Lin,  Fenglai Liu,  
 E. Livshits,  A. Luenser,  P. Manohar,  E. Mansoor,  S. F. Manzer,  
 Shan-Ping Mao,  Yuezhi Mao,  N. Mardirossian,  A. V. Marenich,  
 T. Markovich,  L. A. Martinez-Martinez,  S. A. Maurer,  N. J. Mayhall,  
 S. C. McKenzie,  J.-M. Mewes,  P. Morgante,  A. F. Morrison,  
 J. W. Mullinax,  K. Nanda,  T. S. Nguyen-Beck,  R. Olivares-Amaya,  
 J. A. Parkhill,  Zheng Pei,  T. M. Perrine,  F. Plasser,  P. Pokhilko,  
 S. Prager,  A. Prociuk,  E. Ramos,  D. R. Rehn,  F. Rob,  M. Scheurer,  
 M. Schneider,  N. Sergueev,  S. M. Sharada,  S. Sharma,  D. W. Small,  
 T. Stauch,  T. Stein,  Yu-Chuan Su,  A. J. W. Thom,  A. Tkatchenko,  
 T. Tsuchimochi,  N. M. Tubman,  L. Vogt,  M. L. Vidal,  O. Vydrov,  
 M. A. Watson,  J. Wenzel,  M. de Wergifosse,  T. A. Wesolowski,  A. White,  
 J. Witte,  A. Yamada,  Jun Yang,  K. Yao,  S. Yeganeh,  S. R. Yost,  
 Zhi-Qiang You,  A. Zech,  Igor Ying Zhang,  Xing Zhang,  Yan Zhao,  
 Ying Zhu,  B. R. Brooks,  G. K. L. Chan,  C. J. Cramer,  M. S. Gordon,  
 W. J. Hehre,  A. Klamt,  M. W. Schmidt,  C. D. Sherrill,  D. G. Truhlar,  
 A. Aspuru-Guzik,  R. Baer,  A. T. Bell,  N. A. Besley,  Jeng-Da Chai,  
 A. E. DePrince, III,  R. A. DiStasio Jr.,  A. Dreuw,  B. D. Dunietz,  
 T. R. Furlani,  Chao-Ping Hsu,  Yousung Jung,  Jing Kong,  D. S. Lambrecht,  
 WanZhen Liang,  C. Ochsenfeld,  V. A. Rassolov,  L. V. Slipchenko,  
 J. E. Subotnik,  T. Van Voorhis,  J. M. Herbert,  A. I. Krylov,  
 P. M. W. Gill,  M. Head-Gordon

 Contributors to earlier versions of Q-Chem not listed above: 
 R. D. Adamson,  B. Austin,  J. Baker,  G. J. O. Beran,  K. Brandhorst,  
 S. T. Brown,  E. F. C. Byrd,  A. K. Chakraborty,  C.-L. Cheng,  
 Siu Hung Chien,  D. M. Chipman,  D. L. Crittenden,  H. Dachsel,  
 R. J. Doerksen,  A. D. Dutoi,  L. Fusti-Molnar,  W. A. Goddard III,  
 A. Golubeva-Zadorozhnaya,  S. R. Gwaltney,  G. Hawkins,  A. Heyden,  
 S. Hirata,  G. Kedziora,  F. J. Keil,  C. Kelley,  Jihan Kim,  R. A. King,  
 R. Z. Khaliullin,  P. P. Korambath,  W. Kurlancheek,  A. M. Lee,  M. S. Lee,  
 S. V. Levchenko,  Ching Yeh Lin,  D. Liotard,  R. C. Lochan,  I. Lotan,  
 P. E. Maslen,  N. Nair,  D. P. O'Neill,  D. Neuhauser,  E. Neuscamman,  
 C. M. Oana,  R. Olson,  B. Peters,  R. Peverati,  P. A. Pieniazek,  
 Y. M. Rhee,  J. Ritchie,  M. A. Rohrdanz,  E. Rosta,  N. J. Russ,  
 H. F. Schaefer III,  N. E. Schultz,  N. Shenvi,  A. C. Simmonett,  A. Sodt,  
 D. Stuck,  K. S. Thanthiriwatte,  V. Vanovschi,  Tao Wang,  A. Warshel,  
 C. F. Williams,  Q. Wu,  X. Xu,  W. Zhang

 Please cite Q-Chem as follows:
 Y. Shao et al., Mol. Phys. 113, 184-215 (2015)
 DOI: 10.1080/00268976.2014.952696

 Q-Chem 5.2.0 for Intel X86 EM64T Linux

 Parts of Q-Chem use Armadillo 8.300.2 (Tropical Shenanigans).
 http://arma.sourceforge.net/

 Q-Chem begins on Sun Sep 26 20:14:20 2021  

Host: cori01
0

     Scratch files written to /tmp/qchem47729//Frg2//
 May1019 |scratch|qcdevops|jenkins|workspace|build_RNUM -1
Processing $rem in /global/common/cori/software/qchem/5.2/config/preferences:
	 MEM_TOTAL  96000 
NAlpha2: 44
NElect   44
Mult     1
Symmetry turned off for PCM/SM12/SMD calculation

Checking the input file for inconsistencies... 	...done.

--------------------------------------------------------------
User input:
--------------------------------------------------------------
$molecule
0 1
 6	1.6689032575	1.7669295220	-0.3811338733
 6	-0.5230967425	1.6909295220	-1.7651338733
 6	0.7539032575	1.3249295220	-1.4831338733
 6	0.1089032575	0.2109295220	-3.2631338733
 7	-0.8980967425	0.9839295220	-2.8821338733
 7	1.1329032575	0.3979295220	-2.4351338733
 1	-1.1230967425	2.3969295220	-1.2121338733
 1	-1.8280967425	0.9789295220	-3.2991338733
 1	1.9489032575	0.8839295220	0.1888661267
 1	1.1299032575	2.4409295220	0.2868661267
 1	0.0929032575	-0.4650704780	-4.1111338733
 1	2.5824682575	2.2582955220	-0.7471364533
$end
$rem
EDA2		1
METHOD		WB97X-V
BASIS		DEF2-TZVPD
XC_GRID		000099000590
NL_GRID		1
UNRESTRICTED		FALSE
MAX_SCF_CYCLES		200
SYMMETRY		FALSE
SYM_IGNORE		TRUE
BASIS_LIN_DEP_THRESH		6
THRESH		14
SCF_CONVERGENCE		8
SCF_PRINT_FRGM		TRUE
SOLVENT_METHOD		SMD
!required keywords
JOBTYPE		SP
SYM_IGNORE		TRUE
SUBSYSTEM		TRUE
GEN_SCFMAN		TRUE
CHILD_INSTRUCTION		2
SYM_IGNORE		TRUE
SCFMI		0
RI_K 0		
PARI_K 0		
MIN_PARI_K 0		
IARI_K 0		
OCC_RI_K 0		
PURECART		1111
MEM_STATIC		2000
MEM_TOTAL		96000
GUI		0
CHILD_MP		1
CHILD_MP_ORDERS		232
FRZ_RELAX		0
FRZ_RELAX_METHOD		0
EDA_CLS_ELEC		1
EDA_CLS_DISP		0
FRZ_ORTHO_DECOMP		1
EDA2		FALSE
FRGM_METHOD		FALSE
CIS_N_ROOTS  0
LOCAL_CIS    0
CIS_RLX_DNS  1
$end
$smx
SOLVENT			WATER
$end
--------------------------------------------------------------
 ----------------------------------------------------------------
             Standard Nuclear Orientation (Angstroms)
    I     Atom           X                Y                Z
 ----------------------------------------------------------------
    1      C       1.6689032575     1.7669295220    -0.3811338733
    2      C      -0.5230967425     1.6909295220    -1.7651338733
    3      C       0.7539032575     1.3249295220    -1.4831338733
    4      C       0.1089032575     0.2109295220    -3.2631338733
    5      N      -0.8980967425     0.9839295220    -2.8821338733
    6      N       1.1329032575     0.3979295220    -2.4351338733
    7      H      -1.1230967425     2.3969295220    -1.2121338733
    8      H      -1.8280967425     0.9789295220    -3.2991338733
    9      H       1.9489032575     0.8839295220     0.1888661267
   10      H       1.1299032575     2.4409295220     0.2868661267
   11      H       0.0929032575    -0.4650704780    -4.1111338733
   12      H       2.5824682575     2.2582955220    -0.7471364533
 ----------------------------------------------------------------
 Nuclear Repulsion Energy =         224.76198932 hartrees
 There are       22 alpha and       22 beta electrons
 Requested basis set is def2-TZVPD
 There are 108 shells and 276 basis functions

 Total QAlloc Memory Limit  96000 MB
 Mega-Array Size      1956 MB
 MEM_STATIC part      2000 MB
 
 Citation of the SMD model:
 Marenich, A.V.; Cramer, C.J.; Truhlar, D.G.
 J. Phys. Chem. B 2009, 113, 6378-6396.
 iSolventCode=           1
 Solvent: water                                                           
 
 vradii
            1           2           3           4           5           6
    1   1.8500000   1.8500000   1.8500000   1.8500000   1.8900000   1.8900000
            7           8           9          10          11          12
    1   1.2000000   1.2000000   1.2000000   1.2000000   1.2000000   1.2000000
 Changing PCM_VDW_RADII to SMD_RADIUS
 Discretize the solute cavity surface with Lebedev spheres
	Using 110 Lebedev grid points for each H atom
	Using 194 Lebedev grid points for other atoms
	Atomic van der Waals radii will be scaled by 1.20
 Remove points where switching function is < 1.0e-08
 Keep 904 surface tesserae and discard 920 interior tesserae
 Molecular Surface Area = 116.207 Angst**2

                       Distance Matrix (Angstroms)
             C (  1)   C (  2)   C (  3)   C (  4)   N (  5)   N (  6)
   C (  2)  2.593472
   C (  3)  1.498997  1.358017
   C (  4)  3.627762  2.198597  2.196684
   N (  5)  3.668457  1.374104  2.191480  1.325420
   N (  6)  2.525940  2.205240  1.381765  1.330086  2.160594
   H (  7)  2.980390  1.079002  2.178475  3.240836  2.199112  3.252886
   H (  8)  4.622194  2.136147  3.175578  2.084008  1.019222  3.138722
   H (  9)  1.087653  3.252714  2.101925  3.969236  4.188848  2.790596
   H ( 10)  1.091339  2.739637  2.125966  4.314840  4.034624  3.403402
   H ( 11)  4.623689  3.245228  3.247677  1.084590  2.142924  2.152985
   H ( 12)  1.100000  3.317040  2.180943  4.079274  4.277447  2.900265
             H (  7)   H (  8)   H (  9)   H ( 10)   H ( 11)
   H (  8)  2.619794
   H (  9)  3.699886  5.142071
   H ( 10)  2.706464  4.873049  1.761991
   H ( 11)  4.251341  2.536675  4.873863  5.372393
   H ( 12)  3.737199  5.253813  1.779435  1.792334  4.993109
 
 A cutoff of  1.0D-14 yielded   5737 shell pairs
 There are     38169 function pairs (     48948 Cartesian)
 Smallest overlap matrix eigenvalue = 1.74E-06

 Scale SEOQF with 1.000000e-01/1.000000e-01/1.000000e-01

 Standard Electronic Orientation quadrupole field applied
 Nucleus-field energy     =    -0.0000000171 hartrees
 Guess from superposition of atomic densities
 Warning:  Energy on first SCF cycle will be non-variational
 SAD guess density has 43.559167 electrons

 -----------------------------------------------------------------------
  General SCF calculation program by
  Eric Jon Sundstrom, Paul Horn, Yuezhi Mao, Dmitri Zuev, Alec White,
  David Stuck, Shaama M.S., Shane Yost, Joonho Lee, David Small,
  Daniel Levine, Susi Lehtola, Hugh Burton, Evgeny Epifanovsky
 -----------------------------------------------------------------------
 Exchange:     0.1670 Hartree-Fock + 1.0000 wB97X-V + LR-HF
 Correlation:  1.0000 wB97X-V
 Using Euler-Maclaurin-Lebedev (99,590) quadrature formula
 Nonlocal Correlation:  VV10 with C = 0.0100 and b = 6.00 and scale = 1.00000
 Grid used for NLC:  SG-1 standard quadrature
Energy prior to optimization (guess energy) = -265.143203015328
Begin Timing: Total SCF Calculation
begin iterations for algorithm: DIIS         
the SCF tolerance is set to 1.00e-08
    1    -265.1432030153      7.22e-03     00000 
    2    -265.1012368763      7.39e-03     00000 
    3    -265.5677380912      7.36e-04     00000 
    4    -265.5725281734      3.85e-04     00000 
    5    -265.5739712705      1.12e-04     00000 
    6    -265.5741337709      4.20e-05     00000 
    7    -265.5741587225      1.18e-05     00000 
    8    -265.5741614007      3.39e-06     00000 
    9    -265.5741616955      1.67e-06     00000 
   10    -265.5741617463      4.06e-07     00000 
   11    -265.5741617514      7.87e-08     00000 
   12    -265.5741617516      4.05e-08     00000 
   13    -265.5741617517      1.08e-08     00000 
   14    -265.5741617517      4.19e-09     00000 Convergence criterion met
Timing for Total SCF: 970.00s (wall), 1816.96s (cpu)
(3)  G-ENP(liq) elect-nuc-pol free energy of system     -265.574161752 a.u.
(4)  G-CDS(liq) cavity-dispersion-solvent structure 
     free energy                                                2.0717 kcal/mol
(6)  G-S(liq) free energy of system                     -265.570860241 a.u.
E_pcm = -0.0230125191
E_cds = 0.0033015107
Multipole orders to be included
        2
        3
computing dipole RHS
computing quadrupole RHS
total number of RHS in solve_reponses: 8
RHS batch sizes
        8
Beginning Block Conjugate Gradient Iterations. Batch Number: 0
computing hessian-vector products by finite difference
              1      6.55e-01     00000 Conjugate Gradient Iteration
computing hessian-vector products by finite difference
              2      2.07e-01     00000 Conjugate Gradient Iteration
computing hessian-vector products by finite difference
              3      4.77e-02     00000 Conjugate Gradient Iteration
computing hessian-vector products by finite difference
              4      1.36e-02     00000 Conjugate Gradient Iteration
computing hessian-vector products by finite difference
              5      2.96e-03     00000 Conjugate Gradient Iteration
computing hessian-vector products by finite difference
              6      5.75e-04     00000 Conjugate Gradient Iteration
computing hessian-vector products by finite difference
              7      1.01e-04     00000 Conjugate Gradient Iteration
computing hessian-vector products by finite difference
              8      1.53e-05     00000 Conjugate Gradient Iteration
computing hessian-vector products by finite difference
              9      2.30e-06     00000 Conjugate Gradient Iteration
computing hessian-vector products by finite difference
             10      4.39e-07     00000 Conjugate Gradient Iteration
computing hessian-vector products by finite difference
             11      7.38e-08     00000 Conjugate Gradient Iteration
computing hessian-vector products by finite difference
             12      1.37e-08     00000 Conjugate Gradient Iteration
computing hessian-vector products by finite difference
             13      3.01e-09     00000 CG Converged
batch 0 complete
Done Calculating Responses
TESTING ORTHOGONALIZATION OF MULTIPOLE BASIS
Multipole virts passed orthogonality test
Virts Per Order
           66
          110
 
 --------------------------------------------------------------
 
                    Orbital Energies (a.u.)
 --------------------------------------------------------------
 
 Alpha MOs
 -- Occupied --
-14.4588 -14.3857 -10.3172 -10.2829 -10.2822 -10.2570  -1.1524  -0.9929
 -0.8953  -0.8224  -0.7215  -0.6824  -0.6623  -0.5629  -0.5516  -0.5367
 -0.5086  -0.4942  -0.4766  -0.3773  -0.3755  -0.3216
 -- Virtual --
  0.0686   0.0878   0.0980   0.1088   0.1186   0.1311   0.1352   0.1470
  0.1723   0.1731   0.1805   0.1873   0.2031   0.2051   0.2275   0.2403
  0.2484   0.2518   0.2637   0.2677   0.2721   0.2916   0.3015   0.3083
  0.3146   0.3187   0.3224   0.3268   0.3310   0.3381   0.3509   0.3617
  0.3627   0.3671   0.3798   0.3833   0.3977   0.4029   0.4093   0.4165
  0.4256   0.4261   0.4304   0.4493   0.4582   0.4702   0.4738   0.4806
  0.4924   0.4990   0.5019   0.5183   0.5368   0.5477   0.5532   0.5627
  0.5652   0.5790   0.5949   0.5951   0.6096   0.6144   0.6318   0.6385
  0.6437   0.6517   0.6752   0.6874   0.6904   0.7085   0.7093   0.7153
  0.7331   0.7419   0.7596   0.7721   0.7821   0.7871   0.7932   0.8064
  0.8112   0.8187   0.8279   0.8334   0.8640   0.8692   0.8823   0.9028
  0.9173   0.9416   0.9813   0.9937   0.9970   1.0079   1.0201   1.0288
  1.0695   1.0914   1.1106   1.1244   1.1309   1.1525   1.1877   1.2123
  1.2301   1.2495   1.2808   1.3336   1.3449   1.3518   1.3838   1.4271
  1.4423   1.4636   1.5479   1.5573   1.6125   1.6442   1.6517   1.6771
  1.7012   1.7373   1.7949   1.8285   1.8337   1.8585   1.8655   1.8965
  1.9189   1.9507   1.9561   1.9647   1.9754   1.9858   2.0000   2.0139
  2.0236   2.0696   2.0938   2.1362   2.1797   2.2424   2.2722   2.2793
  2.3107   2.3620   2.3698   2.3958   2.4452   2.4629   2.4663   2.4970
  2.5595   2.6018   2.6152   2.6165   2.6333   2.6555   2.6903   2.7268
  2.7543   2.7749   2.7878   2.8474   2.8678   2.8793   2.9078   2.9933
  3.0214   3.0495   3.0694   3.0713   3.0918   3.1284   3.1400   3.1675
  3.1868   3.1977   3.2146   3.2213   3.2731   3.3000   3.3083   3.3334
  3.3531   3.3703   3.3899   3.4013   3.4247   3.4485   3.4739   3.5008
  3.5207   3.5483   3.5826   3.6027   3.6341   3.6566   3.7163   3.7430
  3.7510   3.7975   3.8200   3.8446   3.8851   3.9456   3.9603   4.0435
  4.0862   4.1032   4.1417   4.2336   4.2969   4.4315   4.4480   4.4965
  4.5419   4.5598   4.6200   4.6955   4.7521   4.7925   4.8706   4.8887
  4.9543   4.9723   5.0160   5.0349   5.0429   5.0758   5.1700   5.2000
  5.2272   5.3035   5.3817   5.4526   5.4974   5.5344   5.5872   5.6019
  5.6733   5.6949   5.7519   5.7951   5.8784   6.0377   6.2410   6.2786
 22.6375  22.8847  23.1290  23.3865  32.6569  32.7790
 --------------------------------------------------------------
 
          Ground-State Mulliken Net Atomic Charges

     Atom                 Charge (a.u.)
  ----------------------------------------
      1 C                    -0.801506
      2 C                    -0.580842
      3 C                     0.530206
      4 C                    -0.251988
      5 N                     0.070226
      6 N                    -0.543724
      7 H                     0.324661
      8 H                     0.213657
      9 H                     0.225628
     10 H                     0.235011
     11 H                     0.334867
     12 H                     0.243805
  ----------------------------------------
  Sum of atomic charges =     0.000000

 -----------------------------------------------------------------
                    Cartesian Multipole Moments
 -----------------------------------------------------------------
    Charge (ESU x 10^10)
                 0.0000
    Dipole Moment (Debye)
         X      -4.8181      Y       1.3048      Z      -0.7987
       Tot       5.0552
    Quadrupole Moments (Debye-Ang)
        XX     -35.6876     XY      -2.5732     YY     -33.7009
        XZ      15.1776     YZ       0.2347     ZZ     -27.5482
    Octopole Moments (Debye-Ang^2)
       XXX     -63.3541    XXY     -31.1463    XYY     -19.0970
       YYY    -114.3639    XXZ      69.1029    XYZ       8.7380
       YYZ      72.2111    XZZ     -60.8771    YZZ     -44.5840
       ZZZ     164.1970
    Hexadecapole Moments (Debye-Ang^3)
      XXXX    -287.9084   XXXY     -61.7086   XXYY    -101.4848
      XYYY     -63.9151   YYYY    -394.7686   XXXZ      77.4557
      XXYZ      38.0119   XYYZ      15.5363   YYYZ     178.6755
      XXZZ    -223.6486   XYZZ     -48.9356   YYZZ    -259.8797
      XZZZ     158.5275   YZZZ     195.4660   ZZZZ    -896.4843
 -----------------------------------------------------------------
Archival summary:
1\1\nid00529\SP\ProcedureUnspecified\BasisUnspecified\246\meili\MonSep2700:34:132021MonSep2700:34:132021\0\\#,ProcedureUnspecified,BasisUnspecified,\\0,1\N\C,1,1.33009\H,2,1.08459,1,125.853\N,2,1.32542,1,108.904,3,179.783,0\H,4,1.01922,2,124.944,1,-174.791,0\C,4,1.3741,2,109.05,1,-0.420023,0\H,6,1.079,4,126.978,2,-179.403,0\C,6,1.35802,4,106.664,2,0.310625,0\C,8,1.499,6,130.33,4,-179.833,0\H,9,1.08765,8,107.64,6,120.946,0\H,9,1.09134,8,109.306,6,3.97321,0\H,9,1.1,8,113.207,6,-118.699,0\\\@

 Total job time:  15595.11s(wall), 30705.80s(cpu) 
 Mon Sep 27 00:34:15 2021

        *************************************************************
        *                                                           *
        *  Thank you very much for using Q-Chem.  Have a nice day.  *
        *                                                           *
        *************************************************************


Done Job For Fragment 1
calling putenv with: QCSCRATCH=/global/cscratch1/sd/meili 
calling putenv with: QCLOCALSCR=/tmp 
calling putenv with: QCTHREADS=32 
Doing General SCFMI
 Exchange:     0.1670 Hartree-Fock + 1.0000 wB97X-V + LR-HF
 Correlation:  1.0000 wB97X-V
 Using Euler-Maclaurin-Lebedev (99,590) quadrature formula
 Nonlocal Correlation:  VV10 with C = 0.0100 and b = 6.00 and scale = 1.00000
 Grid used for NLC:  SG-1 standard quadrature
performing fock build before subrot guess so that all methods have access
Printing subrot_rss_gen Method Specification:
Occupied Subspace Method is 0
Virtual Subspace Method is 0
Energy of the unrelaxed supersystem initial determinant -576.448715576845
performing fock build before subrot guess so that all methods have access
Printing subrot_rss_gen Method Specification:
Occupied Subspace Method is 0
Virtual Subspace Method is 0
Energy of the unrelaxed supersystem initial determinant w/ solvent -576.480009281733
write pseudocanon occs and virts to disk
write pseudocanon orbital energies to disk
Tolerance of ortho_decomp_scf: 1.00e-06
GDM subspace size: 20
Beginning the Orthogonal Decomposition of the Initial Supersystem Wavefunction
    1    -576.4199646501      2.34e-02     ortho_decomp Preconditoned Steepest Descent
    2    -576.4222816279      5.62e-04     ortho_decomp BFGS Step
    3    -576.4222887517      4.59e-05     ortho_decomp BFGS Step
    4    -576.4222887679      1.89e-06     ortho_decomp BFGS Step
    5    -576.4222887679      5.73e-08     ortho_decomp 00000 Convergence criterion met
 Hartree-Fock
 Hartree-Fock
 Hartree-Fock
Doing General SCFMI
 Exchange:     0.1670 Hartree-Fock + 1.0000 wB97X-V + LR-HF
 Correlation:  1.0000 wB97X-V
 Using Euler-Maclaurin-Lebedev (99,590) quadrature formula
 Nonlocal Correlation:  VV10 with C = 0.0100 and b = 6.00 and scale = 1.00000
 Grid used for NLC:  SG-1 standard quadrature
performing fock build at end of subrot_r(subrot) constructor so that all methods have access
<S^2> of initial wavefunction before polarization iterations 0.0000000000
Beginning iterations for the determination of the polarized wavefunction
Energy prior to optimization (guess energy) = -576.480009281733
Begin Timing: Total SCF Calculation
begin iterations for algorithm: DIIS         
the SCF tolerance is set to 1.00e-08
    1    -576.4800092817      5.04e-05     00000 
    2    -576.4802646649      2.25e-05     00000 
    3    -576.4802976985      1.03e-05     00000 
    4    -576.4803069503      4.12e-06     00000 
    5    -576.4803082977      2.17e-06     00000 
    6    -576.4803087982      9.48e-07     00000 
    7    -576.4803088692      5.11e-07     00000 
    8    -576.4803088888      1.91e-07     00000 
    9    -576.4803088908      7.11e-08     00000 
   10    -576.4803088911      4.03e-08     00000 
   11    -576.4803088912      1.56e-08     00000 
   12    -576.4803088912      6.25e-09     00000 Convergence criterion met
write pseudocanon occs and virts to disk
write pseudocanon orbital energies to disk
Timing for Total SCF: 10738.00s (wall), 21402.29s (cpu)
<S^2> of polarized wavefunction after polarization iterations 0.0000000000
relaxing scfmi constraint to allow all rotations in the entire AO span
Doing General SCFMI
 Exchange:     0.1670 Hartree-Fock + 1.0000 wB97X-V + LR-HF
 Correlation:  1.0000 wB97X-V
 Using Euler-Maclaurin-Lebedev (99,590) quadrature formula
 Nonlocal Correlation:  VV10 with C = 0.0100 and b = 6.00 and scale = 1.00000
 Grid used for NLC:  SG-1 standard quadrature
performing fock build at end of subrot_r(subrot) constructor so that all methods have access
<S^2> of polarized wavefunction before ct-allowed iterations 0.0000000000
Beginning iterations for the determination of the CT-Allowed wavefunction
Energy prior to optimization (guess energy) = -576.480308891210
Begin Timing: Total SCF Calculation
begin iterations for algorithm: DIIS         
the SCF tolerance is set to 1.00e-08
    1    -576.4803088912      7.36e-05     00000 
    2    -576.4813797149      7.08e-06     00000 
    3    -576.4814119497      1.30e-06     00000 
    4    -576.4814132173      6.49e-07     00000 
    5    -576.4814133224      1.63e-07     00000 
    6    -576.4814133346      6.92e-08     00000 
    7    -576.4814133358      1.76e-08     00000 
    8    -576.4814133360      8.30e-09     00000 Convergence criterion met
write pseudocanon occs and virts to disk
write pseudocanon orbital energies to disk
Timing for Total SCF: 6788.00s (wall), 13523.65s (cpu)
<S^2> of ct_allowed wavefunction after ct-allowed iterations 0.0000000000

================================
        Results of EDA2         
================================
Basic EDA Quantities
--------------------
Fragment Energies (Ha):
1 -310.8959476438
2 -265.5708602410
--------------------
  E_prp (kJ/mol) = 0.0000
  E_sol (kJ/mol) = -5.1347
  E_frz (kJ/mol) = -10.0195
  E_pol (kJ/mol) = -0.7866
  E_vct (kJ/mol) = -2.8998
  E_int (kJ/mol) = -18.8405
--------------------


Initial Wavefunction Decomposition
--------------------
  --------------------
  Orthogonal Fragment Subspace Decomposition:
  --------------------
     E_elec   (ELEC)   (kJ/mol) = -25.7128
     E_pauli  (PAULI)  (kJ/mol) = 45.1202
     E_disp   (DISP)   (kJ/mol) = -29.4268
     --------------------
     Terms summing to E_pauli:
     --------------------
        E_kep_pauli       (kJ/mol) = 59.3650
        E_disp_free_pauli (kJ/mol) = -14.2448
  --------------------
  Classical Frozen Decomposition:
  --------------------
     E_cls_elec  (CLS ELEC)  (kJ/mol) = -5.4465
     E_cls_pauli (CLS PAULI) (kJ/mol) = -4.5730
    [E_mod_pauli (MOD PAULI) (kJ/mol) = 24.8539 (CLS PAULI - DISP from orthogonal decomposition) ]
  --------------------
--------------------

Simplified EDA Summary (kJ/mol)
--------------------
 PREPARATION     0.0000
 SOLVATION       -5.1347
 FROZEN          19.4074      (does not include dispersion)
[PAULI           45.1202]     (if this is negligible, then frozen describes electrostatics)
 DISPERSION      -29.4268
 POLARIZATION    -0.7866
 CHARGE TRANSFER -2.8998
 TOTAL           -18.8405     (PRP + SOL + FRZ + DISP + POL + CT)
--------------------
 
 --------------------------------------------------------------
 
                    Orbital Energies (a.u.)
 --------------------------------------------------------------
 
 Alpha MOs
 -- Occupied --
-14.4585 -14.3854 -10.3169 -10.2820 -10.2813 -10.2715 -10.2661 -10.2649
-10.2641 -10.2623 -10.2618 -10.2563 -10.2552 -10.2497  -1.1520  -0.9961
 -0.9922  -0.9184  -0.8945  -0.8754  -0.8477  -0.8215  -0.7525  -0.7247
 -0.7211  -0.6934  -0.6818  -0.6618  -0.6249  -0.5766  -0.5678  -0.5612
 -0.5512  -0.5393  -0.5354  -0.5297  -0.5175  -0.5132  -0.4977  -0.4910
 -0.4763  -0.4721  -0.4542  -0.4494  -0.4267  -0.4231  -0.3777  -0.3756
 -0.3452  -0.3359  -0.3184
 -- Virtual --
  0.0609   0.0679   0.0710   0.0773   0.0826   0.0842   0.0978   0.0998
  0.1022   0.1082   0.1143   0.1171   0.1267   0.1301   0.1324   0.1358
  0.1452   0.1529   0.1620   0.1651   0.1740   0.1757   0.1835   0.1896
  0.1936   0.1965   0.2034   0.2082   0.2164   0.2186   0.2272   0.2330
  0.2366   0.2370   0.2471   0.2501   0.2520   0.2548   0.2608   0.2647
  0.2682   0.2751   0.2791   0.2813   0.2836   0.2888   0.2898   0.2941
  0.2999   0.3026   0.3067   0.3083   0.3114   0.3155   0.3225   0.3231
  0.3240   0.3287   0.3325   0.3358   0.3386   0.3399   0.3466   0.3513
  0.3528   0.3562   0.3574   0.3582   0.3636   0.3683   0.3729   0.3763
  0.3806   0.3842   0.3869   0.3880   0.3918   0.3946   0.3979   0.4004
  0.4034   0.4085   0.4108   0.4121   0.4184   0.4201   0.4264   0.4275
  0.4305   0.4337   0.4362   0.4407   0.4476   0.4494   0.4527   0.4538
  0.4627   0.4653   0.4682   0.4725   0.4742   0.4796   0.4847   0.4871
  0.4913   0.4941   0.4987   0.5036   0.5065   0.5072   0.5092   0.5143
  0.5181   0.5219   0.5311   0.5372   0.5397   0.5412   0.5462   0.5508
  0.5539   0.5570   0.5622   0.5661   0.5682   0.5772   0.5824   0.5836
  0.5879   0.5938   0.5988   0.6047   0.6075   0.6122   0.6177   0.6207
  0.6228   0.6290   0.6319   0.6359   0.6399   0.6420   0.6490   0.6522
  0.6581   0.6647   0.6664   0.6720   0.6788   0.6807   0.6853   0.6896
  0.6926   0.6966   0.6991   0.7025   0.7051   0.7083   0.7132   0.7159
  0.7221   0.7272   0.7322   0.7377   0.7390   0.7442   0.7490   0.7506
  0.7561   0.7642   0.7655   0.7678   0.7705   0.7758   0.7800   0.7850
  0.7860   0.7891   0.7916   0.7987   0.8059   0.8109   0.8159   0.8197
  0.8239   0.8281   0.8299   0.8351   0.8381   0.8445   0.8463   0.8501
  0.8540   0.8554   0.8583   0.8633   0.8732   0.8741   0.8792   0.8830
  0.8866   0.8871   0.8935   0.9017   0.9039   0.9096   0.9122   0.9196
  0.9325   0.9448   0.9479   0.9536   0.9579   0.9611   0.9673   0.9796
  0.9867   0.9954   0.9979   1.0048   1.0082   1.0207   1.0310   1.0381
  1.0575   1.0639   1.0684   1.0732   1.0791   1.0874   1.0927   1.0974
  1.1105   1.1152   1.1206   1.1276   1.1327   1.1430   1.1465   1.1589
  1.1687   1.1758   1.1888   1.1935   1.2003   1.2098   1.2166   1.2347
  1.2483   1.2591   1.2633   1.2703   1.2734   1.2875   1.3074   1.3213
  1.3312   1.3451   1.3590   1.3693   1.3760   1.3878   1.4004   1.4030
  1.4162   1.4201   1.4316   1.4454   1.4550   1.4645   1.4734   1.4868
  1.4927   1.4969   1.5026   1.5243   1.5432   1.5494   1.5648   1.5742
  1.5833   1.5993   1.6067   1.6237   1.6283   1.6477   1.6563   1.6653
  1.6777   1.6948   1.7012   1.7219   1.7281   1.7352   1.7623   1.7729
  1.8040   1.8132   1.8389   1.8480   1.8530   1.8546   1.8747   1.8840
  1.9017   1.9161   1.9212   1.9311   1.9383   1.9465   1.9497   1.9554
  1.9670   1.9713   1.9795   1.9859   1.9887   2.0073   2.0085   2.0149
  2.0206   2.0216   2.0271   2.0357   2.0499   2.0543   2.0679   2.0715
  2.0786   2.0855   2.0921   2.1123   2.1185   2.1305   2.1347   2.1533
  2.1559   2.1665   2.1863   2.2005   2.2064   2.2154   2.2299   2.2436
  2.2630   2.2725   2.2850   2.3020   2.3112   2.3148   2.3336   2.3365
  2.3540   2.3624   2.3651   2.3749   2.3841   2.4031   2.4123   2.4416
  2.4510   2.4512   2.4621   2.4702   2.4863   2.5370   2.5490   2.5615
  2.5631   2.5749   2.5803   2.6002   2.6055   2.6186   2.6251   2.6444
  2.6499   2.6610   2.6776   2.6934   2.6966   2.7054   2.7158   2.7249
  2.7309   2.7532   2.7602   2.7652   2.7752   2.7780   2.7894   2.7980
  2.8151   2.8239   2.8328   2.8443   2.8454   2.8641   2.8712   2.8849
  2.8971   2.9102   2.9225   2.9360   2.9417   2.9463   2.9517   2.9625
  2.9811   2.9845   2.9936   3.0041   3.0145   3.0196   3.0252   3.0421
  3.0581   3.0652   3.0804   3.0851   3.0875   3.0998   3.1093   3.1108
  3.1186   3.1279   3.1358   3.1551   3.1615   3.1697   3.1881   3.1941
  3.2075   3.2229   3.2368   3.2449   3.2608   3.2659   3.2743   3.2884
  3.2939   3.3080   3.3212   3.3314   3.3344   3.3457   3.3635   3.3674
  3.3800   3.3942   3.3965   3.4062   3.4207   3.4306   3.4334   3.4485
  3.4537   3.4580   3.4696   3.4726   3.4790   3.4920   3.5016   3.5084
  3.5136   3.5184   3.5252   3.5383   3.5489   3.5547   3.5599   3.5701
  3.5741   3.5789   3.5803   3.5966   3.6074   3.6090   3.6166   3.6245
  3.6379   3.6497   3.6630   3.6676   3.6763   3.6822   3.6945   3.7043
  3.7095   3.7213   3.7321   3.7421   3.7526   3.7576   3.7854   3.7928
  3.8014   3.8099   3.8362   3.8419   3.8512   3.8553   3.8935   3.9017
  3.9155   3.9389   3.9595   3.9876   3.9943   3.9986   4.0201   4.0267
  4.0670   4.0769   4.1008   4.1189   4.1358   4.1503   4.1747   4.1788
  4.2241   4.2440   4.2669   4.2867   4.3085   4.3128   4.3236   4.3569
  4.3596   4.3729   4.3854   4.3970   4.4293   4.4501   4.4607   4.4752
  4.4801   4.4856   4.5112   4.5281   4.5432   4.5624   4.6021   4.6097
  4.6192   4.6452   4.6678   4.7183   4.7269   4.7739   4.7837   4.8189
  4.8322   4.8619   4.8943   4.9027   4.9124   4.9313   4.9651   4.9835
  4.9976   5.0114   5.0445   5.0487   5.0648   5.0710   5.0726   5.1036
  5.1682   5.1929   5.2025   5.2374   5.2572   5.3325   5.3380   5.4006
  5.4083   5.4243   5.4743   5.5118   5.5399   5.5488   5.5588   5.6034
  5.6204   5.6956   5.7191   5.7278   5.7830   5.8412   5.8558   5.9032
  6.0622   6.2526   6.2906  22.6872  22.7404  22.8129  22.9106  22.9444
 22.9706  23.0253  23.1186  23.1562  23.1808  23.4271  23.5015  32.7442
 32.8776
 --------------------------------------------------------------
 
          Ground-State Mulliken Net Atomic Charges

     Atom                 Charge (a.u.)
  ----------------------------------------
      1 C                    -0.458789
      2 C                    -1.161141
      3 C                     0.529879
      4 C                    -0.251322
      5 C                    -0.356980
      6 C                    -0.601070
      7 C                    -0.503118
      8 C                    -0.520569
      9 H                     0.271795
     10 H                     0.165439
     11 H                     0.297826
     12 H                     0.412296
     13 H                     0.426770
     14 H                     0.375868
     15 H                     0.384897
     16 H                     0.409692
     17 H                     0.304927
     18 H                     0.274297
     19 C                    -0.572414
     20 C                    -0.808233
     21 C                     0.688346
     22 C                    -0.243007
     23 N                     0.111923
     24 N                    -0.531983
     25 H                     0.301108
     26 H                     0.244119
     27 H                    -0.023197
     28 H                     0.224606
     29 H                     0.317683
     30 H                     0.290351
  ----------------------------------------
  Sum of atomic charges =     0.000000

 -----------------------------------------------------------------
                    Cartesian Multipole Moments
 -----------------------------------------------------------------
    Charge (ESU x 10^10)
                 0.0000
    Dipole Moment (Debye)
         X      -5.3721      Y       1.4534      Z      -0.8994
       Tot       5.6375
    Quadrupole Moments (Debye-Ang)
        XX     -81.2845     XY      -4.9302     YY     -82.9874
        XZ      16.5046     YZ       4.9000     ZZ     -76.0832
    Octopole Moments (Debye-Ang^2)
       XXX     -10.9766    XXY       5.9175    XYY      -0.6691
       YYY       7.0550    XXZ      -0.5311    XYZ       5.4352
       YYZ     -12.1746    XZZ     -37.9438    YZZ       9.6316
       ZZZ     -60.5310
    Hexadecapole Moments (Debye-Ang^3)
      XXXX   -1257.4036   XXXY     -88.9328   XXYY    -327.5593
      XYYY     -69.5461   YYYY    -805.0944   XXXZ     115.4396
      XXYZ      85.9179   XYYZ      18.3774   YYYZ     342.8727
      XXZZ    -539.3344   XYZZ     -53.0109   YYZZ    -511.9295
      XZZZ     198.6706   YZZZ     388.9408   ZZZZ   -1875.5271
 -----------------------------------------------------------------
Archival summary:
1\1\nid00529\SP\ProcedureUnspecified\BasisUnspecified\21216\meili\MonSep2709:40:042021MonSep2709:40:042021\0\\#,ProcedureUnspecified,BasisUnspecified,\\0,1\N\C,1,1.33009\H,2,1.08459,1,125.853\N,2,1.32542,1,108.904,3,179.783,0\H,4,1.01922,2,124.944,1,-174.791,0\C,4,1.3741,2,109.05,1,-0.420023,0\H,6,1.079,4,126.978,2,-179.403,0\C,6,1.35802,4,106.664,2,0.310625,0\C,8,1.499,6,130.33,4,-179.833,0\H,9,1.08765,8,107.64,6,120.946,0\H,9,1.09134,8,109.306,6,3.97321,0\H,9,1.1,8,113.207,6,-118.699,0\H,7,2.72341,6,97.5033,4,89.8383,0\C,13,1.08737,7,132.459,6,3.2912,0\H,14,1.08935,13,107.405,7,-51.9685,0\C,14,1.49875,13,108.056,7,66.5108,0\C,16,1.38807,14,119.694,13,53.4156,0\H,17,1.08098,16,120.121,14,-2.09819,0\C,17,1.38755,16,120.589,14,178.335,0\H,19,1.08039,17,120.038,16,-179.75,0\C,19,1.38715,17,120.161,16,-0.438902,0\H,21,1.07909,19,120.114,17,179.51,0\C,16,1.38828,14,121.048,13,-128.884,0\H,23,1.07908,16,120.001,14,2.32694,0\C,23,1.39009,16,120.391,14,-178.416,0\H,25,1.0654,23,117.262,16,-179.038,0\C,14,1.52855,13,109.549,7,-170.444,0\H,27,1.08797,14,106.75,13,-67.0247,0\H,27,1.1,14,112.047,13,48.4589,0\H,27,1.1,14,109.807,13,175.282,0\\\@

 Total job time:  95892.28s(wall), 65308.78s(cpu) 
 Mon Sep 27 09:40:07 2021

        *************************************************************
        *                                                           *
        *  Thank you very much for using Q-Chem.  Have a nice day.  *
        *                                                           *
        *************************************************************


