
Running Job 1 of 1 SSI-089ARG-106ASP-1_PCM_TZVPD.in
qchem SSI-089ARG-106ASP-1_PCM_TZVPD.in_23012.0 /tmp/qchem23012/ 0
/global/common/cori/software/qchem/5.2/exe/qcprog.exe_s SSI-089ARG-106ASP-1_PCM_TZVPD.in_23012.0 /tmp/qchem23012/
                  Welcome to Q-Chem
     A Quantum Leap Into The Future Of Chemistry


 Q-Chem 5.2, Q-Chem, Inc., Pleasanton, CA (2019)

 License issued to: National Energy Research Scientific Computing Center

 Yihan Shao,  Zhengting Gan,  E. Epifanovsky,  A. T. B. Gilbert,  M. Wormit,  
 J. Kussmann,  A. W. Lange,  A. Behn,  Jia Deng,  Xintian Feng,  D. Ghosh,  
 M. Goldey,  P. R. Horn,  L. D. Jacobson,  I. Kaliman,  T. Kus,  A. Landau,  
 Jie Liu,  E. I. Proynov,  R. M. Richard,  R. P. Steele,  E. J. Sundstrom,  
 H. L. Woodcock III,  P. M. Zimmerman,  D. Zuev,  B. Albrecht,  E. Alguire,  
 S. A. Baeppler,  D. Barton,  Z. Benda,  Y. A. Bernard,  E. J. Berquist,  
 K. B. Bravaya,  H. Burton,  D. Casanova,  Chun-Min Chang,  Yunqing Chen,  
 A. Chien,  K. D. Closser,  M. P. Coons,  S. Coriani,  S. Dasgupta,  
 A. L. Dempwolff,  M. Diedenhofen,  Hainam Do,  R. G. Edgar,  Po-Tung Fang,  
 S. Faraji,  S. Fatehi,  Qingguo Feng,  K. D. Fenk,  J. Fosso-Tande,  
 J. Gayvert,  Qinghui Ge,  A. Ghysels,  G. Gidofalvi,  J. Gomes,  
 J. Gonthier,  A. Gunina,  D. Hait,  M. W. D. Hanson-Heine,  
 P. H. P. Harbach,  A. W. Hauser,  M. F. Herbst,  J. E. Herr,  
 E. G. Hohenstein,  Z. C. Holden,  Kerwin Hui,  B. C. Huynh,  T.-C. Jagau,  
 Hyunjun Ji,  B. Kaduk,  K. Khistyaev,  Jaehoon Kim,  P. Klunzinger,  K. Koh,  
 D. Kosenkov,  L. Koulias,  T. Kowalczyk,  C. M. Krauter,  A. Kunitsa,  
 Ka Un Lao,  A. Laurent,  K. V. Lawler,  Joonho Lee,  D. Lefrancois,  
 S. Lehtola,  D. S. Levine,  Yi-Pei Li,  You-Sheng Lin,  Fenglai Liu,  
 E. Livshits,  A. Luenser,  P. Manohar,  E. Mansoor,  S. F. Manzer,  
 Shan-Ping Mao,  Yuezhi Mao,  N. Mardirossian,  A. V. Marenich,  
 T. Markovich,  L. A. Martinez-Martinez,  S. A. Maurer,  N. J. Mayhall,  
 S. C. McKenzie,  J.-M. Mewes,  P. Morgante,  A. F. Morrison,  
 J. W. Mullinax,  K. Nanda,  T. S. Nguyen-Beck,  R. Olivares-Amaya,  
 J. A. Parkhill,  Zheng Pei,  T. M. Perrine,  F. Plasser,  P. Pokhilko,  
 S. Prager,  A. Prociuk,  E. Ramos,  D. R. Rehn,  F. Rob,  M. Scheurer,  
 M. Schneider,  N. Sergueev,  S. M. Sharada,  S. Sharma,  D. W. Small,  
 T. Stauch,  T. Stein,  Yu-Chuan Su,  A. J. W. Thom,  A. Tkatchenko,  
 T. Tsuchimochi,  N. M. Tubman,  L. Vogt,  M. L. Vidal,  O. Vydrov,  
 M. A. Watson,  J. Wenzel,  M. de Wergifosse,  T. A. Wesolowski,  A. White,  
 J. Witte,  A. Yamada,  Jun Yang,  K. Yao,  S. Yeganeh,  S. R. Yost,  
 Zhi-Qiang You,  A. Zech,  Igor Ying Zhang,  Xing Zhang,  Yan Zhao,  
 Ying Zhu,  B. R. Brooks,  G. K. L. Chan,  C. J. Cramer,  M. S. Gordon,  
 W. J. Hehre,  A. Klamt,  M. W. Schmidt,  C. D. Sherrill,  D. G. Truhlar,  
 A. Aspuru-Guzik,  R. Baer,  A. T. Bell,  N. A. Besley,  Jeng-Da Chai,  
 A. E. DePrince, III,  R. A. DiStasio Jr.,  A. Dreuw,  B. D. Dunietz,  
 T. R. Furlani,  Chao-Ping Hsu,  Yousung Jung,  Jing Kong,  D. S. Lambrecht,  
 WanZhen Liang,  C. Ochsenfeld,  V. A. Rassolov,  L. V. Slipchenko,  
 J. E. Subotnik,  T. Van Voorhis,  J. M. Herbert,  A. I. Krylov,  
 P. M. W. Gill,  M. Head-Gordon

 Contributors to earlier versions of Q-Chem not listed above: 
 R. D. Adamson,  B. Austin,  J. Baker,  G. J. O. Beran,  K. Brandhorst,  
 S. T. Brown,  E. F. C. Byrd,  A. K. Chakraborty,  C.-L. Cheng,  
 Siu Hung Chien,  D. M. Chipman,  D. L. Crittenden,  H. Dachsel,  
 R. J. Doerksen,  A. D. Dutoi,  L. Fusti-Molnar,  W. A. Goddard III,  
 A. Golubeva-Zadorozhnaya,  S. R. Gwaltney,  G. Hawkins,  A. Heyden,  
 S. Hirata,  G. Kedziora,  F. J. Keil,  C. Kelley,  Jihan Kim,  R. A. King,  
 R. Z. Khaliullin,  P. P. Korambath,  W. Kurlancheek,  A. M. Lee,  M. S. Lee,  
 S. V. Levchenko,  Ching Yeh Lin,  D. Liotard,  R. C. Lochan,  I. Lotan,  
 P. E. Maslen,  N. Nair,  D. P. O'Neill,  D. Neuhauser,  E. Neuscamman,  
 C. M. Oana,  R. Olson,  B. Peters,  R. Peverati,  P. A. Pieniazek,  
 Y. M. Rhee,  J. Ritchie,  M. A. Rohrdanz,  E. Rosta,  N. J. Russ,  
 H. F. Schaefer III,  N. E. Schultz,  N. Shenvi,  A. C. Simmonett,  A. Sodt,  
 D. Stuck,  K. S. Thanthiriwatte,  V. Vanovschi,  Tao Wang,  A. Warshel,  
 C. F. Williams,  Q. Wu,  X. Xu,  W. Zhang

 Please cite Q-Chem as follows:
 Y. Shao et al., Mol. Phys. 113, 184-215 (2015)
 DOI: 10.1080/00268976.2014.952696

 Q-Chem 5.2.0 for Intel X86 EM64T Linux

 Parts of Q-Chem use Armadillo 8.300.2 (Tropical Shenanigans).
 http://arma.sourceforge.net/

 Q-Chem begins on Sun Sep 26 12:25:14 2021  

Host: cori01
0

     Scratch files written to /tmp/qchem23012//
 May1019 |scratch|qcdevops|jenkins|workspace|build_RNUM -1
Processing $rem in /global/common/cori/software/qchem/5.2/config/preferences:
	 MEM_TOTAL  96000 
NAlpha2: 72
NElect   72
Mult     1
Symmetry turned off for PCM/SM12/SMD calculation

 Q-Chem warning in module libgen/rem_setup.C, line 2803:

 Neither GIA nor STOLL is specified by user. Use STOLL as the default


Checking the input file for inconsistencies... 	...done.

--------------------------------------------------------------
User input:
--------------------------------------------------------------
$comment
SSI-089ARG-106ASP-1.pdb
$end

$molecule
0 1
--
1 1
C    4.036042659831   -1.258686194537   -0.129802137925
C    1.742042659831   -0.360686194537    0.109197862075
N    0.894042659831    0.629313805463   -0.069802137925
N    2.989042659831   -0.245686194537   -0.320802137925
N    1.347042659831   -1.445686194537    0.750197862075
H    1.208042659831    1.500313805463   -0.465802137925
H   -0.106957340169    0.425313805463   -0.011802137925
H    3.240042659831    0.605313805463   -0.813802137925
H    1.973042659831   -2.222686194537    0.872197862075
H    0.403042659831   -1.487686194537    1.117197862075
H    4.672042659831   -1.277686194537   -1.015802137925
H    3.622042659831   -2.261686194537   -0.011802137925
H    4.651222659831   -0.998446194537    0.744167862075
--
-1 1
C   -2.637957340169    1.461313805463    1.098197862075
C   -2.762957340169    0.636313805463   -0.162802137925
O   -1.754957340169   -0.013686194537   -0.518802137925
O   -3.852957340169    0.632313805463   -0.777802137925
H   -1.586957340169    1.561313805463    1.382197862075
H   -3.155957340169    0.936313805463    1.902197862075
H   -3.078067340169    2.463663805463    0.990517862075
$end

$rem
JOBTYPE			EDA
EDA2			1
method			wB97X-V
BASIS			def2-TZVPD
XC_GRID			000099000590
NL_GRID			1
UNRESTRICTED		FALSE
MAX_SCF_CYCLES		200
SYMMETRY		FALSE
SYM_IGNORE		TRUE
MEM_STATIC		2000
BASIS_LIN_DEP_THRESH 	6
THRESH 			14
SCF_CONVERGENCE 	8
SCF_PRINT_FRGM 		TRUE
SOLVENT_METHOD          PCM
$end

$PCM
THEORY                  CPCM
METHOD                  SWIG
SOLVER                  INVERSION
RADII                   UFF
HPOINTS                 302
HEAVYPOINTS             302
PRINTLEVEL              0
$END

$SOLVENT
DIELECTRIC              78.390000 ! water
$END
--------------------------------------------------------------
 ----------------------------------------------------------------
             Standard Nuclear Orientation (Angstroms)
    I     Atom           X                Y                Z
 ----------------------------------------------------------------
    1      C       4.0360426598    -1.2586861945    -0.1298021379
    2      C       1.7420426598    -0.3606861945     0.1091978621
    3      N       0.8940426598     0.6293138055    -0.0698021379
    4      N       2.9890426598    -0.2456861945    -0.3208021379
    5      N       1.3470426598    -1.4456861945     0.7501978621
    6      H       1.2080426598     1.5003138055    -0.4658021379
    7      H      -0.1069573402     0.4253138055    -0.0118021379
    8      H       3.2400426598     0.6053138055    -0.8138021379
    9      H       1.9730426598    -2.2226861945     0.8721978621
   10      H       0.4030426598    -1.4876861945     1.1171978621
   11      H       4.6720426598    -1.2776861945    -1.0158021379
   12      H       3.6220426598    -2.2616861945    -0.0118021379
   13      H       4.6512226598    -0.9984461945     0.7441678621
   14      C      -2.6379573402     1.4613138055     1.0981978621
   15      C      -2.7629573402     0.6363138055    -0.1628021379
   16      O      -1.7549573402    -0.0136861945    -0.5188021379
   17      O      -3.8529573402     0.6323138055    -0.7778021379
   18      H      -1.5869573402     1.5613138055     1.3821978621
   19      H      -3.1559573402     0.9363138055     1.9021978621
   20      H      -3.0780673402     2.4636638055     0.9905178621
 ----------------------------------------------------------------
 Nuclear Repulsion Energy =         445.44395527 hartrees
 There are       36 alpha and       36 beta electrons
 Requested basis set is def2-TZVPD
 There are 174 shells and 438 basis functions

 Total QAlloc Memory Limit  96000 MB
 Mega-Array Size      1956 MB
 MEM_STATIC part      2000 MB
 Discretize the solute cavity surface with Lebedev spheres
	Using 302 Lebedev grid points for each H atom
	Using 302 Lebedev grid points for other atoms
	Atomic van der Waals radii will be scaled by 1.20
 Remove points where switching function is < 1.0e-08
 Keep 2368 surface tesserae and discard 3672 interior tesserae
 Molecular Surface Area = 239.538 Angst**2
 A cutoff of  1.0D-14 yielded  13233 shell pairs
 There are     83821 function pairs (    104967 Cartesian)
 Smallest overlap matrix eigenvalue = 1.11E-05

 Scale SEOQF with 1.000000e-01/1.000000e-01/1.000000e-01

 Standard Electronic Orientation quadrupole field applied
 Nucleus-field energy     =     0.0000000207 hartrees

 -----------------------------------------------------------------------
  General SCF calculation program by
  Eric Jon Sundstrom, Paul Horn, Yuezhi Mao, Dmitri Zuev, Alec White,
  David Stuck, Shaama M.S., Shane Yost, Joonho Lee, David Small,
  Daniel Levine, Susi Lehtola, Hugh Burton, Evgeny Epifanovsky
 -----------------------------------------------------------------------
================================================================
                 ALMO-EDA with the EDA2 driver                  
================================================================
 The second-generation ALMO-EDA (for DFT):                      
 P. R. Horn, Y. Mao and M. Head-Gordon, PCCP, 18, 23067 (2016)  
 Decomposition of the frozen energy:                            
 P. R. Horn, Y. Mao and M. Head-Gordon, JCP, 144, 114107 (2016) 
 FERF model for polarization:                                   
 P. R. Horn and M. Head-Gordon, JCP, 143, 114111 (2015)         
Using eda2 option set 1
Option set summary: Frozen orbital wavefunction, initial wavefunction decomposition, and nDQ polarization.
--------------------------------
Printing EDA Options
--------------------------------
eda_child_super_basis      0
fragmo_guess_mode          0
child_mp                   1
child_mp_orders            232
cls_elec                   1
cls_disp                   0
scfmi_mode                 1
scfmi_occs                 0
scfmi_virts                0
frz_relax                  0
frz_relax_method           0
dc_pen_start               0
dc_pen_conv                0
dc_pen_increment           0
dc_pen_steps               0
dc_pen_thresh_factor       0
dc_pen_pre_newton_thresh   0
frz_ortho_decomp           1
frz_ortho_decomp_conv      6
frgm_method                2
scfmi_freeze_ss            0
separate_rehyb             0
plot_diff_den              0
eda_nocv                   0
eda_vct_relax              1
disp_free_x                0
disp_free_c                0
eda_bsse                   0
eda_pct_a                  0
eda_covp                   0
--------------------------------
Attempting to make child job directory: /tmp/qchem23012//Frg1/
Attempting to make child job directory: /tmp/qchem23012//Frg2/
Creating input file /tmp/qchem23012/Frg1.input
using default PutDataFrgm: nothing
calling putenv with: QCSCRATCH=/tmp/qchem23012/ 
calling putenv with: QCLOCALSCR=/tmp/qchem23012/ 
Spawning Job For Fragment 0
                  Welcome to Q-Chem
     A Quantum Leap Into The Future Of Chemistry


 Q-Chem 5.2, Q-Chem, Inc., Pleasanton, CA (2019)

 License issued to: National Energy Research Scientific Computing Center

 Yihan Shao,  Zhengting Gan,  E. Epifanovsky,  A. T. B. Gilbert,  M. Wormit,  
 J. Kussmann,  A. W. Lange,  A. Behn,  Jia Deng,  Xintian Feng,  D. Ghosh,  
 M. Goldey,  P. R. Horn,  L. D. Jacobson,  I. Kaliman,  T. Kus,  A. Landau,  
 Jie Liu,  E. I. Proynov,  R. M. Richard,  R. P. Steele,  E. J. Sundstrom,  
 H. L. Woodcock III,  P. M. Zimmerman,  D. Zuev,  B. Albrecht,  E. Alguire,  
 S. A. Baeppler,  D. Barton,  Z. Benda,  Y. A. Bernard,  E. J. Berquist,  
 K. B. Bravaya,  H. Burton,  D. Casanova,  Chun-Min Chang,  Yunqing Chen,  
 A. Chien,  K. D. Closser,  M. P. Coons,  S. Coriani,  S. Dasgupta,  
 A. L. Dempwolff,  M. Diedenhofen,  Hainam Do,  R. G. Edgar,  Po-Tung Fang,  
 S. Faraji,  S. Fatehi,  Qingguo Feng,  K. D. Fenk,  J. Fosso-Tande,  
 J. Gayvert,  Qinghui Ge,  A. Ghysels,  G. Gidofalvi,  J. Gomes,  
 J. Gonthier,  A. Gunina,  D. Hait,  M. W. D. Hanson-Heine,  
 P. H. P. Harbach,  A. W. Hauser,  M. F. Herbst,  J. E. Herr,  
 E. G. Hohenstein,  Z. C. Holden,  Kerwin Hui,  B. C. Huynh,  T.-C. Jagau,  
 Hyunjun Ji,  B. Kaduk,  K. Khistyaev,  Jaehoon Kim,  P. Klunzinger,  K. Koh,  
 D. Kosenkov,  L. Koulias,  T. Kowalczyk,  C. M. Krauter,  A. Kunitsa,  
 Ka Un Lao,  A. Laurent,  K. V. Lawler,  Joonho Lee,  D. Lefrancois,  
 S. Lehtola,  D. S. Levine,  Yi-Pei Li,  You-Sheng Lin,  Fenglai Liu,  
 E. Livshits,  A. Luenser,  P. Manohar,  E. Mansoor,  S. F. Manzer,  
 Shan-Ping Mao,  Yuezhi Mao,  N. Mardirossian,  A. V. Marenich,  
 T. Markovich,  L. A. Martinez-Martinez,  S. A. Maurer,  N. J. Mayhall,  
 S. C. McKenzie,  J.-M. Mewes,  P. Morgante,  A. F. Morrison,  
 J. W. Mullinax,  K. Nanda,  T. S. Nguyen-Beck,  R. Olivares-Amaya,  
 J. A. Parkhill,  Zheng Pei,  T. M. Perrine,  F. Plasser,  P. Pokhilko,  
 S. Prager,  A. Prociuk,  E. Ramos,  D. R. Rehn,  F. Rob,  M. Scheurer,  
 M. Schneider,  N. Sergueev,  S. M. Sharada,  S. Sharma,  D. W. Small,  
 T. Stauch,  T. Stein,  Yu-Chuan Su,  A. J. W. Thom,  A. Tkatchenko,  
 T. Tsuchimochi,  N. M. Tubman,  L. Vogt,  M. L. Vidal,  O. Vydrov,  
 M. A. Watson,  J. Wenzel,  M. de Wergifosse,  T. A. Wesolowski,  A. White,  
 J. Witte,  A. Yamada,  Jun Yang,  K. Yao,  S. Yeganeh,  S. R. Yost,  
 Zhi-Qiang You,  A. Zech,  Igor Ying Zhang,  Xing Zhang,  Yan Zhao,  
 Ying Zhu,  B. R. Brooks,  G. K. L. Chan,  C. J. Cramer,  M. S. Gordon,  
 W. J. Hehre,  A. Klamt,  M. W. Schmidt,  C. D. Sherrill,  D. G. Truhlar,  
 A. Aspuru-Guzik,  R. Baer,  A. T. Bell,  N. A. Besley,  Jeng-Da Chai,  
 A. E. DePrince, III,  R. A. DiStasio Jr.,  A. Dreuw,  B. D. Dunietz,  
 T. R. Furlani,  Chao-Ping Hsu,  Yousung Jung,  Jing Kong,  D. S. Lambrecht,  
 WanZhen Liang,  C. Ochsenfeld,  V. A. Rassolov,  L. V. Slipchenko,  
 J. E. Subotnik,  T. Van Voorhis,  J. M. Herbert,  A. I. Krylov,  
 P. M. W. Gill,  M. Head-Gordon

 Contributors to earlier versions of Q-Chem not listed above: 
 R. D. Adamson,  B. Austin,  J. Baker,  G. J. O. Beran,  K. Brandhorst,  
 S. T. Brown,  E. F. C. Byrd,  A. K. Chakraborty,  C.-L. Cheng,  
 Siu Hung Chien,  D. M. Chipman,  D. L. Crittenden,  H. Dachsel,  
 R. J. Doerksen,  A. D. Dutoi,  L. Fusti-Molnar,  W. A. Goddard III,  
 A. Golubeva-Zadorozhnaya,  S. R. Gwaltney,  G. Hawkins,  A. Heyden,  
 S. Hirata,  G. Kedziora,  F. J. Keil,  C. Kelley,  Jihan Kim,  R. A. King,  
 R. Z. Khaliullin,  P. P. Korambath,  W. Kurlancheek,  A. M. Lee,  M. S. Lee,  
 S. V. Levchenko,  Ching Yeh Lin,  D. Liotard,  R. C. Lochan,  I. Lotan,  
 P. E. Maslen,  N. Nair,  D. P. O'Neill,  D. Neuhauser,  E. Neuscamman,  
 C. M. Oana,  R. Olson,  B. Peters,  R. Peverati,  P. A. Pieniazek,  
 Y. M. Rhee,  J. Ritchie,  M. A. Rohrdanz,  E. Rosta,  N. J. Russ,  
 H. F. Schaefer III,  N. E. Schultz,  N. Shenvi,  A. C. Simmonett,  A. Sodt,  
 D. Stuck,  K. S. Thanthiriwatte,  V. Vanovschi,  Tao Wang,  A. Warshel,  
 C. F. Williams,  Q. Wu,  X. Xu,  W. Zhang

 Please cite Q-Chem as follows:
 Y. Shao et al., Mol. Phys. 113, 184-215 (2015)
 DOI: 10.1080/00268976.2014.952696

 Q-Chem 5.2.0 for Intel X86 EM64T Linux

 Parts of Q-Chem use Armadillo 8.300.2 (Tropical Shenanigans).
 http://arma.sourceforge.net/

 Q-Chem begins on Sun Sep 26 12:25:18 2021  

Host: cori01
0

     Scratch files written to /tmp/qchem23012//Frg1//
 May1019 |scratch|qcdevops|jenkins|workspace|build_RNUM -1
Processing $rem in /global/common/cori/software/qchem/5.2/config/preferences:
	 MEM_TOTAL  96000 
NAlpha2: 40
NElect   40
Mult     1
Symmetry turned off for PCM/SM12/SMD calculation

Checking the input file for inconsistencies... 	...done.

--------------------------------------------------------------
User input:
--------------------------------------------------------------
$molecule
1 1
 6	4.0360426598	-1.2586861945	-0.1298021379
 6	1.7420426598	-0.3606861945	0.1091978621
 7	0.8940426598	0.6293138055	-0.0698021379
 7	2.9890426598	-0.2456861945	-0.3208021379
 7	1.3470426598	-1.4456861945	0.7501978621
 1	1.2080426598	1.5003138055	-0.4658021379
 1	-0.1069573402	0.4253138055	-0.0118021379
 1	3.2400426598	0.6053138055	-0.8138021379
 1	1.9730426598	-2.2226861945	0.8721978621
 1	0.4030426598	-1.4876861945	1.1171978621
 1	4.6720426598	-1.2776861945	-1.0158021379
 1	3.6220426598	-2.2616861945	-0.0118021379
 1	4.6512226598	-0.9984461945	0.7441678621
$end
$rem
EDA2		1
METHOD		WB97X-V
BASIS		DEF2-TZVPD
XC_GRID		000099000590
NL_GRID		1
UNRESTRICTED		FALSE
MAX_SCF_CYCLES		200
SYMMETRY		FALSE
SYM_IGNORE		TRUE
BASIS_LIN_DEP_THRESH		6
THRESH		14
SCF_CONVERGENCE		8
SCF_PRINT_FRGM		TRUE
SOLVENT_METHOD		PCM
!required keywords
JOBTYPE		SP
SYM_IGNORE		TRUE
SUBSYSTEM		TRUE
GEN_SCFMAN		TRUE
CHILD_INSTRUCTION		2
SYM_IGNORE		TRUE
SCFMI		0
RI_K 0		
PARI_K 0		
MIN_PARI_K 0		
IARI_K 0		
OCC_RI_K 0		
PURECART		1111
MEM_STATIC		2000
MEM_TOTAL		96000
GUI		0
CHILD_MP		1
CHILD_MP_ORDERS		232
FRZ_RELAX		0
FRZ_RELAX_METHOD		0
EDA_CLS_ELEC		1
EDA_CLS_DISP		0
FRZ_ORTHO_DECOMP		1
EDA2		FALSE
FRGM_METHOD		FALSE
CIS_N_ROOTS  0
LOCAL_CIS    0
CIS_RLX_DNS  1
$end
$pcm
THEORY                  CPCM
METHOD                  SWIG
SOLVER                  INVERSION
RADII                   UFF
HPOINTS                 302
HEAVYPOINTS             302
PRINTLEVEL              0
$end
$solvent
DIELECTRIC              78.390000 ! water
$end
--------------------------------------------------------------
 ----------------------------------------------------------------
             Standard Nuclear Orientation (Angstroms)
    I     Atom           X                Y                Z
 ----------------------------------------------------------------
    1      C       4.0360426598    -1.2586861945    -0.1298021379
    2      C       1.7420426598    -0.3606861945     0.1091978621
    3      N       0.8940426598     0.6293138055    -0.0698021379
    4      N       2.9890426598    -0.2456861945    -0.3208021379
    5      N       1.3470426598    -1.4456861945     0.7501978621
    6      H       1.2080426598     1.5003138055    -0.4658021379
    7      H      -0.1069573402     0.4253138055    -0.0118021379
    8      H       3.2400426598     0.6053138055    -0.8138021379
    9      H       1.9730426598    -2.2226861945     0.8721978621
   10      H       0.4030426598    -1.4876861945     1.1171978621
   11      H       4.6720426598    -1.2776861945    -1.0158021379
   12      H       3.6220426598    -2.2616861945    -0.0118021379
   13      H       4.6512226598    -0.9984461945     0.7441678621
 ----------------------------------------------------------------
 Nuclear Repulsion Energy =         194.25226837 hartrees
 There are       20 alpha and       20 beta electrons
 Requested basis set is def2-TZVPD
 There are 105 shells and 257 basis functions

 Total QAlloc Memory Limit  96000 MB
 Mega-Array Size      1956 MB
 MEM_STATIC part      2000 MB
 Discretize the solute cavity surface with Lebedev spheres
	Using 302 Lebedev grid points for each H atom
	Using 302 Lebedev grid points for other atoms
	Atomic van der Waals radii will be scaled by 1.20
 Remove points where switching function is < 1.0e-08
 Keep 1573 surface tesserae and discard 2353 interior tesserae
 Molecular Surface Area = 151.952 Angst**2

                       Distance Matrix (Angstroms)
             C (  1)   C (  2)   N (  3)   N (  4)   N (  5)   H (  6)
   C (  2)  2.475068
   N (  3)  3.666103  1.315768
   N (  4)  1.469306  1.324060  2.284218
   N (  5)  2.835505  1.320656  2.276672  2.298522
   H (  6)  3.965168  2.019679  1.007002  2.498300  3.190124
   H (  7)  4.473727  2.012769  1.023221  3.182913  2.489056  1.758114
   H (  8)  2.139151  2.007259  2.461266  1.015013  3.199398  2.247477
   H (  9)  2.487824  2.025481  3.191474  2.522704  1.005231  4.029417
   H ( 10)  3.847875  2.019682  2.476235  3.209019  1.013701  3.475925
   H ( 11)  1.090804  3.269773  4.336456  2.092973  3.768634  4.474269
   H ( 12)  1.091480  2.676349  3.975328  2.135515  2.534191  4.492901
   H ( 13)  1.099998  3.045202  4.174752  2.112735  3.334316  4.423044
             H (  7)   H (  8)   H (  9)   H ( 10)   H ( 11)   H ( 12)
   H (  8)  3.446449
   H (  9)  3.481345  3.527814
   H ( 10)  2.279103  4.019699  1.750757
   H ( 11)  5.171757  2.374261  3.426685  4.776835
   H ( 12)  4.596239  3.001469  1.871411  3.497953  1.754643
   H ( 13)  5.023829  2.644002  2.947508  4.292498  1.782106  1.796240

 
 A cutoff of  1.0D-14 yielded   5441 shell pairs
 There are     33177 function pairs (     41513 Cartesian)
 Smallest overlap matrix eigenvalue = 1.61E-05

 Scale SEOQF with 1.000000e-01/1.000000e-01/1.000000e-01

 Standard Electronic Orientation quadrupole field applied
 Nucleus-field energy     =     0.0000000119 hartrees
 Guess from superposition of atomic densities
 Warning:  Energy on first SCF cycle will be non-variational
 SAD guess density has 40.388232 electrons

 -----------------------------------------------------------------------
  General SCF calculation program by
  Eric Jon Sundstrom, Paul Horn, Yuezhi Mao, Dmitri Zuev, Alec White,
  David Stuck, Shaama M.S., Shane Yost, Joonho Lee, David Small,
  Daniel Levine, Susi Lehtola, Hugh Burton, Evgeny Epifanovsky
 -----------------------------------------------------------------------
 Exchange:     0.1670 Hartree-Fock + 1.0000 wB97X-V + LR-HF
 Correlation:  1.0000 wB97X-V
 Using Euler-Maclaurin-Lebedev (99,590) quadrature formula
 Nonlocal Correlation:  VV10 with C = 0.0100 and b = 6.00 and scale = 1.00000
 Grid used for NLC:  SG-1 standard quadrature
Energy prior to optimization (guess energy) = -244.723079268186
Begin Timing: Total SCF Calculation
begin iterations for algorithm: DIIS         
the SCF tolerance is set to 1.00e-08
    1    -244.7230792682      7.93e-03     00000 
    2    -244.9382561845      6.23e-03     00000 
    3    -245.1780648600      3.01e-04     00000 
    4    -245.1786637366      1.73e-04     00000 
    5    -245.1788671346      3.53e-05     00000 
    6    -245.1788764316      1.38e-05     00000 
    7    -245.1788780487      2.28e-06     00000 
    8    -245.1788781309      7.83e-07     00000 
    9    -245.1788781415      3.24e-07     00000 
   10    -245.1788781432      9.31e-08     00000 
   11    -245.1788781434      4.16e-08     00000 
   12    -245.1788781434      1.06e-08     00000 
   13    -245.1788781434      1.66e-09     00000 Convergence criterion met
Timing for Total SCF: 769.00s (wall), 1526.52s (cpu)

************** Final PCM Free Energy Summary **************
 G_electrostatic  =      -0.08148790 hartree =     -51.13442990 kcal/mol
 G_cavitation     =       0.00000000 hartree =       0.00000000 kcal/mol
 G_dispersion     =       0.00000000 hartree =       0.00000000 kcal/mol
 G_repulsion      =       0.00000000 hartree =       0.00000000 kcal/mol
 --------------------------------------------------
 Non-electrostatic Free Energy =       0.00000000 hartree =       0.00000000 kcal/mol
 Total                         =      -0.08148790 hartree =     -51.13442990 kcal/mol
 --------------------------------------------------
 SCF Energy (H0 + V/2)                       =    -245.17887814 
 Solute Internal Energy (H0)                 =    -245.09739024 
 Total Free Energy (H0 + V/2 + non-elec)     =    -245.17887814 hartree
                                             = -153852.06812412 kcal/mol
***********************************************************

E_pcm = -0.0814879014
Multipole orders to be included
        2
        3
computing dipole RHS
computing quadrupole RHS
total number of RHS in solve_reponses: 8
RHS batch sizes
        8
Beginning Block Conjugate Gradient Iterations. Batch Number: 0
computing hessian-vector products by finite difference
              1      4.50e-01     00000 Conjugate Gradient Iteration
computing hessian-vector products by finite difference
              2      1.71e-01     00000 Conjugate Gradient Iteration
computing hessian-vector products by finite difference
              3      4.80e-02     00000 Conjugate Gradient Iteration
computing hessian-vector products by finite difference
              4      1.29e-02     00000 Conjugate Gradient Iteration
computing hessian-vector products by finite difference
              5      1.89e-03     00000 Conjugate Gradient Iteration
computing hessian-vector products by finite difference
              6      2.90e-04     00000 Conjugate Gradient Iteration
computing hessian-vector products by finite difference
              7      4.13e-05     00000 Conjugate Gradient Iteration
computing hessian-vector products by finite difference
              8      5.54e-06     00000 Conjugate Gradient Iteration
computing hessian-vector products by finite difference
              9      8.95e-07     00000 Conjugate Gradient Iteration
computing hessian-vector products by finite difference
             10      1.10e-07     00000 Conjugate Gradient Iteration
computing hessian-vector products by finite difference
             11      1.36e-08     00000 Conjugate Gradient Iteration
computing hessian-vector products by finite difference
             12      2.01e-09     00000 CG Converged
batch 0 complete
Done Calculating Responses
TESTING ORTHOGONALIZATION OF MULTIPOLE BASIS
Multipole virts passed orthogonality test
Virts Per Order
           60
          100
 
 --------------------------------------------------------------
 
                    Orbital Energies (a.u.)
 --------------------------------------------------------------
 
 Alpha MOs
 -- Occupied --
-14.4833 -14.4763 -14.4741 -10.4485 -10.3321  -1.2013  -1.0822  -1.0707
 -0.8789  -0.7934  -0.7538  -0.7132  -0.6492  -0.6439  -0.6177  -0.5939
 -0.5518  -0.5350  -0.4259  -0.4023
 -- Virtual --
  0.0483   0.0743   0.0794   0.0866   0.1145   0.1162   0.1244   0.1425
  0.1556   0.1661   0.1810   0.1871   0.1883   0.1960   0.2077   0.2253
  0.2310   0.2375   0.2399   0.2535   0.2636   0.2734   0.2854   0.2905
  0.2964   0.3044   0.3076   0.3139   0.3221   0.3338   0.3400   0.3509
  0.3527   0.3607   0.3678   0.3768   0.3936   0.4041   0.4057   0.4196
  0.4293   0.4372   0.4425   0.4542   0.4605   0.4689   0.4725   0.4805
  0.4925   0.4980   0.5041   0.5124   0.5158   0.5244   0.5339   0.5399
  0.5465   0.5518   0.5680   0.5768   0.5950   0.6119   0.6232   0.6353
  0.6444   0.6630   0.6791   0.6934   0.7009   0.7091   0.7307   0.7575
  0.7784   0.7835   0.7971   0.8012   0.8178   0.8295   0.8379   0.8446
  0.8558   0.8668   0.8814   0.9053   0.9160   0.9523   0.9720   0.9743
  1.0028   1.0396   1.0455   1.0706   1.0772   1.0848   1.1022   1.1253
  1.1348   1.1783   1.2003   1.2327   1.2580   1.3275   1.3370   1.3869
  1.4115   1.4221   1.4367   1.4830   1.5389   1.5577   1.6180   1.6223
  1.6619   1.7098   1.7367   1.7632   1.8046   1.8322   1.8528   1.8674
  1.8902   1.9051   1.9126   1.9325   1.9775   1.9848   2.0035   2.0297
  2.0650   2.0968   2.1296   2.1553   2.2018   2.2196   2.2465   2.2666
  2.2957   2.3281   2.3589   2.3728   2.4155   2.4565   2.4653   2.4860
  2.5513   2.5618   2.5769   2.6174   2.6263   2.6454   2.6715   2.7023
  2.7585   2.7824   2.8248   2.8430   2.8542   2.8806   2.9122   2.9375
  3.0247   3.0860   3.1016   3.1318   3.1471   3.1874   3.2086   3.2238
  3.2468   3.2640   3.2844   3.2972   3.3374   3.3834   3.3922   3.4127
  3.4417   3.4838   3.4998   3.5591   3.5836   3.6401   3.6737   3.7063
  3.8036   3.8535   3.8919   3.9252   4.0000   4.0827   4.1095   4.1950
  4.2343   4.2903   4.3260   4.3676   4.4359   4.4789   4.5538   4.5948
  4.6478   4.8145   4.8363   4.8507   4.9011   4.9646   4.9894   5.0263
  5.0847   5.0920   5.1196   5.1421   5.1699   5.1910   5.2543   5.3048
  5.3505   5.3879   5.4129   5.4522   5.4631   5.4948   5.5482   5.6113
  5.6507   5.7478   5.7825   5.8749   6.1332   6.1440   6.3365   6.4447
 22.6105  23.6349  32.3093  32.4219  32.7929
 --------------------------------------------------------------
 
          Ground-State Mulliken Net Atomic Charges

     Atom                 Charge (a.u.)
  ----------------------------------------
      1 C                    -0.768435
      2 C                     0.564058
      3 N                    -0.288398
      4 N                    -0.074167
      5 N                    -0.229257
      6 H                     0.206043
      7 H                     0.227587
      8 H                     0.226263
      9 H                     0.123073
     10 H                     0.204324
     11 H                     0.258553
     12 H                     0.290679
     13 H                     0.259677
  ----------------------------------------
  Sum of atomic charges =     1.000000

 -----------------------------------------------------------------
                    Cartesian Multipole Moments
 -----------------------------------------------------------------
    Charge (ESU x 10^10)
                 4.8032
    Dipole Moment (Debye)
         X       9.0695      Y      -2.0890      Z       0.0883
       Tot       9.3074
    Quadrupole Moments (Debye-Ang)
        XX       2.0840     XY      -5.9220     YY     -18.1378
        XZ      -3.1629     YZ      -5.5226     ZZ     -28.6095
    Octopole Moments (Debye-Ang^2)
       XXX     -85.2817    XXY      -5.6498    XYY     -42.8776
       YYY      38.3278    XXZ     -14.1292    XYZ      -7.0519
       YYZ       2.4900    XZZ     -64.0457    YZZ      14.9261
       ZZZ      -6.0490
    Hexadecapole Moments (Debye-Ang^3)
      XXXX    -774.7243   XXXY      65.7146   XXYY    -173.8286
      XYYY     123.5115   YYYY    -167.8837   XXXZ     -39.5169
      XXYZ      -5.6140   XYYZ       6.6724   YYYZ      -0.9113
      XXZZ    -197.3297   XYZZ      52.1406   YYZZ     -40.1849
      XZZZ       4.0869   YZZZ      17.8055   ZZZZ     -66.9353
 -----------------------------------------------------------------
Archival summary:
1\1\nid00546\SP\ProcedureUnspecified\BasisUnspecified\328(1+,1)\meili\SunSep2616:09:432021SunSep2616:09:432021\0\\#,ProcedureUnspecified,BasisUnspecified,\\1,1\C\N,1,1.31577\H,2,1.007,1,120.221\H,2,1.02322,1,118.215,3,165.672,0\N,1,1.32066,2,119.434,3,173.28,0\H,5,1.00523,1,120.509,2,178.179,0\H,5,1.0137,1,119.228,2,-1.69804,0\N,1,1.32406,2,119.831,3,-4.87404,0\H,8,1.01501,1,117.61,2,-2.30854,0\C,8,1.46931,1,124.681,2,177.392,0\H,10,1.0908,8,108.778,1,143.795,0\H,10,1.09148,8,112.168,1,25.5886,0\H,10,1.1,8,109.797,1,-97.1654,0\\\@

 Total job time:  13465.72s(wall), 26727.77s(cpu) 
 Sun Sep 26 16:09:43 2021

        *************************************************************
        *                                                           *
        *  Thank you very much for using Q-Chem.  Have a nice day.  *
        *                                                           *
        *************************************************************


Done Job For Fragment 0
calling putenv with: QCSCRATCH=/global/cscratch1/sd/meili 
calling putenv with: QCLOCALSCR=/tmp 
calling putenv with: QCTHREADS=32 
Creating input file /tmp/qchem23012/Frg2.input
using default PutDataFrgm: nothing
calling putenv with: QCSCRATCH=/tmp/qchem23012/ 
calling putenv with: QCLOCALSCR=/tmp/qchem23012/ 
Spawning Job For Fragment 1
                  Welcome to Q-Chem
     A Quantum Leap Into The Future Of Chemistry


 Q-Chem 5.2, Q-Chem, Inc., Pleasanton, CA (2019)

 License issued to: National Energy Research Scientific Computing Center

 Yihan Shao,  Zhengting Gan,  E. Epifanovsky,  A. T. B. Gilbert,  M. Wormit,  
 J. Kussmann,  A. W. Lange,  A. Behn,  Jia Deng,  Xintian Feng,  D. Ghosh,  
 M. Goldey,  P. R. Horn,  L. D. Jacobson,  I. Kaliman,  T. Kus,  A. Landau,  
 Jie Liu,  E. I. Proynov,  R. M. Richard,  R. P. Steele,  E. J. Sundstrom,  
 H. L. Woodcock III,  P. M. Zimmerman,  D. Zuev,  B. Albrecht,  E. Alguire,  
 S. A. Baeppler,  D. Barton,  Z. Benda,  Y. A. Bernard,  E. J. Berquist,  
 K. B. Bravaya,  H. Burton,  D. Casanova,  Chun-Min Chang,  Yunqing Chen,  
 A. Chien,  K. D. Closser,  M. P. Coons,  S. Coriani,  S. Dasgupta,  
 A. L. Dempwolff,  M. Diedenhofen,  Hainam Do,  R. G. Edgar,  Po-Tung Fang,  
 S. Faraji,  S. Fatehi,  Qingguo Feng,  K. D. Fenk,  J. Fosso-Tande,  
 J. Gayvert,  Qinghui Ge,  A. Ghysels,  G. Gidofalvi,  J. Gomes,  
 J. Gonthier,  A. Gunina,  D. Hait,  M. W. D. Hanson-Heine,  
 P. H. P. Harbach,  A. W. Hauser,  M. F. Herbst,  J. E. Herr,  
 E. G. Hohenstein,  Z. C. Holden,  Kerwin Hui,  B. C. Huynh,  T.-C. Jagau,  
 Hyunjun Ji,  B. Kaduk,  K. Khistyaev,  Jaehoon Kim,  P. Klunzinger,  K. Koh,  
 D. Kosenkov,  L. Koulias,  T. Kowalczyk,  C. M. Krauter,  A. Kunitsa,  
 Ka Un Lao,  A. Laurent,  K. V. Lawler,  Joonho Lee,  D. Lefrancois,  
 S. Lehtola,  D. S. Levine,  Yi-Pei Li,  You-Sheng Lin,  Fenglai Liu,  
 E. Livshits,  A. Luenser,  P. Manohar,  E. Mansoor,  S. F. Manzer,  
 Shan-Ping Mao,  Yuezhi Mao,  N. Mardirossian,  A. V. Marenich,  
 T. Markovich,  L. A. Martinez-Martinez,  S. A. Maurer,  N. J. Mayhall,  
 S. C. McKenzie,  J.-M. Mewes,  P. Morgante,  A. F. Morrison,  
 J. W. Mullinax,  K. Nanda,  T. S. Nguyen-Beck,  R. Olivares-Amaya,  
 J. A. Parkhill,  Zheng Pei,  T. M. Perrine,  F. Plasser,  P. Pokhilko,  
 S. Prager,  A. Prociuk,  E. Ramos,  D. R. Rehn,  F. Rob,  M. Scheurer,  
 M. Schneider,  N. Sergueev,  S. M. Sharada,  S. Sharma,  D. W. Small,  
 T. Stauch,  T. Stein,  Yu-Chuan Su,  A. J. W. Thom,  A. Tkatchenko,  
 T. Tsuchimochi,  N. M. Tubman,  L. Vogt,  M. L. Vidal,  O. Vydrov,  
 M. A. Watson,  J. Wenzel,  M. de Wergifosse,  T. A. Wesolowski,  A. White,  
 J. Witte,  A. Yamada,  Jun Yang,  K. Yao,  S. Yeganeh,  S. R. Yost,  
 Zhi-Qiang You,  A. Zech,  Igor Ying Zhang,  Xing Zhang,  Yan Zhao,  
 Ying Zhu,  B. R. Brooks,  G. K. L. Chan,  C. J. Cramer,  M. S. Gordon,  
 W. J. Hehre,  A. Klamt,  M. W. Schmidt,  C. D. Sherrill,  D. G. Truhlar,  
 A. Aspuru-Guzik,  R. Baer,  A. T. Bell,  N. A. Besley,  Jeng-Da Chai,  
 A. E. DePrince, III,  R. A. DiStasio Jr.,  A. Dreuw,  B. D. Dunietz,  
 T. R. Furlani,  Chao-Ping Hsu,  Yousung Jung,  Jing Kong,  D. S. Lambrecht,  
 WanZhen Liang,  C. Ochsenfeld,  V. A. Rassolov,  L. V. Slipchenko,  
 J. E. Subotnik,  T. Van Voorhis,  J. M. Herbert,  A. I. Krylov,  
 P. M. W. Gill,  M. Head-Gordon

 Contributors to earlier versions of Q-Chem not listed above: 
 R. D. Adamson,  B. Austin,  J. Baker,  G. J. O. Beran,  K. Brandhorst,  
 S. T. Brown,  E. F. C. Byrd,  A. K. Chakraborty,  C.-L. Cheng,  
 Siu Hung Chien,  D. M. Chipman,  D. L. Crittenden,  H. Dachsel,  
 R. J. Doerksen,  A. D. Dutoi,  L. Fusti-Molnar,  W. A. Goddard III,  
 A. Golubeva-Zadorozhnaya,  S. R. Gwaltney,  G. Hawkins,  A. Heyden,  
 S. Hirata,  G. Kedziora,  F. J. Keil,  C. Kelley,  Jihan Kim,  R. A. King,  
 R. Z. Khaliullin,  P. P. Korambath,  W. Kurlancheek,  A. M. Lee,  M. S. Lee,  
 S. V. Levchenko,  Ching Yeh Lin,  D. Liotard,  R. C. Lochan,  I. Lotan,  
 P. E. Maslen,  N. Nair,  D. P. O'Neill,  D. Neuhauser,  E. Neuscamman,  
 C. M. Oana,  R. Olson,  B. Peters,  R. Peverati,  P. A. Pieniazek,  
 Y. M. Rhee,  J. Ritchie,  M. A. Rohrdanz,  E. Rosta,  N. J. Russ,  
 H. F. Schaefer III,  N. E. Schultz,  N. Shenvi,  A. C. Simmonett,  A. Sodt,  
 D. Stuck,  K. S. Thanthiriwatte,  V. Vanovschi,  Tao Wang,  A. Warshel,  
 C. F. Williams,  Q. Wu,  X. Xu,  W. Zhang

 Please cite Q-Chem as follows:
 Y. Shao et al., Mol. Phys. 113, 184-215 (2015)
 DOI: 10.1080/00268976.2014.952696

 Q-Chem 5.2.0 for Intel X86 EM64T Linux

 Parts of Q-Chem use Armadillo 8.300.2 (Tropical Shenanigans).
 http://arma.sourceforge.net/

 Q-Chem begins on Sun Sep 26 16:09:46 2021  

Host: cori01
0

     Scratch files written to /tmp/qchem23012//Frg2//
 May1019 |scratch|qcdevops|jenkins|workspace|build_RNUM -1
Processing $rem in /global/common/cori/software/qchem/5.2/config/preferences:
	 MEM_TOTAL  96000 
NAlpha2: 32
NElect   32
Mult     1
Symmetry turned off for PCM/SM12/SMD calculation

Checking the input file for inconsistencies... 	...done.

--------------------------------------------------------------
User input:
--------------------------------------------------------------
$molecule
-1 1
 6	-2.6379573402	1.4613138055	1.0981978621
 6	-2.7629573402	0.6363138055	-0.1628021379
 8	-1.7549573402	-0.0136861945	-0.5188021379
 8	-3.8529573402	0.6323138055	-0.7778021379
 1	-1.5869573402	1.5613138055	1.3821978621
 1	-3.1559573402	0.9363138055	1.9021978621
 1	-3.0780673402	2.4636638055	0.9905178621
$end
$rem
EDA2		1
METHOD		WB97X-V
BASIS		DEF2-TZVPD
XC_GRID		000099000590
NL_GRID		1
UNRESTRICTED		FALSE
MAX_SCF_CYCLES		200
SYMMETRY		FALSE
SYM_IGNORE		TRUE
BASIS_LIN_DEP_THRESH		6
THRESH		14
SCF_CONVERGENCE		8
SCF_PRINT_FRGM		TRUE
SOLVENT_METHOD		PCM
!required keywords
JOBTYPE		SP
SYM_IGNORE		TRUE
SUBSYSTEM		TRUE
GEN_SCFMAN		TRUE
CHILD_INSTRUCTION		2
SYM_IGNORE		TRUE
SCFMI		0
RI_K 0		
PARI_K 0		
MIN_PARI_K 0		
IARI_K 0		
OCC_RI_K 0		
PURECART		1111
MEM_STATIC		2000
MEM_TOTAL		96000
GUI		0
CHILD_MP		1
CHILD_MP_ORDERS		232
FRZ_RELAX		0
FRZ_RELAX_METHOD		0
EDA_CLS_ELEC		1
EDA_CLS_DISP		0
FRZ_ORTHO_DECOMP		1
EDA2		FALSE
FRGM_METHOD		FALSE
CIS_N_ROOTS  0
LOCAL_CIS    0
CIS_RLX_DNS  1
$end
$pcm
THEORY                  CPCM
METHOD                  SWIG
SOLVER                  INVERSION
RADII                   UFF
HPOINTS                 302
HEAVYPOINTS             302
PRINTLEVEL              0
$end
$solvent
DIELECTRIC              78.390000 ! water
$end
--------------------------------------------------------------
 ----------------------------------------------------------------
             Standard Nuclear Orientation (Angstroms)
    I     Atom           X                Y                Z
 ----------------------------------------------------------------
    1      C      -2.6379573402     1.4613138055     1.0981978621
    2      C      -2.7629573402     0.6363138055    -0.1628021379
    3      O      -1.7549573402    -0.0136861945    -0.5188021379
    4      O      -3.8529573402     0.6323138055    -0.7778021379
    5      H      -1.5869573402     1.5613138055     1.3821978621
    6      H      -3.1559573402     0.9363138055     1.9021978621
    7      H      -3.0780673402     2.4636638055     0.9905178621
 ----------------------------------------------------------------
 Nuclear Repulsion Energy =         112.83364241 hartrees
 There are       16 alpha and       16 beta electrons
 Requested basis set is def2-TZVPD
 There are 69 shells and 181 basis functions

 Total QAlloc Memory Limit  96000 MB
 Mega-Array Size      1956 MB
 MEM_STATIC part      2000 MB
 Discretize the solute cavity surface with Lebedev spheres
	Using 302 Lebedev grid points for each H atom
	Using 302 Lebedev grid points for other atoms
	Atomic van der Waals radii will be scaled by 1.20
 Remove points where switching function is < 1.0e-08
 Keep 1010 surface tesserae and discard 1104 interior tesserae
 Molecular Surface Area = 119.924 Angst**2

                       Distance Matrix (Angstroms)
             C (  1)   C (  2)   O (  3)   O (  4)   H (  5)   H (  6)
   C (  2)  1.512075
   O (  3)  2.360085  1.251119
   O (  4)  2.383871  1.251535  2.210430
   H (  5)  1.093278  2.150727  2.474399  3.265486
   H (  6)  1.091038  2.123364  2.954072  2.785790  1.767141
   H (  7)  1.099999  2.183724  3.188406  2.661062  1.786353  1.780456

 
 A cutoff of  1.0D-14 yielded   2391 shell pairs
 There are     16695 function pairs (     21491 Cartesian)
 Smallest overlap matrix eigenvalue = 1.65E-05

 Scale SEOQF with 1.000000e-01/1.000000e-01/1.000000e-01

 Standard Electronic Orientation quadrupole field applied
 Nucleus-field energy     =     0.0000000088 hartrees
 Guess from superposition of atomic densities
 Warning:  Energy on first SCF cycle will be non-variational
 SAD guess density has 30.625312 electrons

 -----------------------------------------------------------------------
  General SCF calculation program by
  Eric Jon Sundstrom, Paul Horn, Yuezhi Mao, Dmitri Zuev, Alec White,
  David Stuck, Shaama M.S., Shane Yost, Joonho Lee, David Small,
  Daniel Levine, Susi Lehtola, Hugh Burton, Evgeny Epifanovsky
 -----------------------------------------------------------------------
 Exchange:     0.1670 Hartree-Fock + 1.0000 wB97X-V + LR-HF
 Correlation:  1.0000 wB97X-V
 Using Euler-Maclaurin-Lebedev (99,590) quadrature formula
 Nonlocal Correlation:  VV10 with C = 0.0100 and b = 6.00 and scale = 1.00000
 Grid used for NLC:  SG-1 standard quadrature
Energy prior to optimization (guess energy) = -227.766195183241
Begin Timing: Total SCF Calculation
begin iterations for algorithm: DIIS         
the SCF tolerance is set to 1.00e-08
    1    -227.7661951832      1.66e-02     00000 
    2    -225.6096432632      2.53e-02     00000 
    3    -228.5773237523      4.15e-03     00000 
    4    -228.6361229993      1.44e-03     00000 
    5    -228.6424486469      3.73e-04     00000 
    6    -228.6427942588      2.54e-04     00000 
    7    -228.6429790682      4.41e-05     00000 
    8    -228.6429887867      1.35e-05     00000 
    9    -228.6429900294      2.80e-06     00000 
   10    -228.6429901291      6.34e-07     00000 
   11    -228.6429901327      2.55e-07     00000 
   12    -228.6429901334      5.83e-08     00000 
   13    -228.6429901335      1.64e-08     00000 
   14    -228.6429901335      2.72e-09     00000 Convergence criterion met
Timing for Total SCF: 292.00s (wall), 574.21s (cpu)

************** Final PCM Free Energy Summary **************
 G_electrostatic  =      -0.10154680 hartree =     -63.72158172 kcal/mol
 G_cavitation     =       0.00000000 hartree =       0.00000000 kcal/mol
 G_dispersion     =       0.00000000 hartree =       0.00000000 kcal/mol
 G_repulsion      =       0.00000000 hartree =       0.00000000 kcal/mol
 --------------------------------------------------
 Non-electrostatic Free Energy =       0.00000000 hartree =       0.00000000 kcal/mol
 Total                         =      -0.10154680 hartree =     -63.72158172 kcal/mol
 --------------------------------------------------
 SCF Energy (H0 + V/2)                       =    -228.64299013 
 Solute Internal Energy (H0)                 =    -228.54144333 
 Total Free Energy (H0 + V/2 + non-elec)     =    -228.64299013 hartree
                                             = -143475.64178651 kcal/mol
***********************************************************

E_pcm = -0.1015468047
Multipole orders to be included
        2
        3
computing dipole RHS
computing quadrupole RHS
total number of RHS in solve_reponses: 8
RHS batch sizes
        8
Beginning Block Conjugate Gradient Iterations. Batch Number: 0
computing hessian-vector products by finite difference
              1      7.19e-01     00000 Conjugate Gradient Iteration
computing hessian-vector products by finite difference
              2      2.54e-01     00000 Conjugate Gradient Iteration
computing hessian-vector products by finite difference
              3      6.73e-02     00000 Conjugate Gradient Iteration
computing hessian-vector products by finite difference
              4      1.81e-02     00000 Conjugate Gradient Iteration
computing hessian-vector products by finite difference
              5      3.23e-03     00000 Conjugate Gradient Iteration
computing hessian-vector products by finite difference
              6      7.91e-04     00000 Conjugate Gradient Iteration
computing hessian-vector products by finite difference
              7      1.30e-04     00000 Conjugate Gradient Iteration
computing hessian-vector products by finite difference
              8      1.60e-05     00000 Conjugate Gradient Iteration
computing hessian-vector products by finite difference
              9      2.51e-06     00000 Conjugate Gradient Iteration
computing hessian-vector products by finite difference
             10      2.82e-07     00000 Conjugate Gradient Iteration
computing hessian-vector products by finite difference
             11      8.02e-08     00000 Conjugate Gradient Iteration
computing hessian-vector products by finite difference
             12      1.19e-08     00000 Conjugate Gradient Iteration
computing hessian-vector products by finite difference
             13      1.32e-09     00000 CG Converged
batch 0 complete
Done Calculating Responses
TESTING ORTHOGONALIZATION OF MULTIPOLE BASIS
Multipole virts passed orthogonality test
Virts Per Order
        48
        80
 
 --------------------------------------------------------------
 
                    Orbital Energies (a.u.)
 --------------------------------------------------------------
 
 Alpha MOs
 -- Occupied --
-19.1223 -19.1218 -10.3241 -10.2380  -1.1318  -1.0330  -0.8289  -0.5926
 -0.5298  -0.5185  -0.5151  -0.4624  -0.4423  -0.3299  -0.3249  -0.3099
 -- Virtual --
  0.0632   0.0955   0.0959   0.1052   0.1306   0.1405   0.1427   0.1455
  0.1689   0.1912   0.1995   0.2215   0.2321   0.2374   0.2634   0.2696
  0.2982   0.3121   0.3342   0.3466   0.3571   0.3609   0.3745   0.3815
  0.3910   0.4080   0.4258   0.4280   0.4337   0.4613   0.4729   0.4774
  0.4936   0.4987   0.5050   0.5204   0.5598   0.5820   0.5961   0.6124
  0.6235   0.6464   0.6471   0.6571   0.6710   0.6868   0.6990   0.7105
  0.7249   0.7358   0.7821   0.8018   0.8105   0.8202   0.8490   0.8598
  0.8662   0.9781   0.9924   0.9978   1.0087   1.0475   1.0638   1.1212
  1.1653   1.2303   1.2614   1.2839   1.2855   1.3170   1.3551   1.3723
  1.4482   1.5711   1.6075   1.7401   1.8284   1.8704   1.8738   1.9217
  1.9345   1.9528   1.9665   1.9776   2.0187   2.1191   2.1334   2.1877
  2.2125   2.2260   2.3205   2.3529   2.4218   2.4589   2.4873   2.5019
  2.5820   2.5836   2.6322   2.6550   2.7991   2.8147   2.8781   2.9120
  2.9481   3.0237   3.0617   3.1778   3.2181   3.2506   3.2866   3.3100
  3.3455   3.3605   3.4050   3.4117   3.4263   3.5443   3.5853   3.6008
  3.6174   3.6687   3.7080   3.7356   3.7759   3.8723   3.9675   4.0671
  4.1001   4.2177   4.3570   4.5516   4.6453   4.6675   4.8119   4.8407
  4.9881   5.3325   5.3609   5.3696   5.3792   5.5130   5.7238   5.7599
  5.8201   6.0245   6.2578   6.3367   6.3539   6.6329   6.6358   6.7115
  6.7497   6.7604   6.9619   6.9772   7.0502   7.2436   7.3754   7.3860
  7.4205  22.5991  23.7487  44.2192  44.3607
 --------------------------------------------------------------
 
          Ground-State Mulliken Net Atomic Charges

     Atom                 Charge (a.u.)
  ----------------------------------------
      1 C                    -0.397552
      2 C                     0.288734
      3 O                    -0.672522
      4 O                    -0.679230
      5 H                     0.159496
      6 H                     0.130957
      7 H                     0.170116
  ----------------------------------------
  Sum of atomic charges =    -1.000000

 -----------------------------------------------------------------
                    Cartesian Multipole Moments
 -----------------------------------------------------------------
    Charge (ESU x 10^10)
                -4.8032
    Dipole Moment (Debye)
         X      13.6069      Y      -0.6116      Z       4.4802
       Tot      14.3385
    Quadrupole Moments (Debye-Ang)
        XX     -73.7237     XY       4.7142     YY     -26.5614
        XZ     -13.8761     YZ       0.8407     ZZ     -29.8451
    Octopole Moments (Debye-Ang^2)
       XXX     401.2521    XXY     -43.5839    XYY      74.7045
       YYY     -56.1744    XXZ      48.7007    XYZ      -4.3669
       YYZ       0.6332    XZZ      83.2063    YZZ     -20.8489
       ZZZ       4.2496
    Hexadecapole Moments (Debye-Ang^3)
      XXXX   -2066.8039   XXXY     281.3913   XXYY    -262.6326
      XYYY     165.1657   YYYY    -166.9240   XXXZ    -191.5638
      XXYZ      10.4162   XYYZ      -7.0480   YYYZ     -31.1544
      XXZZ    -279.8190   XYZZ      62.8375   YYZZ     -54.9569
      XZZZ     -24.9951   YZZZ     -32.6538   ZZZZ    -142.9987
 -----------------------------------------------------------------
Archival summary:
1\1\nid00546\SP\ProcedureUnspecified\BasisUnspecified\223(1-,1)\meili\SunSep2617:33:282021SunSep2617:33:282021\0\\#,ProcedureUnspecified,BasisUnspecified,\\-1,1\C\O,1,1.25112\O,1,1.25154,2,124.07\C,1,1.51208,2,117.011,3,179.438,0\H,4,1.09104,1,108.226,2,-103.682,0\H,4,1.09328,1,110.244,2,14.2338,0\H,4,1.1,1,112.486,2,136.207,0\\\@

 Total job time:  5023.10s(wall), 9885.95s(cpu) 
 Sun Sep 26 17:33:28 2021

        *************************************************************
        *                                                           *
        *  Thank you very much for using Q-Chem.  Have a nice day.  *
        *                                                           *
        *************************************************************


Done Job For Fragment 1
calling putenv with: QCSCRATCH=/global/cscratch1/sd/meili 
calling putenv with: QCLOCALSCR=/tmp 
calling putenv with: QCTHREADS=32 
Doing General SCFMI
 Exchange:     0.1670 Hartree-Fock + 1.0000 wB97X-V + LR-HF
 Correlation:  1.0000 wB97X-V
 Using Euler-Maclaurin-Lebedev (99,590) quadrature formula
 Nonlocal Correlation:  VV10 with C = 0.0100 and b = 6.00 and scale = 1.00000
 Grid used for NLC:  SG-1 standard quadrature
performing fock build before subrot guess so that all methods have access
Printing subrot_rss_gen Method Specification:
Occupied Subspace Method is 0
Virtual Subspace Method is 0
Energy of the unrelaxed supersystem initial determinant -473.759287345260
performing fock build before subrot guess so that all methods have access
Printing subrot_rss_gen Method Specification:
Occupied Subspace Method is 0
Virtual Subspace Method is 0
Energy of the unrelaxed supersystem initial determinant w/ solvent -473.829232568202
write pseudocanon occs and virts to disk
write pseudocanon orbital energies to disk
Tolerance of ortho_decomp_scf: 1.00e-06
GDM subspace size: 20
Beginning the Orthogonal Decomposition of the Initial Supersystem Wavefunction
    1    -473.5672593246      9.48e-02     ortho_decomp Preconditoned Steepest Descent
    2    -473.5810847908      2.59e-03     ortho_decomp BFGS Step
    3    -473.5811414252      2.35e-04     ortho_decomp BFGS Step
    4    -473.5811415629      1.09e-05     ortho_decomp BFGS Step
    5    -473.5811415635      3.89e-07     ortho_decomp 00000 Convergence criterion met
 Hartree-Fock
 Hartree-Fock
 Hartree-Fock
Doing General SCFMI
 Exchange:     0.1670 Hartree-Fock + 1.0000 wB97X-V + LR-HF
 Correlation:  1.0000 wB97X-V
 Using Euler-Maclaurin-Lebedev (99,590) quadrature formula
 Nonlocal Correlation:  VV10 with C = 0.0100 and b = 6.00 and scale = 1.00000
 Grid used for NLC:  SG-1 standard quadrature
performing fock build at end of subrot_r(subrot) constructor so that all methods have access
<S^2> of initial wavefunction before polarization iterations 0.0000000000
Beginning iterations for the determination of the polarized wavefunction
Energy prior to optimization (guess energy) = -473.829232568202
Begin Timing: Total SCF Calculation
begin iterations for algorithm: DIIS         
the SCF tolerance is set to 1.00e-08
    1    -473.8292325682      2.98e-04     00000 
    2    -473.8339708073      1.03e-04     00000 
    3    -473.8344157038      6.71e-05     00000 
    4    -473.8345528707      2.21e-05     00000 
    5    -473.8345766184      9.10e-06     00000 
    6    -473.8345819864      5.34e-06     00000 
    7    -473.8345832593      2.19e-06     00000 
    8    -473.8345835168      1.01e-06     00000 
    9    -473.8345835689      3.68e-07     00000 
   10    -473.8345835733      1.31e-07     00000 
   11    -473.8345835743      4.35e-08     00000 
   12    -473.8345835744      2.22e-08     00000 
   13    -473.8345835744      8.43e-09     00000 Convergence criterion met
write pseudocanon occs and virts to disk
write pseudocanon orbital energies to disk
Timing for Total SCF: 2917.00s (wall), 5801.44s (cpu)
<S^2> of polarized wavefunction after polarization iterations 0.0000000000
relaxing scfmi constraint to allow all rotations in the entire AO span
Doing General SCFMI
 Exchange:     0.1670 Hartree-Fock + 1.0000 wB97X-V + LR-HF
 Correlation:  1.0000 wB97X-V
 Using Euler-Maclaurin-Lebedev (99,590) quadrature formula
 Nonlocal Correlation:  VV10 with C = 0.0100 and b = 6.00 and scale = 1.00000
 Grid used for NLC:  SG-1 standard quadrature
performing fock build at end of subrot_r(subrot) constructor so that all methods have access
<S^2> of polarized wavefunction before ct-allowed iterations 0.0000000000
Beginning iterations for the determination of the CT-Allowed wavefunction
Energy prior to optimization (guess energy) = -473.834583574446
Begin Timing: Total SCF Calculation
begin iterations for algorithm: DIIS         
the SCF tolerance is set to 1.00e-08
    1    -473.8345835744      2.46e-04     00000 
    2    -473.8418690627      4.44e-05     00000 
    3    -473.8422141531      2.67e-05     00000 
    4    -473.8422624499      1.02e-05     00000 
    5    -473.8422730472      3.33e-06     00000 
    6    -473.8422740510      1.02e-06     00000 
    7    -473.8422742107      4.35e-07     00000 
    8    -473.8422742357      9.36e-08     00000 
    9    -473.8422742378      4.24e-08     00000 
   10    -473.8422742381      1.52e-08     00000 
   11    -473.8422742381      4.32e-09     00000 Convergence criterion met
write pseudocanon occs and virts to disk
write pseudocanon orbital energies to disk
Timing for Total SCF: 2474.00s (wall), 4920.18s (cpu)
<S^2> of ct_allowed wavefunction after ct-allowed iterations 0.0000000000

================================
        Results of EDA2         
================================
Basic EDA Quantities
--------------------
Fragment Energies (Ha):
1 -245.1788781434
2 -228.6429901335
--------------------
  E_prp (kJ/mol) = 0.0000
  E_sol (kJ/mol) = 296.9200
  E_frz (kJ/mol) = -316.2551
  E_pol (kJ/mol) = -14.0492
  E_vct (kJ/mol) = -20.1921
  E_int (kJ/mol) = -53.5765
--------------------


Initial Wavefunction Decomposition
--------------------
  --------------------
  Orthogonal Fragment Subspace Decomposition:
  --------------------
     E_elec   (ELEC)   (kJ/mol) = -425.1013
     E_pauli  (PAULI)  (kJ/mol) = 125.8539
     E_disp   (DISP)   (kJ/mol) = -17.0077
     --------------------
     Terms summing to E_pauli:
     --------------------
        E_kep_pauli       (kJ/mol) = 151.4722
        E_disp_free_pauli (kJ/mol) = -25.6182
  --------------------
  Classical Frozen Decomposition:
  --------------------
     E_cls_elec  (CLS ELEC)  (kJ/mol) = -382.3218
     E_cls_pauli (CLS PAULI) (kJ/mol) = 66.0666
    [E_mod_pauli (MOD PAULI) (kJ/mol) = 83.0744 (CLS PAULI - DISP from orthogonal decomposition) ]
  --------------------
--------------------

Simplified EDA Summary (kJ/mol)
--------------------
 PREPARATION     0.0000
 SOLVATION       296.9200
 FROZEN          -299.2474      (does not include dispersion)
[PAULI           125.8539]     (if this is negligible, then frozen describes electrostatics)
 DISPERSION      -17.0077
 POLARIZATION    -14.0492
 CHARGE TRANSFER -20.1921
 TOTAL           -53.5765     (PRP + SOL + FRZ + DISP + POL + CT)
--------------------
 
 --------------------------------------------------------------
 
                    Orbital Energies (a.u.)
 --------------------------------------------------------------
 
 Alpha MOs
 -- Occupied --
-19.1435 -19.1338 -14.4721 -14.4651 -14.4426 -10.4330 -10.3393 -10.3267
-10.2468  -1.1864  -1.1492  -1.0699  -1.0549  -1.0480  -0.8694  -0.8388
 -0.7816  -0.7401  -0.6960  -0.6355  -0.6331  -0.6064  -0.6048  -0.5833
 -0.5431  -0.5404  -0.5314  -0.5301  -0.5270  -0.4734  -0.4548  -0.4105
 -0.3893  -0.3463  -0.3423  -0.3265
 -- Virtual --
  0.0505   0.0670   0.0814   0.0831   0.0905   0.1000   0.1031   0.1137
  0.1150   0.1255   0.1337   0.1345   0.1470   0.1524   0.1608   0.1639
  0.1711   0.1786   0.1829   0.1874   0.1931   0.2025   0.2112   0.2210
  0.2242   0.2284   0.2341   0.2396   0.2469   0.2474   0.2580   0.2639
  0.2671   0.2775   0.2844   0.2898   0.2962   0.2996   0.3044   0.3049
  0.3134   0.3204   0.3235   0.3290   0.3361   0.3387   0.3428   0.3477
  0.3530   0.3559   0.3670   0.3721   0.3729   0.3855   0.3859   0.3941
  0.4036   0.4090   0.4102   0.4130   0.4179   0.4231   0.4274   0.4294
  0.4376   0.4411   0.4475   0.4544   0.4646   0.4666   0.4688   0.4699
  0.4782   0.4844   0.4876   0.4955   0.4994   0.5026   0.5139   0.5158
  0.5223   0.5293   0.5305   0.5466   0.5505   0.5582   0.5608   0.5668
  0.5693   0.5743   0.5802   0.5945   0.6017   0.6082   0.6152   0.6175
  0.6226   0.6358   0.6373   0.6531   0.6613   0.6647   0.6694   0.6755
  0.6764   0.6860   0.6976   0.7030   0.7083   0.7164   0.7231   0.7287
  0.7397   0.7494   0.7525   0.7575   0.7663   0.7763   0.7845   0.7894
  0.7947   0.8091   0.8192   0.8231   0.8313   0.8329   0.8376   0.8466
  0.8502   0.8577   0.8639   0.8656   0.8871   0.8953   0.9102   0.9158
  0.9275   0.9366   0.9430   0.9463   0.9746   0.9848   1.0133   1.0151
  1.0260   1.0367   1.0524   1.0671   1.0709   1.0876   1.0921   1.1058
  1.1126   1.1235   1.1386   1.1490   1.1559   1.1588   1.1741   1.1940
  1.2193   1.2377   1.2436   1.2503   1.2716   1.2872   1.3025   1.3065
  1.3404   1.3508   1.3639   1.3728   1.3818   1.3952   1.4052   1.4335
  1.4545   1.4744   1.4809   1.5145   1.5446   1.5886   1.5956   1.6130
  1.6374   1.6490   1.7043   1.7218   1.7456   1.7571   1.7716   1.8035
  1.8511   1.8569   1.8728   1.8741   1.8890   1.8955   1.9181   1.9314
  1.9400   1.9450   1.9578   1.9687   1.9698   1.9836   1.9969   2.0091
  2.0132   2.0334   2.0412   2.0780   2.0853   2.1024   2.1215   2.1326
  2.1674   2.1862   2.2114   2.2226   2.2299   2.2491   2.2508   2.2801
  2.2915   2.3060   2.3270   2.3413   2.3679   2.4079   2.4274   2.4301
  2.4548   2.4620   2.4968   2.5064   2.5186   2.5325   2.5552   2.5615
  2.5780   2.5826   2.6135   2.6341   2.6359   2.6488   2.6599   2.6656
  2.6676   2.7081   2.7203   2.7526   2.7820   2.8136   2.8256   2.8451
  2.8497   2.8876   2.8940   2.9082   2.9333   2.9369   2.9538   2.9682
  2.9761   3.0620   3.0790   3.1009   3.1332   3.1390   3.1732   3.1909
  3.2004   3.2144   3.2379   3.2401   3.2561   3.2750   3.2819   3.2881
  3.3138   3.3183   3.3324   3.3528   3.3690   3.3801   3.3883   3.4091
  3.4122   3.4235   3.4267   3.4420   3.4657   3.4782   3.4984   3.5410
  3.5675   3.5899   3.6132   3.6190   3.6408   3.6625   3.6764   3.6895
  3.7136   3.7262   3.7343   3.7781   3.7796   3.8213   3.8762   3.8774
  3.9095   3.9542   3.9903   4.0421   4.0932   4.1090   4.1201   4.1358
  4.2164   4.2341   4.2676   4.3103   4.3453   4.3644   4.3780   4.4747
  4.5059   4.5636   4.5713   4.6186   4.6574   4.6653   4.6854   4.8227
  4.8374   4.8723   4.8889   4.8990   4.9516   4.9969   5.0097   5.0203
  5.0594   5.1207   5.1324   5.1504   5.1672   5.1976   5.2347   5.2811
  5.3305   5.3517   5.3592   5.3689   5.3831   5.4029   5.4268   5.4489
  5.4688   5.4894   5.5049   5.5397   5.5802   5.6487   5.6779   5.7157
  5.7704   5.7752   5.8057   5.8239   5.9133   6.0267   6.1621   6.1685
  6.2583   6.3407   6.3680   6.3731   6.4742   6.6411   6.6550   6.7435
  6.7590   6.7906   6.9694   7.0186   7.0507   7.2549   7.3773   7.4082
  7.4538  22.6196  22.6274  23.6693  23.7606  32.3754  32.5223  32.8570
 44.3607  44.4019
 --------------------------------------------------------------
 
          Ground-State Mulliken Net Atomic Charges

     Atom                 Charge (a.u.)
  ----------------------------------------
      1 C                    -0.771260
      2 C                     0.558881
      3 N                    -0.123669
      4 N                    -0.073779
      5 N                    -0.185424
      6 H                     0.198589
      7 H                     0.077528
      8 H                     0.225845
      9 H                     0.101403
     10 H                     0.185515
     11 H                     0.261916
     12 H                     0.296792
     13 H                     0.252993
     14 C                    -0.475445
     15 C                     0.381525
     16 O                    -0.737775
     17 O                    -0.669805
     18 H                     0.164040
     19 H                     0.142107
     20 H                     0.190022
  ----------------------------------------
  Sum of atomic charges =     0.000000

 -----------------------------------------------------------------
                    Cartesian Multipole Moments
 -----------------------------------------------------------------
    Charge (ESU x 10^10)
                 0.0000
    Dipole Moment (Debye)
         X      20.9498      Y      -2.4801      Z       4.4085
       Tot      21.5517
    Quadrupole Moments (Debye-Ang)
        XX     -70.4851     XY      -1.5797     YY     -44.8457
        XZ     -16.6973     YZ      -4.3687     ZZ     -58.0481
    Octopole Moments (Debye-Ang^2)
       XXX     291.1271    XXY     -44.7428    XYY      27.7835
       YYY     -15.8352    XXZ      33.6233    XYZ     -11.6568
       YYZ       3.1610    XZZ      15.9540    YZZ      -5.1480
       ZZZ      -2.0972
    Hexadecapole Moments (Debye-Ang^3)
      XXXX   -2816.4517   XXXY     343.5044   XXYY    -434.3396
      XYYY     286.7357   YYYY    -334.8630   XXXZ    -224.5932
      XXYZ       6.1853   XYYZ      -1.2755   YYYZ     -30.1111
      XXZZ    -472.1703   XYZZ     113.7584   YYZZ     -94.4051
      XZZZ     -20.6903   YZZZ     -13.5213   ZZZZ    -207.1809
 -----------------------------------------------------------------
Archival summary:
1\1\nid00546\SP\ProcedureUnspecified\BasisUnspecified\23411\meili\SunSep2620:01:202021SunSep2620:01:202021\0\\#,ProcedureUnspecified,BasisUnspecified,\\0,1\O\C,1,1.25112\O,2,1.25154,1,124.07\C,2,1.51208,1,117.011,3,179.438,0\H,4,1.09104,2,108.226,1,-103.682,0\H,4,1.09328,2,110.244,1,14.2338,0\H,4,1.1,2,112.486,1,136.207,0\H,1,1.77923,2,122.478,3,157.733,0\N,8,1.02322,1,159.912,2,-132.679,0\H,9,1.007,8,119.985,1,74.5594,0\C,9,1.31577,8,118.215,1,-91.1472,0\N,11,1.32066,9,119.434,8,-21.0484,0\H,12,1.00523,11,120.509,9,178.179,0\H,12,1.0137,11,119.228,9,-1.69804,0\N,11,1.32406,9,119.831,8,160.798,0\H,15,1.01501,11,117.61,9,-2.30854,0\C,15,1.46931,11,124.681,9,177.392,0\H,17,1.0908,15,108.778,11,143.795,0\H,17,1.09148,15,112.168,11,25.5886,0\H,17,1.1,15,109.797,11,-97.1654,0\\\@

 Total job time:  27367.72s(wall), 17657.78s(cpu) 
 Sun Sep 26 20:01:22 2021

        *************************************************************
        *                                                           *
        *  Thank you very much for using Q-Chem.  Have a nice day.  *
        *                                                           *
        *************************************************************


