
Running Job 1 of 1 SSI-042PHE-092TYR-1_SMD_TZVPD.in
qchem SSI-042PHE-092TYR-1_SMD_TZVPD.in_12976.0 /tmp/qchem12976/ 0
/global/common/cori/software/qchem/5.2/exe/qcprog.exe_s SSI-042PHE-092TYR-1_SMD_TZVPD.in_12976.0 /tmp/qchem12976/
                  Welcome to Q-Chem
     A Quantum Leap Into The Future Of Chemistry


 Q-Chem 5.2, Q-Chem, Inc., Pleasanton, CA (2019)

 License issued to: National Energy Research Scientific Computing Center

 Yihan Shao,  Zhengting Gan,  E. Epifanovsky,  A. T. B. Gilbert,  M. Wormit,  
 J. Kussmann,  A. W. Lange,  A. Behn,  Jia Deng,  Xintian Feng,  D. Ghosh,  
 M. Goldey,  P. R. Horn,  L. D. Jacobson,  I. Kaliman,  T. Kus,  A. Landau,  
 Jie Liu,  E. I. Proynov,  R. M. Richard,  R. P. Steele,  E. J. Sundstrom,  
 H. L. Woodcock III,  P. M. Zimmerman,  D. Zuev,  B. Albrecht,  E. Alguire,  
 S. A. Baeppler,  D. Barton,  Z. Benda,  Y. A. Bernard,  E. J. Berquist,  
 K. B. Bravaya,  H. Burton,  D. Casanova,  Chun-Min Chang,  Yunqing Chen,  
 A. Chien,  K. D. Closser,  M. P. Coons,  S. Coriani,  S. Dasgupta,  
 A. L. Dempwolff,  M. Diedenhofen,  Hainam Do,  R. G. Edgar,  Po-Tung Fang,  
 S. Faraji,  S. Fatehi,  Qingguo Feng,  K. D. Fenk,  J. Fosso-Tande,  
 J. Gayvert,  Qinghui Ge,  A. Ghysels,  G. Gidofalvi,  J. Gomes,  
 J. Gonthier,  A. Gunina,  D. Hait,  M. W. D. Hanson-Heine,  
 P. H. P. Harbach,  A. W. Hauser,  M. F. Herbst,  J. E. Herr,  
 E. G. Hohenstein,  Z. C. Holden,  Kerwin Hui,  B. C. Huynh,  T.-C. Jagau,  
 Hyunjun Ji,  B. Kaduk,  K. Khistyaev,  Jaehoon Kim,  P. Klunzinger,  K. Koh,  
 D. Kosenkov,  L. Koulias,  T. Kowalczyk,  C. M. Krauter,  A. Kunitsa,  
 Ka Un Lao,  A. Laurent,  K. V. Lawler,  Joonho Lee,  D. Lefrancois,  
 S. Lehtola,  D. S. Levine,  Yi-Pei Li,  You-Sheng Lin,  Fenglai Liu,  
 E. Livshits,  A. Luenser,  P. Manohar,  E. Mansoor,  S. F. Manzer,  
 Shan-Ping Mao,  Yuezhi Mao,  N. Mardirossian,  A. V. Marenich,  
 T. Markovich,  L. A. Martinez-Martinez,  S. A. Maurer,  N. J. Mayhall,  
 S. C. McKenzie,  J.-M. Mewes,  P. Morgante,  A. F. Morrison,  
 J. W. Mullinax,  K. Nanda,  T. S. Nguyen-Beck,  R. Olivares-Amaya,  
 J. A. Parkhill,  Zheng Pei,  T. M. Perrine,  F. Plasser,  P. Pokhilko,  
 S. Prager,  A. Prociuk,  E. Ramos,  D. R. Rehn,  F. Rob,  M. Scheurer,  
 M. Schneider,  N. Sergueev,  S. M. Sharada,  S. Sharma,  D. W. Small,  
 T. Stauch,  T. Stein,  Yu-Chuan Su,  A. J. W. Thom,  A. Tkatchenko,  
 T. Tsuchimochi,  N. M. Tubman,  L. Vogt,  M. L. Vidal,  O. Vydrov,  
 M. A. Watson,  J. Wenzel,  M. de Wergifosse,  T. A. Wesolowski,  A. White,  
 J. Witte,  A. Yamada,  Jun Yang,  K. Yao,  S. Yeganeh,  S. R. Yost,  
 Zhi-Qiang You,  A. Zech,  Igor Ying Zhang,  Xing Zhang,  Yan Zhao,  
 Ying Zhu,  B. R. Brooks,  G. K. L. Chan,  C. J. Cramer,  M. S. Gordon,  
 W. J. Hehre,  A. Klamt,  M. W. Schmidt,  C. D. Sherrill,  D. G. Truhlar,  
 A. Aspuru-Guzik,  R. Baer,  A. T. Bell,  N. A. Besley,  Jeng-Da Chai,  
 A. E. DePrince, III,  R. A. DiStasio Jr.,  A. Dreuw,  B. D. Dunietz,  
 T. R. Furlani,  Chao-Ping Hsu,  Yousung Jung,  Jing Kong,  D. S. Lambrecht,  
 WanZhen Liang,  C. Ochsenfeld,  V. A. Rassolov,  L. V. Slipchenko,  
 J. E. Subotnik,  T. Van Voorhis,  J. M. Herbert,  A. I. Krylov,  
 P. M. W. Gill,  M. Head-Gordon

 Contributors to earlier versions of Q-Chem not listed above: 
 R. D. Adamson,  B. Austin,  J. Baker,  G. J. O. Beran,  K. Brandhorst,  
 S. T. Brown,  E. F. C. Byrd,  A. K. Chakraborty,  C.-L. Cheng,  
 Siu Hung Chien,  D. M. Chipman,  D. L. Crittenden,  H. Dachsel,  
 R. J. Doerksen,  A. D. Dutoi,  L. Fusti-Molnar,  W. A. Goddard III,  
 A. Golubeva-Zadorozhnaya,  S. R. Gwaltney,  G. Hawkins,  A. Heyden,  
 S. Hirata,  G. Kedziora,  F. J. Keil,  C. Kelley,  Jihan Kim,  R. A. King,  
 R. Z. Khaliullin,  P. P. Korambath,  W. Kurlancheek,  A. M. Lee,  M. S. Lee,  
 S. V. Levchenko,  Ching Yeh Lin,  D. Liotard,  R. C. Lochan,  I. Lotan,  
 P. E. Maslen,  N. Nair,  D. P. O'Neill,  D. Neuhauser,  E. Neuscamman,  
 C. M. Oana,  R. Olson,  B. Peters,  R. Peverati,  P. A. Pieniazek,  
 Y. M. Rhee,  J. Ritchie,  M. A. Rohrdanz,  E. Rosta,  N. J. Russ,  
 H. F. Schaefer III,  N. E. Schultz,  N. Shenvi,  A. C. Simmonett,  A. Sodt,  
 D. Stuck,  K. S. Thanthiriwatte,  V. Vanovschi,  Tao Wang,  A. Warshel,  
 C. F. Williams,  Q. Wu,  X. Xu,  W. Zhang

 Please cite Q-Chem as follows:
 Y. Shao et al., Mol. Phys. 113, 184-215 (2015)
 DOI: 10.1080/00268976.2014.952696

 Q-Chem 5.2.0 for Intel X86 EM64T Linux

 Parts of Q-Chem use Armadillo 8.300.2 (Tropical Shenanigans).
 http://arma.sourceforge.net/

 Q-Chem begins on Sun Sep 26 07:22:36 2021  

Host: cori01
0

     Scratch files written to /tmp/qchem12976//
 May1019 |scratch|qcdevops|jenkins|workspace|build_RNUM -1
Processing $rem in /global/common/cori/software/qchem/5.2/config/preferences:
	 MEM_TOTAL  96000 
NAlpha2: 108
NElect   108
Mult     1
Symmetry turned off for PCM/SM12/SMD calculation

 Q-Chem warning in module libgen/rem_setup.C, line 2803:

 Neither GIA nor STOLL is specified by user. Use STOLL as the default


Checking the input file for inconsistencies... 	...done.

--------------------------------------------------------------
User input:
--------------------------------------------------------------
$comment
SSI-042PHE-092TYR-1.pdb
$end

$molecule
0 1
--
0 1
C   -0.911775121594   -5.223878827698   -1.469145635049
C    0.519224878406   -1.363878827698   -0.416145635049
C    1.398224878406   -2.280878827698   -0.996145635049
C   -0.801775121594   -1.707878827698   -0.217145635049
C    0.923224878406   -3.549878827698   -1.353145635049
C   -1.261775121594   -2.949878827698   -0.569145635049
C   -0.408775121594   -3.872878827698   -1.140145635049
H    0.872224878406   -0.381878827698   -0.129145635049
H    2.435224878406   -2.017878827698   -1.156145635049
H   -1.478775121594   -0.990878827698    0.225854364951
H    1.596224878406   -4.273878827698   -1.791145635049
H   -2.296775121594   -3.201878827698   -0.386145635049
H   -0.506775121594   -5.524878827698   -2.431145635049
H   -1.996775121594   -5.198878827698   -1.568145635049
H   -0.648736121594   -5.966748827698   -0.701705635049
--
0 1
C   -1.232775121594    1.888121172302   -1.772145635049
C   -0.529775121594    2.228121172302   -0.484145635049
C   -1.233775121594    2.222121172302    0.709854364951
C    0.808224878406    2.623121172302   -0.459145635049
C   -0.607775121594    2.547121172302    1.901854364951
C    1.422224878406    2.962121172302    0.755854364951
C    0.705224878406    2.907121172302    1.927854364951
O    1.241224878406    3.222121172302    3.152854364951
H   -1.687775121594    0.904121172302   -1.651145635049
H   -0.507775121594    1.823121172302   -2.583145635049
H   -2.285775121594    1.964121172302    0.714854364951
H    1.378224878406    2.664121172302   -1.377145635049
H   -1.168775121594    2.625121172302    2.808854364951
H    2.457224878406    3.265121172302    0.777854364951
H    0.585224878406    3.076121172302    3.864854364951
H   -2.016241121594    2.620551172302   -2.016525635049
$end

$rem
JOBTYPE			EDA
EDA2			1
method			wB97X-V
BASIS			def2-TZVPD
XC_GRID			000099000590
NL_GRID			1
UNRESTRICTED		FALSE
MAX_SCF_CYCLES		200
SYMMETRY		FALSE
SYM_IGNORE		TRUE
MEM_STATIC		2000
BASIS_LIN_DEP_THRESH 	6
THRESH 			14
SCF_CONVERGENCE 	8
SCF_PRINT_FRGM 		TRUE
SOLVENT_METHOD          SMD
$end

$SMX
SOLVENT			WATER
$END
--------------------------------------------------------------
 ----------------------------------------------------------------
             Standard Nuclear Orientation (Angstroms)
    I     Atom           X                Y                Z
 ----------------------------------------------------------------
    1      C      -0.9117751216    -5.2238788277    -1.4691456350
    2      C       0.5192248784    -1.3638788277    -0.4161456350
    3      C       1.3982248784    -2.2808788277    -0.9961456350
    4      C      -0.8017751216    -1.7078788277    -0.2171456350
    5      C       0.9232248784    -3.5498788277    -1.3531456350
    6      C      -1.2617751216    -2.9498788277    -0.5691456350
    7      C      -0.4087751216    -3.8728788277    -1.1401456350
    8      H       0.8722248784    -0.3818788277    -0.1291456350
    9      H       2.4352248784    -2.0178788277    -1.1561456350
   10      H      -1.4787751216    -0.9908788277     0.2258543650
   11      H       1.5962248784    -4.2738788277    -1.7911456350
   12      H      -2.2967751216    -3.2018788277    -0.3861456350
   13      H      -0.5067751216    -5.5248788277    -2.4311456350
   14      H      -1.9967751216    -5.1988788277    -1.5681456350
   15      H      -0.6487361216    -5.9667488277    -0.7017056350
   16      C      -1.2327751216     1.8881211723    -1.7721456350
   17      C      -0.5297751216     2.2281211723    -0.4841456350
   18      C      -1.2337751216     2.2221211723     0.7098543650
   19      C       0.8082248784     2.6231211723    -0.4591456350
   20      C      -0.6077751216     2.5471211723     1.9018543650
   21      C       1.4222248784     2.9621211723     0.7558543650
   22      C       0.7052248784     2.9071211723     1.9278543650
   23      O       1.2412248784     3.2221211723     3.1528543650
   24      H      -1.6877751216     0.9041211723    -1.6511456350
   25      H      -0.5077751216     1.8231211723    -2.5831456350
   26      H      -2.2857751216     1.9641211723     0.7148543650
   27      H       1.3782248784     2.6641211723    -1.3771456350
   28      H      -1.1687751216     2.6251211723     2.8088543650
   29      H       2.4572248784     3.2651211723     0.7778543650
   30      H       0.5852248784     3.0761211723     3.8648543650
   31      H      -2.0162411216     2.6205511723    -2.0165256350
 ----------------------------------------------------------------
 Nuclear Repulsion Energy =         877.30441814 hartrees
 There are       54 alpha and       54 beta electrons
 Requested basis set is def2-TZVPD
 There are 276 shells and 702 basis functions

 Total QAlloc Memory Limit  96000 MB
 Mega-Array Size      1956 MB
 MEM_STATIC part      2000 MB
 
 Citation of the SMD model:
 Marenich, A.V.; Cramer, C.J.; Truhlar, D.G.
 J. Phys. Chem. B 2009, 113, 6378-6396.
 iSolventCode=           1
 Solvent: water                                                           
 
 vradii
            1           2           3           4           5           6
    1   1.8500000   1.8500000   1.8500000   1.8500000   1.8500000   1.8500000
            7           8           9          10          11          12
    1   1.8500000   1.2000000   1.2000000   1.2000000   1.2000000   1.2000000
           13          14          15          16          17          18
    1   1.2000000   1.2000000   1.2000000   1.8500000   1.8500000   1.8500000
           19          20          21          22          23          24
    1   1.8500000   1.8500000   1.8500000   1.8500000   1.5200000   1.2000000
           25          26          27          28          29          30
    1   1.2000000   1.2000000   1.2000000   1.2000000   1.2000000   1.2000000
           31
    1   1.2000000
 Changing PCM_VDW_RADII to SMD_RADIUS
 Discretize the solute cavity surface with Lebedev spheres
	Using 110 Lebedev grid points for each H atom
	Using 194 Lebedev grid points for other atoms
	Atomic van der Waals radii will be scaled by 1.20
 Remove points where switching function is < 1.0e-08
 Keep 2244 surface tesserae and discard 2426 interior tesserae
 Molecular Surface Area = 270.678 Angst**2
 A cutoff of  1.0D-14 yielded  31729 shell pairs
 There are    205223 function pairs (    258947 Cartesian)
 Smallest overlap matrix eigenvalue = 4.14E-07
 Linear dependence detected in AO basis
 Tighter screening thresholds may be required for diffuse basis sets
 Use S2THRESH > 14 and THRESH = 14 in case of SCF convergence issues
 Number of orthogonalized atomic orbitals = 699
 Maximum deviation from orthogonality = 1.799E-10

 Scale SEOQF with 1.000000e-01/1.000000e-02/1.000000e-01

 Standard Electronic Orientation quadrupole field applied
 Nucleus-field energy     =    -0.0000000146 hartrees

 -----------------------------------------------------------------------
  General SCF calculation program by
  Eric Jon Sundstrom, Paul Horn, Yuezhi Mao, Dmitri Zuev, Alec White,
  David Stuck, Shaama M.S., Shane Yost, Joonho Lee, David Small,
  Daniel Levine, Susi Lehtola, Hugh Burton, Evgeny Epifanovsky
 -----------------------------------------------------------------------
================================================================
                 ALMO-EDA with the EDA2 driver                  
================================================================
 The second-generation ALMO-EDA (for DFT):                      
 P. R. Horn, Y. Mao and M. Head-Gordon, PCCP, 18, 23067 (2016)  
 Decomposition of the frozen energy:                            
 P. R. Horn, Y. Mao and M. Head-Gordon, JCP, 144, 114107 (2016) 
 FERF model for polarization:                                   
 P. R. Horn and M. Head-Gordon, JCP, 143, 114111 (2015)         
Using eda2 option set 1
Option set summary: Frozen orbital wavefunction, initial wavefunction decomposition, and nDQ polarization.
--------------------------------
Printing EDA Options
--------------------------------
eda_child_super_basis      0
fragmo_guess_mode          0
child_mp                   1
child_mp_orders            232
cls_elec                   1
cls_disp                   0
scfmi_mode                 1
scfmi_occs                 0
scfmi_virts                0
frz_relax                  0
frz_relax_method           0
dc_pen_start               0
dc_pen_conv                0
dc_pen_increment           0
dc_pen_steps               0
dc_pen_thresh_factor       0
dc_pen_pre_newton_thresh   0
frz_ortho_decomp           1
frz_ortho_decomp_conv      6
frgm_method                2
scfmi_freeze_ss            0
separate_rehyb             0
plot_diff_den              0
eda_nocv                   0
eda_vct_relax              1
disp_free_x                0
disp_free_c                0
eda_bsse                   0
eda_pct_a                  0
eda_covp                   0
--------------------------------
Attempting to make child job directory: /tmp/qchem12976//Frg1/
Attempting to make child job directory: /tmp/qchem12976//Frg2/
Creating input file /tmp/qchem12976/Frg1.input
using default PutDataFrgm: nothing
calling putenv with: QCSCRATCH=/tmp/qchem12976/ 
calling putenv with: QCLOCALSCR=/tmp/qchem12976/ 
Spawning Job For Fragment 0
                  Welcome to Q-Chem
     A Quantum Leap Into The Future Of Chemistry


 Q-Chem 5.2, Q-Chem, Inc., Pleasanton, CA (2019)

 License issued to: National Energy Research Scientific Computing Center

 Yihan Shao,  Zhengting Gan,  E. Epifanovsky,  A. T. B. Gilbert,  M. Wormit,  
 J. Kussmann,  A. W. Lange,  A. Behn,  Jia Deng,  Xintian Feng,  D. Ghosh,  
 M. Goldey,  P. R. Horn,  L. D. Jacobson,  I. Kaliman,  T. Kus,  A. Landau,  
 Jie Liu,  E. I. Proynov,  R. M. Richard,  R. P. Steele,  E. J. Sundstrom,  
 H. L. Woodcock III,  P. M. Zimmerman,  D. Zuev,  B. Albrecht,  E. Alguire,  
 S. A. Baeppler,  D. Barton,  Z. Benda,  Y. A. Bernard,  E. J. Berquist,  
 K. B. Bravaya,  H. Burton,  D. Casanova,  Chun-Min Chang,  Yunqing Chen,  
 A. Chien,  K. D. Closser,  M. P. Coons,  S. Coriani,  S. Dasgupta,  
 A. L. Dempwolff,  M. Diedenhofen,  Hainam Do,  R. G. Edgar,  Po-Tung Fang,  
 S. Faraji,  S. Fatehi,  Qingguo Feng,  K. D. Fenk,  J. Fosso-Tande,  
 J. Gayvert,  Qinghui Ge,  A. Ghysels,  G. Gidofalvi,  J. Gomes,  
 J. Gonthier,  A. Gunina,  D. Hait,  M. W. D. Hanson-Heine,  
 P. H. P. Harbach,  A. W. Hauser,  M. F. Herbst,  J. E. Herr,  
 E. G. Hohenstein,  Z. C. Holden,  Kerwin Hui,  B. C. Huynh,  T.-C. Jagau,  
 Hyunjun Ji,  B. Kaduk,  K. Khistyaev,  Jaehoon Kim,  P. Klunzinger,  K. Koh,  
 D. Kosenkov,  L. Koulias,  T. Kowalczyk,  C. M. Krauter,  A. Kunitsa,  
 Ka Un Lao,  A. Laurent,  K. V. Lawler,  Joonho Lee,  D. Lefrancois,  
 S. Lehtola,  D. S. Levine,  Yi-Pei Li,  You-Sheng Lin,  Fenglai Liu,  
 E. Livshits,  A. Luenser,  P. Manohar,  E. Mansoor,  S. F. Manzer,  
 Shan-Ping Mao,  Yuezhi Mao,  N. Mardirossian,  A. V. Marenich,  
 T. Markovich,  L. A. Martinez-Martinez,  S. A. Maurer,  N. J. Mayhall,  
 S. C. McKenzie,  J.-M. Mewes,  P. Morgante,  A. F. Morrison,  
 J. W. Mullinax,  K. Nanda,  T. S. Nguyen-Beck,  R. Olivares-Amaya,  
 J. A. Parkhill,  Zheng Pei,  T. M. Perrine,  F. Plasser,  P. Pokhilko,  
 S. Prager,  A. Prociuk,  E. Ramos,  D. R. Rehn,  F. Rob,  M. Scheurer,  
 M. Schneider,  N. Sergueev,  S. M. Sharada,  S. Sharma,  D. W. Small,  
 T. Stauch,  T. Stein,  Yu-Chuan Su,  A. J. W. Thom,  A. Tkatchenko,  
 T. Tsuchimochi,  N. M. Tubman,  L. Vogt,  M. L. Vidal,  O. Vydrov,  
 M. A. Watson,  J. Wenzel,  M. de Wergifosse,  T. A. Wesolowski,  A. White,  
 J. Witte,  A. Yamada,  Jun Yang,  K. Yao,  S. Yeganeh,  S. R. Yost,  
 Zhi-Qiang You,  A. Zech,  Igor Ying Zhang,  Xing Zhang,  Yan Zhao,  
 Ying Zhu,  B. R. Brooks,  G. K. L. Chan,  C. J. Cramer,  M. S. Gordon,  
 W. J. Hehre,  A. Klamt,  M. W. Schmidt,  C. D. Sherrill,  D. G. Truhlar,  
 A. Aspuru-Guzik,  R. Baer,  A. T. Bell,  N. A. Besley,  Jeng-Da Chai,  
 A. E. DePrince, III,  R. A. DiStasio Jr.,  A. Dreuw,  B. D. Dunietz,  
 T. R. Furlani,  Chao-Ping Hsu,  Yousung Jung,  Jing Kong,  D. S. Lambrecht,  
 WanZhen Liang,  C. Ochsenfeld,  V. A. Rassolov,  L. V. Slipchenko,  
 J. E. Subotnik,  T. Van Voorhis,  J. M. Herbert,  A. I. Krylov,  
 P. M. W. Gill,  M. Head-Gordon

 Contributors to earlier versions of Q-Chem not listed above: 
 R. D. Adamson,  B. Austin,  J. Baker,  G. J. O. Beran,  K. Brandhorst,  
 S. T. Brown,  E. F. C. Byrd,  A. K. Chakraborty,  C.-L. Cheng,  
 Siu Hung Chien,  D. M. Chipman,  D. L. Crittenden,  H. Dachsel,  
 R. J. Doerksen,  A. D. Dutoi,  L. Fusti-Molnar,  W. A. Goddard III,  
 A. Golubeva-Zadorozhnaya,  S. R. Gwaltney,  G. Hawkins,  A. Heyden,  
 S. Hirata,  G. Kedziora,  F. J. Keil,  C. Kelley,  Jihan Kim,  R. A. King,  
 R. Z. Khaliullin,  P. P. Korambath,  W. Kurlancheek,  A. M. Lee,  M. S. Lee,  
 S. V. Levchenko,  Ching Yeh Lin,  D. Liotard,  R. C. Lochan,  I. Lotan,  
 P. E. Maslen,  N. Nair,  D. P. O'Neill,  D. Neuhauser,  E. Neuscamman,  
 C. M. Oana,  R. Olson,  B. Peters,  R. Peverati,  P. A. Pieniazek,  
 Y. M. Rhee,  J. Ritchie,  M. A. Rohrdanz,  E. Rosta,  N. J. Russ,  
 H. F. Schaefer III,  N. E. Schultz,  N. Shenvi,  A. C. Simmonett,  A. Sodt,  
 D. Stuck,  K. S. Thanthiriwatte,  V. Vanovschi,  Tao Wang,  A. Warshel,  
 C. F. Williams,  Q. Wu,  X. Xu,  W. Zhang

 Please cite Q-Chem as follows:
 Y. Shao et al., Mol. Phys. 113, 184-215 (2015)
 DOI: 10.1080/00268976.2014.952696

 Q-Chem 5.2.0 for Intel X86 EM64T Linux

 Parts of Q-Chem use Armadillo 8.300.2 (Tropical Shenanigans).
 http://arma.sourceforge.net/

 Q-Chem begins on Sun Sep 26 07:22:44 2021  

Host: cori01
0

     Scratch files written to /tmp/qchem12976//Frg1//
 May1019 |scratch|qcdevops|jenkins|workspace|build_RNUM -1
Processing $rem in /global/common/cori/software/qchem/5.2/config/preferences:
	 MEM_TOTAL  96000 
NAlpha2: 50
NElect   50
Mult     1
Symmetry turned off for PCM/SM12/SMD calculation

Checking the input file for inconsistencies... 	...done.

--------------------------------------------------------------
User input:
--------------------------------------------------------------
$molecule
0 1
 6	-0.9117751216	-5.2238788277	-1.4691456350
 6	0.5192248784	-1.3638788277	-0.4161456350
 6	1.3982248784	-2.2808788277	-0.9961456350
 6	-0.8017751216	-1.7078788277	-0.2171456350
 6	0.9232248784	-3.5498788277	-1.3531456350
 6	-1.2617751216	-2.9498788277	-0.5691456350
 6	-0.4087751216	-3.8728788277	-1.1401456350
 1	0.8722248784	-0.3818788277	-0.1291456350
 1	2.4352248784	-2.0178788277	-1.1561456350
 1	-1.4787751216	-0.9908788277	0.2258543650
 1	1.5962248784	-4.2738788277	-1.7911456350
 1	-2.2967751216	-3.2018788277	-0.3861456350
 1	-0.5067751216	-5.5248788277	-2.4311456350
 1	-1.9967751216	-5.1988788277	-1.5681456350
 1	-0.6487361216	-5.9667488277	-0.7017056350
$end
$rem
EDA2		1
METHOD		WB97X-V
BASIS		DEF2-TZVPD
XC_GRID		000099000590
NL_GRID		1
UNRESTRICTED		FALSE
MAX_SCF_CYCLES		200
SYMMETRY		FALSE
SYM_IGNORE		TRUE
BASIS_LIN_DEP_THRESH		6
THRESH		14
SCF_CONVERGENCE		8
SCF_PRINT_FRGM		TRUE
SOLVENT_METHOD		SMD
!required keywords
JOBTYPE		SP
SYM_IGNORE		TRUE
SUBSYSTEM		TRUE
GEN_SCFMAN		TRUE
CHILD_INSTRUCTION		2
SYM_IGNORE		TRUE
SCFMI		0
RI_K 0		
PARI_K 0		
MIN_PARI_K 0		
IARI_K 0		
OCC_RI_K 0		
PURECART		1111
MEM_STATIC		2000
MEM_TOTAL		96000
GUI		0
CHILD_MP		1
CHILD_MP_ORDERS		232
FRZ_RELAX		0
FRZ_RELAX_METHOD		0
EDA_CLS_ELEC		1
EDA_CLS_DISP		0
FRZ_ORTHO_DECOMP		1
EDA2		FALSE
FRGM_METHOD		FALSE
CIS_N_ROOTS  0
LOCAL_CIS    0
CIS_RLX_DNS  1
$end
$smx
SOLVENT			WATER
$end
--------------------------------------------------------------
 ----------------------------------------------------------------
             Standard Nuclear Orientation (Angstroms)
    I     Atom           X                Y                Z
 ----------------------------------------------------------------
    1      C      -0.9117751216    -5.2238788277    -1.4691456350
    2      C       0.5192248784    -1.3638788277    -0.4161456350
    3      C       1.3982248784    -2.2808788277    -0.9961456350
    4      C      -0.8017751216    -1.7078788277    -0.2171456350
    5      C       0.9232248784    -3.5498788277    -1.3531456350
    6      C      -1.2617751216    -2.9498788277    -0.5691456350
    7      C      -0.4087751216    -3.8728788277    -1.1401456350
    8      H       0.8722248784    -0.3818788277    -0.1291456350
    9      H       2.4352248784    -2.0178788277    -1.1561456350
   10      H      -1.4787751216    -0.9908788277     0.2258543650
   11      H       1.5962248784    -4.2738788277    -1.7911456350
   12      H      -2.2967751216    -3.2018788277    -0.3861456350
   13      H      -0.5067751216    -5.5248788277    -2.4311456350
   14      H      -1.9967751216    -5.1988788277    -1.5681456350
   15      H      -0.6487361216    -5.9667488277    -0.7017056350
 ----------------------------------------------------------------
 Nuclear Repulsion Energy =         271.57390896 hartrees
 There are       25 alpha and       25 beta electrons
 Requested basis set is def2-TZVPD
 There are 131 shells and 331 basis functions

 Total QAlloc Memory Limit  96000 MB
 Mega-Array Size      1956 MB
 MEM_STATIC part      2000 MB
 
 Citation of the SMD model:
 Marenich, A.V.; Cramer, C.J.; Truhlar, D.G.
 J. Phys. Chem. B 2009, 113, 6378-6396.
 iSolventCode=           1
 Solvent: water                                                           
 
 vradii
            1           2           3           4           5           6
    1   1.8500000   1.8500000   1.8500000   1.8500000   1.8500000   1.8500000
            7           8           9          10          11          12
    1   1.8500000   1.2000000   1.2000000   1.2000000   1.2000000   1.2000000
           13          14          15
    1   1.2000000   1.2000000   1.2000000
 Changing PCM_VDW_RADII to SMD_RADIUS
 Discretize the solute cavity surface with Lebedev spheres
	Using 110 Lebedev grid points for each H atom
	Using 194 Lebedev grid points for other atoms
	Atomic van der Waals radii will be scaled by 1.20
 Remove points where switching function is < 1.0e-08
 Keep 1075 surface tesserae and discard 1163 interior tesserae
 Molecular Surface Area = 131.211 Angst**2

                       Distance Matrix (Angstroms)
             C (  1)   C (  2)   C (  3)   C (  4)   C (  5)   C (  6)
   C (  2)  4.249255
   C (  3)  3.771084  1.396399
   C (  4)  3.733880  1.379485  2.403158
   C (  5)  2.486555  2.412422  1.401226  2.767505
   C (  6)  2.470542  2.389721  2.775876  1.370426  2.397682
   C (  7)  1.478665  2.771361  2.412561  2.386127  1.387055  1.380427
   H (  8)  5.331343  1.082267  2.152804  2.137357  3.396616  3.367815
   H (  9)  4.645300  2.155544  1.081729  3.384670  2.161476  3.857590
   H ( 10)  4.594867  2.131501  3.381496  1.081049  3.848549  2.125275
   H ( 11)  2.701157  3.393914  2.154827  3.848667  1.081179  3.378524
   H ( 12)  2.679477  3.362886  3.856600  2.120288  3.380029  1.080841
   H ( 13)  1.086310  4.735697  4.026386  4.422478  2.666010  3.266144
   H ( 14)  1.089794  4.729121  4.513085  3.929416  3.360331  2.568312
   H ( 15)  1.100004  4.757320  4.226391  4.289078  2.955790  3.081379
             C (  7)   H (  8)   H (  9)   H ( 10)   H ( 11)   H ( 12)
   H (  8)  3.853591
   H (  9)  3.395529  2.484793
   H ( 10)  3.364042  2.454406  4.275985
   H ( 11)  2.145839  4.293493  2.489314  4.929706
   H ( 12)  2.140865  4.249825  4.938277  2.435609  4.275355
   H ( 13)  2.098902  5.800974  4.751846  5.344304  2.529271  3.575256
   H ( 14)  2.112630  5.788382  5.470935  4.603697  3.716854  2.339900
   H ( 15)  2.152697  5.816521  5.030994  5.129192  3.015384  3.234210
             H ( 13)   H ( 14)
   H ( 14)  1.752468
   H ( 15)  1.790632  1.776950
 
 A cutoff of  1.0D-14 yielded   8372 shell pairs
 There are     54556 function pairs (     69522 Cartesian)
 Smallest overlap matrix eigenvalue = 5.24E-07
 Linear dependence detected in AO basis
 Tighter screening thresholds may be required for diffuse basis sets
 Use S2THRESH > 14 and THRESH = 14 in case of SCF convergence issues
 Number of orthogonalized atomic orbitals = 330
 Maximum deviation from orthogonality = 2.192E-10

 Scale SEOQF with 1.000000e-01/1.000000e-02/1.000000e-01

 Standard Electronic Orientation quadrupole field applied
 Nucleus-field energy     =     0.0000000003 hartrees
 Guess from superposition of atomic densities
 Warning:  Energy on first SCF cycle will be non-variational
 SAD guess density has 49.913408 electrons

 -----------------------------------------------------------------------
  General SCF calculation program by
  Eric Jon Sundstrom, Paul Horn, Yuezhi Mao, Dmitri Zuev, Alec White,
  David Stuck, Shaama M.S., Shane Yost, Joonho Lee, David Small,
  Daniel Levine, Susi Lehtola, Hugh Burton, Evgeny Epifanovsky
 -----------------------------------------------------------------------
 Exchange:     0.1670 Hartree-Fock + 1.0000 wB97X-V + LR-HF
 Correlation:  1.0000 wB97X-V
 Using Euler-Maclaurin-Lebedev (99,590) quadrature formula
 Nonlocal Correlation:  VV10 with C = 0.0100 and b = 6.00 and scale = 1.00000
 Grid used for NLC:  SG-1 standard quadrature
Energy prior to optimization (guess energy) = -271.515604094275
Begin Timing: Total SCF Calculation
begin iterations for algorithm: DIIS         
the SCF tolerance is set to 1.00e-08
    1    -271.5156040943      2.02e-03     00000 
    2    -271.5576072146      1.33e-03     00000 
    3    -271.5834107593      1.58e-04     00000 
    4    -271.5841021225      5.60e-05     00000 
    5    -271.5841607224      2.81e-05     00000 
    6    -271.5841733742      6.19e-06     00000 
    7    -271.5841742507      2.39e-06     00000 
    8    -271.5841743543      3.97e-07     00000 
    9    -271.5841743600      1.00e-07     00000 
   10    -271.5841743604      5.43e-08     00000 
   11    -271.5841743604      1.61e-08     00000 
   12    -271.5841743605      5.50e-09     00000 Convergence criterion met
Timing for Total SCF: 1396.00s (wall), 2776.69s (cpu)
(3)  G-ENP(liq) elect-nuc-pol free energy of system     -271.584174360 a.u.
(4)  G-CDS(liq) cavity-dispersion-solvent structure 
     free energy                                                3.1188 kcal/mol
(6)  G-S(liq) free energy of system                     -271.579204255 a.u.
E_pcm = -0.0072691571
E_cds = 0.0049701058
Multipole orders to be included
        2
        3
computing dipole RHS
computing quadrupole RHS
total number of RHS in solve_reponses: 8
RHS batch sizes
        8
Beginning Block Conjugate Gradient Iterations. Batch Number: 0
computing hessian-vector products by finite difference
              1      6.26e-01     00000 Conjugate Gradient Iteration
computing hessian-vector products by finite difference
              2      1.95e-01     00000 Conjugate Gradient Iteration
computing hessian-vector products by finite difference
              3      4.62e-02     00000 Conjugate Gradient Iteration
computing hessian-vector products by finite difference
              4      1.14e-02     00000 Conjugate Gradient Iteration
computing hessian-vector products by finite difference
              5      1.98e-03     00000 Conjugate Gradient Iteration
computing hessian-vector products by finite difference
              6      6.00e-04     00000 Conjugate Gradient Iteration
computing hessian-vector products by finite difference
              7      1.66e-04     00000 Conjugate Gradient Iteration
computing hessian-vector products by finite difference
              8      2.52e-05     00000 Conjugate Gradient Iteration
computing hessian-vector products by finite difference
              9      3.53e-06     00000 Conjugate Gradient Iteration
computing hessian-vector products by finite difference
             10      7.17e-07     00000 Conjugate Gradient Iteration
computing hessian-vector products by finite difference
             11      1.26e-07     00000 Conjugate Gradient Iteration
computing hessian-vector products by finite difference
             12      1.81e-08     00000 Conjugate Gradient Iteration
computing hessian-vector products by finite difference
             13      4.17e-09     00000 CG Converged
batch 0 complete
Done Calculating Responses
TESTING ORTHOGONALIZATION OF MULTIPOLE BASIS
Multipole virts passed orthogonality test
Virts Per Order
           75
          125
 
 --------------------------------------------------------------
 
                    Orbital Energies (a.u.)
 --------------------------------------------------------------
 
 Alpha MOs
 -- Occupied --
-10.2717 -10.2693 -10.2638 -10.2634 -10.2626 -10.2587 -10.2497  -0.9970
 -0.9053  -0.8760  -0.8071  -0.7262  -0.7001  -0.6245  -0.5709  -0.5596
 -0.5325  -0.5252  -0.5086  -0.4778  -0.4702  -0.4365  -0.4332  -0.3473
 -0.3341
 -- Virtual --
  0.0683   0.0684   0.0735   0.0846   0.0898   0.1098   0.1160   0.1179
  0.1411   0.1585   0.1711   0.1756   0.1910   0.1954   0.2001   0.2079
  0.2290   0.2332   0.2404   0.2472   0.2538   0.2635   0.2665   0.2771
  0.2829   0.2881   0.2906   0.2976   0.3001   0.3070   0.3084   0.3181
  0.3268   0.3293   0.3360   0.3420   0.3567   0.3600   0.3735   0.3790
  0.3842   0.3881   0.3926   0.3958   0.3972   0.4056   0.4086   0.4139
  0.4186   0.4341   0.4373   0.4407   0.4481   0.4537   0.4574   0.4602
  0.4695   0.4792   0.4823   0.4885   0.4968   0.5049   0.5193   0.5241
  0.5251   0.5322   0.5410   0.5439   0.5491   0.5547   0.5559   0.5729
  0.5862   0.5928   0.6005   0.6024   0.6066   0.6265   0.6450   0.6508
  0.6711   0.6806   0.6860   0.6923   0.6934   0.7075   0.7260   0.7301
  0.7333   0.7356   0.7479   0.7645   0.7691   0.7714   0.7806   0.7898
  0.7975   0.8024   0.8052   0.8081   0.8151   0.8286   0.8294   0.8377
  0.8409   0.8422   0.8539   0.8616   0.8666   0.8791   0.8970   0.9006
  0.9184   0.9291   0.9381   0.9557   0.9566   1.0153   1.0325   1.0491
  1.0520   1.0693   1.0780   1.0813   1.0955   1.0991   1.1085   1.1534
  1.1726   1.1836   1.2649   1.2836   1.3057   1.3326   1.3544   1.3628
  1.3857   1.4441   1.4601   1.4689   1.4699   1.4946   1.5389   1.5495
  1.6069   1.6142   1.6305   1.6312   1.6713   1.6843   1.7472   1.7837
  1.8012   1.8047   1.8110   1.8251   1.8372   1.8738   1.8919   1.9174
  1.9261   1.9395   1.9528   1.9712   1.9954   2.0064   2.0153   2.0308
  2.0416   2.0498   2.0772   2.0982   2.1165   2.1304   2.1799   2.1949
  2.2034   2.2458   2.2599   2.2812   2.2947   2.3184   2.3988   2.4137
  2.4163   2.4282   2.4869   2.5234   2.5493   2.5642   2.5733   2.6083
  2.6307   2.6504   2.6741   2.6812   2.7068   2.7221   2.7654   2.7811
  2.8001   2.8195   2.8327   2.8612   2.8738   2.9062   2.9207   2.9245
  2.9461   2.9508   2.9812   2.9909   3.0015   3.0191   3.0263   3.0617
  3.0754   3.1026   3.1080   3.1571   3.1874   3.1891   3.2103   3.2342
  3.2440   3.2584   3.2943   3.3079   3.3556   3.3662   3.3826   3.3869
  3.4080   3.4485   3.4558   3.4591   3.4653   3.4898   3.4969   3.5101
  3.5211   3.5385   3.5470   3.5559   3.5717   3.5858   3.5904   3.6146
  3.6389   3.6480   3.6710   3.7044   3.7272   3.7631   3.7923   3.8297
  3.8725   3.9127   3.9219   3.9751   3.9979   4.0141   4.0539   4.0696
  4.1297   4.2154   4.2760   4.2946   4.3074   4.3324   4.3349   4.3527
  4.3641   4.3880   4.4058   4.4270   4.4560   4.4752   4.5122   4.5531
  4.6205   4.6579   4.7736   4.8122   4.8583   4.9055   4.9139   4.9623
  5.0417   5.0708   5.1925   5.2782   5.3999   5.4171   5.5246   5.5484
  5.6871   5.8689  22.5763  22.7238  22.9036  22.9184  23.0451  23.1254
 23.4799
 --------------------------------------------------------------
 
          Ground-State Mulliken Net Atomic Charges

     Atom                 Charge (a.u.)
  ----------------------------------------
      1 C                    -1.100410
      2 C                    -0.543370
      3 C                    -0.567936
      4 C                    -0.567126
      5 C                    -0.417873
      6 C                    -0.416388
      7 C                     0.875677
      8 H                     0.396774
      9 H                     0.373774
     10 H                     0.366249
     11 H                     0.402663
     12 H                     0.368425
     13 H                     0.285923
     14 H                     0.304317
     15 H                     0.239299
  ----------------------------------------
  Sum of atomic charges =     0.000000

 -----------------------------------------------------------------
                    Cartesian Multipole Moments
 -----------------------------------------------------------------
    Charge (ESU x 10^10)
                 0.0000
    Dipole Moment (Debye)
         X      -0.1881      Y      -0.5162      Z      -0.0673
       Tot       0.5535
    Quadrupole Moments (Debye-Ang)
        XX     -37.9818     XY       1.2903     YY     -35.5354
        XZ      -1.7227     YZ       3.3069     ZZ     -44.7161
    Octopole Moments (Debye-Ang^2)
       XXX      12.4794    XXY     117.7545    XYY      -0.5783
       YYY     343.7661    XXZ      33.9307    XYZ       4.1558
       YYZ      19.2803    XZZ       6.6734    YZZ     129.3911
       ZZZ     118.2501
    Hexadecapole Moments (Debye-Ang^3)
      XXXX    -303.5556   XXXY     -89.3454   XXYY    -502.1149
      XYYY     -82.3089   YYYY   -2665.2812   XXXZ      -6.7021
      XXYZ    -124.6956   XYYZ     -12.8255   YYYZ    -332.9667
      XXZZ    -108.4762   XYZZ     -42.0844   YYZZ    -517.5305
      XZZZ       1.0248   YZZZ    -421.6110   ZZZZ    -334.2758
 -----------------------------------------------------------------
Archival summary:
1\1\nid00511\SP\ProcedureUnspecified\BasisUnspecified\78\meili\SunSep2615:07:302021SunSep2615:07:302021\0\\#,ProcedureUnspecified,BasisUnspecified,\\0,1\C\C,1,1.38043\H,2,1.08084,1,120.388\C,2,1.37043,1,120.318,3,179.409,0\H,4,1.08105,2,119.745,1,179.762,0\C,4,1.37948,2,120.689,1,-0.552527,0\H,6,1.08227,4,120.023,2,-179.664,0\C,1,1.38706,2,120.08,3,-179.002,0\H,8,1.08118,1,120.267,2,179.394,0\C,6,1.3964,4,119.93,2,0.751048,0\H,10,1.08173,6,120.346,4,179.943,0\C,1,1.47867,2,119.521,3,-1.5632,0\H,12,1.08631,1,108.867,2,139.124,0\H,12,1.08979,1,109.751,2,21.9761,0\H,12,1.1,1,112.362,2,-98.8108,0\\\@

 Total job time:  27888.96s(wall), 55390.51s(cpu) 
 Sun Sep 26 15:07:32 2021

        *************************************************************
        *                                                           *
        *  Thank you very much for using Q-Chem.  Have a nice day.  *
        *                                                           *
        *************************************************************


Done Job For Fragment 0
calling putenv with: QCSCRATCH=/global/cscratch1/sd/meili 
calling putenv with: QCLOCALSCR=/tmp 
calling putenv with: QCTHREADS=32 
Creating input file /tmp/qchem12976/Frg2.input
using default PutDataFrgm: nothing
calling putenv with: QCSCRATCH=/tmp/qchem12976/ 
calling putenv with: QCLOCALSCR=/tmp/qchem12976/ 
Spawning Job For Fragment 1
                  Welcome to Q-Chem
     A Quantum Leap Into The Future Of Chemistry


 Q-Chem 5.2, Q-Chem, Inc., Pleasanton, CA (2019)

 License issued to: National Energy Research Scientific Computing Center

 Yihan Shao,  Zhengting Gan,  E. Epifanovsky,  A. T. B. Gilbert,  M. Wormit,  
 J. Kussmann,  A. W. Lange,  A. Behn,  Jia Deng,  Xintian Feng,  D. Ghosh,  
 M. Goldey,  P. R. Horn,  L. D. Jacobson,  I. Kaliman,  T. Kus,  A. Landau,  
 Jie Liu,  E. I. Proynov,  R. M. Richard,  R. P. Steele,  E. J. Sundstrom,  
 H. L. Woodcock III,  P. M. Zimmerman,  D. Zuev,  B. Albrecht,  E. Alguire,  
 S. A. Baeppler,  D. Barton,  Z. Benda,  Y. A. Bernard,  E. J. Berquist,  
 K. B. Bravaya,  H. Burton,  D. Casanova,  Chun-Min Chang,  Yunqing Chen,  
 A. Chien,  K. D. Closser,  M. P. Coons,  S. Coriani,  S. Dasgupta,  
 A. L. Dempwolff,  M. Diedenhofen,  Hainam Do,  R. G. Edgar,  Po-Tung Fang,  
 S. Faraji,  S. Fatehi,  Qingguo Feng,  K. D. Fenk,  J. Fosso-Tande,  
 J. Gayvert,  Qinghui Ge,  A. Ghysels,  G. Gidofalvi,  J. Gomes,  
 J. Gonthier,  A. Gunina,  D. Hait,  M. W. D. Hanson-Heine,  
 P. H. P. Harbach,  A. W. Hauser,  M. F. Herbst,  J. E. Herr,  
 E. G. Hohenstein,  Z. C. Holden,  Kerwin Hui,  B. C. Huynh,  T.-C. Jagau,  
 Hyunjun Ji,  B. Kaduk,  K. Khistyaev,  Jaehoon Kim,  P. Klunzinger,  K. Koh,  
 D. Kosenkov,  L. Koulias,  T. Kowalczyk,  C. M. Krauter,  A. Kunitsa,  
 Ka Un Lao,  A. Laurent,  K. V. Lawler,  Joonho Lee,  D. Lefrancois,  
 S. Lehtola,  D. S. Levine,  Yi-Pei Li,  You-Sheng Lin,  Fenglai Liu,  
 E. Livshits,  A. Luenser,  P. Manohar,  E. Mansoor,  S. F. Manzer,  
 Shan-Ping Mao,  Yuezhi Mao,  N. Mardirossian,  A. V. Marenich,  
 T. Markovich,  L. A. Martinez-Martinez,  S. A. Maurer,  N. J. Mayhall,  
 S. C. McKenzie,  J.-M. Mewes,  P. Morgante,  A. F. Morrison,  
 J. W. Mullinax,  K. Nanda,  T. S. Nguyen-Beck,  R. Olivares-Amaya,  
 J. A. Parkhill,  Zheng Pei,  T. M. Perrine,  F. Plasser,  P. Pokhilko,  
 S. Prager,  A. Prociuk,  E. Ramos,  D. R. Rehn,  F. Rob,  M. Scheurer,  
 M. Schneider,  N. Sergueev,  S. M. Sharada,  S. Sharma,  D. W. Small,  
 T. Stauch,  T. Stein,  Yu-Chuan Su,  A. J. W. Thom,  A. Tkatchenko,  
 T. Tsuchimochi,  N. M. Tubman,  L. Vogt,  M. L. Vidal,  O. Vydrov,  
 M. A. Watson,  J. Wenzel,  M. de Wergifosse,  T. A. Wesolowski,  A. White,  
 J. Witte,  A. Yamada,  Jun Yang,  K. Yao,  S. Yeganeh,  S. R. Yost,  
 Zhi-Qiang You,  A. Zech,  Igor Ying Zhang,  Xing Zhang,  Yan Zhao,  
 Ying Zhu,  B. R. Brooks,  G. K. L. Chan,  C. J. Cramer,  M. S. Gordon,  
 W. J. Hehre,  A. Klamt,  M. W. Schmidt,  C. D. Sherrill,  D. G. Truhlar,  
 A. Aspuru-Guzik,  R. Baer,  A. T. Bell,  N. A. Besley,  Jeng-Da Chai,  
 A. E. DePrince, III,  R. A. DiStasio Jr.,  A. Dreuw,  B. D. Dunietz,  
 T. R. Furlani,  Chao-Ping Hsu,  Yousung Jung,  Jing Kong,  D. S. Lambrecht,  
 WanZhen Liang,  C. Ochsenfeld,  V. A. Rassolov,  L. V. Slipchenko,  
 J. E. Subotnik,  T. Van Voorhis,  J. M. Herbert,  A. I. Krylov,  
 P. M. W. Gill,  M. Head-Gordon

 Contributors to earlier versions of Q-Chem not listed above: 
 R. D. Adamson,  B. Austin,  J. Baker,  G. J. O. Beran,  K. Brandhorst,  
 S. T. Brown,  E. F. C. Byrd,  A. K. Chakraborty,  C.-L. Cheng,  
 Siu Hung Chien,  D. M. Chipman,  D. L. Crittenden,  H. Dachsel,  
 R. J. Doerksen,  A. D. Dutoi,  L. Fusti-Molnar,  W. A. Goddard III,  
 A. Golubeva-Zadorozhnaya,  S. R. Gwaltney,  G. Hawkins,  A. Heyden,  
 S. Hirata,  G. Kedziora,  F. J. Keil,  C. Kelley,  Jihan Kim,  R. A. King,  
 R. Z. Khaliullin,  P. P. Korambath,  W. Kurlancheek,  A. M. Lee,  M. S. Lee,  
 S. V. Levchenko,  Ching Yeh Lin,  D. Liotard,  R. C. Lochan,  I. Lotan,  
 P. E. Maslen,  N. Nair,  D. P. O'Neill,  D. Neuhauser,  E. Neuscamman,  
 C. M. Oana,  R. Olson,  B. Peters,  R. Peverati,  P. A. Pieniazek,  
 Y. M. Rhee,  J. Ritchie,  M. A. Rohrdanz,  E. Rosta,  N. J. Russ,  
 H. F. Schaefer III,  N. E. Schultz,  N. Shenvi,  A. C. Simmonett,  A. Sodt,  
 D. Stuck,  K. S. Thanthiriwatte,  V. Vanovschi,  Tao Wang,  A. Warshel,  
 C. F. Williams,  Q. Wu,  X. Xu,  W. Zhang

 Please cite Q-Chem as follows:
 Y. Shao et al., Mol. Phys. 113, 184-215 (2015)
 DOI: 10.1080/00268976.2014.952696

 Q-Chem 5.2.0 for Intel X86 EM64T Linux

 Parts of Q-Chem use Armadillo 8.300.2 (Tropical Shenanigans).
 http://arma.sourceforge.net/

 Q-Chem begins on Sun Sep 26 15:07:37 2021  

Host: cori01
0

     Scratch files written to /tmp/qchem12976//Frg2//
 May1019 |scratch|qcdevops|jenkins|workspace|build_RNUM -1
Processing $rem in /global/common/cori/software/qchem/5.2/config/preferences:
	 MEM_TOTAL  96000 
NAlpha2: 58
NElect   58
Mult     1
Symmetry turned off for PCM/SM12/SMD calculation

Checking the input file for inconsistencies... 	...done.

--------------------------------------------------------------
User input:
--------------------------------------------------------------
$molecule
0 1
 6	-1.2327751216	1.8881211723	-1.7721456350
 6	-0.5297751216	2.2281211723	-0.4841456350
 6	-1.2337751216	2.2221211723	0.7098543650
 6	0.8082248784	2.6231211723	-0.4591456350
 6	-0.6077751216	2.5471211723	1.9018543650
 6	1.4222248784	2.9621211723	0.7558543650
 6	0.7052248784	2.9071211723	1.9278543650
 8	1.2412248784	3.2221211723	3.1528543650
 1	-1.6877751216	0.9041211723	-1.6511456350
 1	-0.5077751216	1.8231211723	-2.5831456350
 1	-2.2857751216	1.9641211723	0.7148543650
 1	1.3782248784	2.6641211723	-1.3771456350
 1	-1.1687751216	2.6251211723	2.8088543650
 1	2.4572248784	3.2651211723	0.7778543650
 1	0.5852248784	3.0761211723	3.8648543650
 1	-2.0162411216	2.6205511723	-2.0165256350
$end
$rem
EDA2		1
METHOD		WB97X-V
BASIS		DEF2-TZVPD
XC_GRID		000099000590
NL_GRID		1
UNRESTRICTED		FALSE
MAX_SCF_CYCLES		200
SYMMETRY		FALSE
SYM_IGNORE		TRUE
BASIS_LIN_DEP_THRESH		6
THRESH		14
SCF_CONVERGENCE		8
SCF_PRINT_FRGM		TRUE
SOLVENT_METHOD		SMD
!required keywords
JOBTYPE		SP
SYM_IGNORE		TRUE
SUBSYSTEM		TRUE
GEN_SCFMAN		TRUE
CHILD_INSTRUCTION		2
SYM_IGNORE		TRUE
SCFMI		0
RI_K 0		
PARI_K 0		
MIN_PARI_K 0		
IARI_K 0		
OCC_RI_K 0		
PURECART		1111
MEM_STATIC		2000
MEM_TOTAL		96000
GUI		0
CHILD_MP		1
CHILD_MP_ORDERS		232
FRZ_RELAX		0
FRZ_RELAX_METHOD		0
EDA_CLS_ELEC		1
EDA_CLS_DISP		0
FRZ_ORTHO_DECOMP		1
EDA2		FALSE
FRGM_METHOD		FALSE
CIS_N_ROOTS  0
LOCAL_CIS    0
CIS_RLX_DNS  1
$end
$smx
SOLVENT			WATER
$end
--------------------------------------------------------------
 ----------------------------------------------------------------
             Standard Nuclear Orientation (Angstroms)
    I     Atom           X                Y                Z
 ----------------------------------------------------------------
    1      C      -1.2327751216     1.8881211723    -1.7721456350
    2      C      -0.5297751216     2.2281211723    -0.4841456350
    3      C      -1.2337751216     2.2221211723     0.7098543650
    4      C       0.8082248784     2.6231211723    -0.4591456350
    5      C      -0.6077751216     2.5471211723     1.9018543650
    6      C       1.4222248784     2.9621211723     0.7558543650
    7      C       0.7052248784     2.9071211723     1.9278543650
    8      O       1.2412248784     3.2221211723     3.1528543650
    9      H      -1.6877751216     0.9041211723    -1.6511456350
   10      H      -0.5077751216     1.8231211723    -2.5831456350
   11      H      -2.2857751216     1.9641211723     0.7148543650
   12      H       1.3782248784     2.6641211723    -1.3771456350
   13      H      -1.1687751216     2.6251211723     2.8088543650
   14      H       2.4572248784     3.2651211723     0.7778543650
   15      H       0.5852248784     3.0761211723     3.8648543650
   16      H      -2.0162411216     2.6205511723    -2.0165256350
 ----------------------------------------------------------------
 Nuclear Repulsion Energy =         344.32290857 hartrees
 There are       29 alpha and       29 beta electrons
 Requested basis set is def2-TZVPD
 There are 145 shells and 371 basis functions

 Total QAlloc Memory Limit  96000 MB
 Mega-Array Size      1956 MB
 MEM_STATIC part      2000 MB
 
 Citation of the SMD model:
 Marenich, A.V.; Cramer, C.J.; Truhlar, D.G.
 J. Phys. Chem. B 2009, 113, 6378-6396.
 iSolventCode=           1
 Solvent: water                                                           
 
 vradii
            1           2           3           4           5           6
    1   1.8500000   1.8500000   1.8500000   1.8500000   1.8500000   1.8500000
            7           8           9          10          11          12
    1   1.8500000   1.5200000   1.2000000   1.2000000   1.2000000   1.2000000
           13          14          15          16
    1   1.2000000   1.2000000   1.2000000   1.2000000
 Changing PCM_VDW_RADII to SMD_RADIUS
 Discretize the solute cavity surface with Lebedev spheres
	Using 110 Lebedev grid points for each H atom
	Using 194 Lebedev grid points for other atoms
	Atomic van der Waals radii will be scaled by 1.20
 Remove points where switching function is < 1.0e-08
 Keep 1169 surface tesserae and discard 1263 interior tesserae
 Molecular Surface Area = 140.762 Angst**2
 A cutoff of  1.0D-14 yielded  10048 shell pairs
 There are     67120 function pairs (     85829 Cartesian)
 Smallest overlap matrix eigenvalue = 5.29E-07
 Linear dependence detected in AO basis
 Tighter screening thresholds may be required for diffuse basis sets
 Use S2THRESH > 14 and THRESH = 14 in case of SCF convergence issues
 Number of orthogonalized atomic orbitals = 370
 Maximum deviation from orthogonality = 2.705E-10

 Scale SEOQF with 1.000000e-01/1.000000e-01/1.000000e-01

 Standard Electronic Orientation quadrupole field applied
 Nucleus-field energy     =     0.0000000106 hartrees
 Guess from superposition of atomic densities
 Warning:  Energy on first SCF cycle will be non-variational
 SAD guess density has 57.738434 electrons

 -----------------------------------------------------------------------
  General SCF calculation program by
  Eric Jon Sundstrom, Paul Horn, Yuezhi Mao, Dmitri Zuev, Alec White,
  David Stuck, Shaama M.S., Shane Yost, Joonho Lee, David Small,
  Daniel Levine, Susi Lehtola, Hugh Burton, Evgeny Epifanovsky
 -----------------------------------------------------------------------
 Exchange:     0.1670 Hartree-Fock + 1.0000 wB97X-V + LR-HF
 Correlation:  1.0000 wB97X-V
 Using Euler-Maclaurin-Lebedev (99,590) quadrature formula
 Nonlocal Correlation:  VV10 with C = 0.0100 and b = 6.00 and scale = 1.00000
 Grid used for NLC:  SG-1 standard quadrature
Energy prior to optimization (guess energy) = -346.488391612872
Begin Timing: Total SCF Calculation
begin iterations for algorithm: DIIS         
the SCF tolerance is set to 1.00e-08
    1    -346.4883916129      5.19e-03     00000 
    2    -346.4234567003      5.64e-03     00000 
    3    -346.8168839590      5.42e-04     00000 
    4    -346.8218930256      1.78e-04     00000 
    5    -346.8226091062      3.84e-05     00000 
    6    -346.8226610710      1.37e-05     00000 
    7    -346.8226661181      5.37e-06     00000 
    8    -346.8226669386      1.67e-06     00000 
    9    -346.8226670416      5.62e-07     00000 
   10    -346.8226670565      2.46e-07     00000 
   11    -346.8226670605      7.06e-08     00000 
   12    -346.8226670611      3.35e-08     00000 
   13    -346.8226670612      1.37e-08     00000 
   14    -346.8226670612      3.68e-09     00000 Convergence criterion met
Timing for Total SCF: 2151.00s (wall), 4277.28s (cpu)
(3)  G-ENP(liq) elect-nuc-pol free energy of system     -346.822667061 a.u.
(4)  G-CDS(liq) cavity-dispersion-solvent structure 
     free energy                                                3.6651 kcal/mol
(6)  G-S(liq) free energy of system                     -346.816826380 a.u.
E_pcm = -0.0176111596
E_cds = 0.0058406809
Multipole orders to be included
        2
        3
computing dipole RHS
computing quadrupole RHS
total number of RHS in solve_reponses: 8
RHS batch sizes
        8
Beginning Block Conjugate Gradient Iterations. Batch Number: 0
computing hessian-vector products by finite difference
              1      6.35e-01     00000 Conjugate Gradient Iteration
computing hessian-vector products by finite difference
              2      1.96e-01     00000 Conjugate Gradient Iteration
computing hessian-vector products by finite difference
              3      5.10e-02     00000 Conjugate Gradient Iteration
computing hessian-vector products by finite difference
              4      1.47e-02     00000 Conjugate Gradient Iteration
computing hessian-vector products by finite difference
              5      3.66e-03     00000 Conjugate Gradient Iteration
computing hessian-vector products by finite difference
              6      1.54e-03     00000 Conjugate Gradient Iteration
computing hessian-vector products by finite difference
              7      3.75e-04     00000 Conjugate Gradient Iteration
computing hessian-vector products by finite difference
              8      7.64e-05     00000 Conjugate Gradient Iteration
computing hessian-vector products by finite difference
              9      1.46e-05     00000 Conjugate Gradient Iteration
computing hessian-vector products by finite difference
             10      2.03e-06     00000 Conjugate Gradient Iteration
computing hessian-vector products by finite difference
             11      2.87e-07     00000 Conjugate Gradient Iteration
computing hessian-vector products by finite difference
             12      4.88e-08     00000 Conjugate Gradient Iteration
computing hessian-vector products by finite difference
             13      7.21e-09     00000 CG Converged
batch 0 complete
Done Calculating Responses
TESTING ORTHOGONALIZATION OF MULTIPOLE BASIS
Multipole virts passed orthogonality test
Virts Per Order
           87
          145
 
 --------------------------------------------------------------
 
                    Orbital Energies (a.u.)
 --------------------------------------------------------------
 
 Alpha MOs
 -- Occupied --
-19.2388 -10.3244 -10.2707 -10.2700 -10.2661 -10.2656 -10.2591 -10.2530
 -1.1840  -0.9945  -0.8992  -0.8790  -0.8048  -0.7445  -0.7063  -0.6580
 -0.6006  -0.5735  -0.5452  -0.5382  -0.5252  -0.5161  -0.5047  -0.4727
 -0.4487  -0.4400  -0.4340  -0.3484  -0.3130
 -- Virtual --
  0.0628   0.0643   0.0744   0.0846   0.0888   0.0998   0.1139   0.1158
  0.1190   0.1367   0.1501   0.1557   0.1620   0.1766   0.1846   0.1972
  0.2041   0.2102   0.2192   0.2330   0.2390   0.2463   0.2528   0.2601
  0.2678   0.2741   0.2797   0.2806   0.2897   0.3011   0.3024   0.3076
  0.3104   0.3155   0.3183   0.3302   0.3374   0.3455   0.3514   0.3588
  0.3592   0.3609   0.3706   0.3752   0.3816   0.3850   0.3868   0.3959
  0.3989   0.4034   0.4088   0.4117   0.4182   0.4290   0.4328   0.4366
  0.4414   0.4612   0.4629   0.4684   0.4799   0.4832   0.4907   0.4921
  0.4932   0.4965   0.5064   0.5106   0.5152   0.5230   0.5359   0.5417
  0.5459   0.5526   0.5551   0.5571   0.5661   0.5714   0.5773   0.5989
  0.6061   0.6118   0.6254   0.6322   0.6503   0.6596   0.6655   0.6713
  0.6824   0.6887   0.6988   0.7036   0.7100   0.7147   0.7204   0.7321
  0.7347   0.7432   0.7507   0.7546   0.7667   0.7738   0.7896   0.7908
  0.7918   0.7964   0.8014   0.8056   0.8099   0.8234   0.8298   0.8432
  0.8477   0.8525   0.8598   0.8646   0.8697   0.8776   0.8880   0.8931
  0.9106   0.9191   0.9424   0.9578   0.9631   0.9888   1.0071   1.0119
  1.0244   1.0468   1.0503   1.0558   1.0629   1.0660   1.0841   1.0988
  1.1077   1.1225   1.1373   1.1673   1.2112   1.2321   1.2798   1.3104
  1.3186   1.3261   1.3296   1.3665   1.3762   1.3882   1.4099   1.4423
  1.4625   1.4762   1.4810   1.4948   1.5438   1.5820   1.6197   1.6326
  1.6432   1.6531   1.6779   1.6887   1.7099   1.7433   1.7598   1.8034
  1.8198   1.8327   1.8460   1.8662   1.8701   1.8781   1.9212   1.9341
  1.9519   1.9626   1.9831   1.9984   2.0011   2.0376   2.0398   2.0640
  2.0655   2.0817   2.0965   2.1194   2.1340   2.1597   2.2129   2.2136
  2.2340   2.2473   2.2727   2.2899   2.3080   2.3216   2.3484   2.3754
  2.4144   2.4193   2.4448   2.4671   2.4894   2.5058   2.5425   2.5622
  2.5829   2.6028   2.6345   2.6474   2.6635   2.6732   2.6927   2.7569
  2.7730   2.7778   2.7878   2.8154   2.8247   2.8455   2.8827   2.8855
  2.9234   2.9343   2.9443   2.9501   2.9698   2.9908   2.9946   3.0111
  3.0331   3.0514   3.0768   3.0976   3.1237   3.1476   3.1510   3.1685
  3.1910   3.1944   3.2170   3.2240   3.2375   3.2560   3.2943   3.3005
  3.3077   3.3726   3.3876   3.4032   3.4102   3.4262   3.4539   3.4576
  3.4671   3.4833   3.4992   3.5148   3.5311   3.5481   3.5490   3.5527
  3.5592   3.5712   3.5926   3.6059   3.6238   3.6364   3.6580   3.6870
  3.7099   3.7152   3.7409   3.7590   3.8008   3.8139   3.8665   3.9285
  3.9449   3.9835   3.9848   4.0110   4.0660   4.0950   4.1721   4.1980
  4.2640   4.2873   4.2941   4.3195   4.3435   4.3630   4.3696   4.3847
  4.4089   4.4264   4.4501   4.4808   4.5056   4.5835   4.6164   4.6214
  4.7535   4.7769   4.8170   4.8283   4.8523   4.9366   5.0265   5.0702
  5.0854   5.1503   5.1878   5.3185   5.3753   5.4152   5.4570   5.5437
  5.5994   5.6605   5.7209   5.7617   5.9437   6.1892   6.4987   6.5687
  6.6377   6.8744   7.0263   7.3043   7.4464  22.6748  22.6899  22.9783
 22.9945  23.0797  23.2351  23.5748  44.4274
 --------------------------------------------------------------
 
          Ground-State Mulliken Net Atomic Charges

     Atom                 Charge (a.u.)
  ----------------------------------------
      1 C                    -1.047449
      2 C                     0.419687
      3 C                    -0.627588
      4 C                    -0.502447
      5 C                    -0.247846
      6 C                    -0.823220
      7 C                     0.695037
      8 O                    -0.563563
      9 H                     0.266042
     10 H                     0.297094
     11 H                     0.403015
     12 H                     0.372346
     13 H                     0.374016
     14 H                     0.394245
     15 H                     0.332902
     16 H                     0.257728
  ----------------------------------------
  Sum of atomic charges =     0.000000

 -----------------------------------------------------------------
                    Cartesian Multipole Moments
 -----------------------------------------------------------------
    Charge (ESU x 10^10)
                -0.0000
    Dipole Moment (Debye)
         X      -2.1366      Y      -0.5409      Z       0.1555
       Tot       2.2094
    Quadrupole Moments (Debye-Ang)
        XX     -46.8846     XY      -5.1647     YY     -54.3475
        XZ      -6.9844     YZ       0.0375     ZZ     -38.4843
    Octopole Moments (Debye-Ang^2)
       XXX      -9.5435    XXY    -121.2441    XYY     -16.2803
       YYY    -407.8679    XXZ     -41.2598    XYZ     -21.8813
       YYZ     -36.7690    XZZ     -20.8219    YZZ     -99.0835
       ZZZ     -49.5870
    Hexadecapole Moments (Debye-Ang^3)
      XXXX    -394.8562   XXXY     -81.7196   XXYY    -405.4012
      XYYY    -124.9785   YYYY   -2199.9318   XXXZ    -139.9407
      XXYZ    -141.7455   XYYZ    -108.5219   YYYZ    -364.4682
      XXZZ    -254.0524   XYZZ     -91.3594   YYZZ    -441.3596
      XZZZ    -184.0756   YZZZ    -201.3839   ZZZZ    -687.7284
 -----------------------------------------------------------------
Archival summary:
1\1\nid00511\SP\ProcedureUnspecified\BasisUnspecified\178\meili\MonSep2701:36:042021MonSep2701:36:042021\0\\#,ProcedureUnspecified,BasisUnspecified,\\0,1\C\C,1,1.36171\H,2,1.06932,1,118.059\O,1,1.37373,2,116.992,3,6.09697,0\H,4,0.979079,1,110.662,2,3.97915,0\C,1,1.37503,2,119.808,3,-172.867,0\H,6,1.07866,1,119.616,2,178.885,0\C,2,1.38505,1,120.949,3,173.448,0\H,8,1.08319,2,119.398,1,-178.425,0\C,8,1.38611,2,120.715,1,1.38024,0\C,10,1.39531,8,118.218,2,-2.60711,0\H,11,1.08134,10,120.066,8,-178.375,0\C,10,1.50624,8,119.906,2,-179.249,0\H,13,1.08976,10,109.836,8,-173.105,0\H,13,1.09084,10,107.665,8,-55.9402,0\H,13,1.1,10,111.845,8,63.9768,0\\\@

 Total job time:  37710.75s(wall), 74810.78s(cpu) 
 Mon Sep 27 01:36:07 2021

        *************************************************************
        *                                                           *
        *  Thank you very much for using Q-Chem.  Have a nice day.  *
        *                                                           *
        *************************************************************


Done Job For Fragment 1
calling putenv with: QCSCRATCH=/global/cscratch1/sd/meili 
calling putenv with: QCLOCALSCR=/tmp 
calling putenv with: QCTHREADS=32 
Doing General SCFMI
 Exchange:     0.1670 Hartree-Fock + 1.0000 wB97X-V + LR-HF
 Correlation:  1.0000 wB97X-V
 Using Euler-Maclaurin-Lebedev (99,590) quadrature formula
 Nonlocal Correlation:  VV10 with C = 0.0100 and b = 6.00 and scale = 1.00000
 Grid used for NLC:  SG-1 standard quadrature
performing fock build before subrot guess so that all methods have access
Printing subrot_rss_gen Method Specification:
Occupied Subspace Method is 0
Virtual Subspace Method is 0
Energy of the unrelaxed supersystem initial determinant -618.385816930589
performing fock build before subrot guess so that all methods have access
Printing subrot_rss_gen Method Specification:
Occupied Subspace Method is 0
Virtual Subspace Method is 0
Energy of the unrelaxed supersystem initial determinant w/ solvent -618.409724770893
write pseudocanon occs and virts to disk
write pseudocanon orbital energies to disk
Tolerance of ortho_decomp_scf: 1.00e-06
GDM subspace size: 20
Beginning the Orthogonal Decomposition of the Initial Supersystem Wavefunction
    1    -618.3716843775      1.35e-02     ortho_decomp Preconditoned Steepest Descent
    2    -618.3725919622      3.16e-04     ortho_decomp BFGS Step
    3    -618.3725945416      2.41e-05     ortho_decomp BFGS Step
    4    -618.3725945468      9.68e-07     ortho_decomp 00000 Convergence criterion met
 Hartree-Fock
 Hartree-Fock
 Hartree-Fock
Doing General SCFMI
 Exchange:     0.1670 Hartree-Fock + 1.0000 wB97X-V + LR-HF
 Correlation:  1.0000 wB97X-V
 Using Euler-Maclaurin-Lebedev (99,590) quadrature formula
 Nonlocal Correlation:  VV10 with C = 0.0100 and b = 6.00 and scale = 1.00000
 Grid used for NLC:  SG-1 standard quadrature
performing fock build at end of subrot_r(subrot) constructor so that all methods have access
<S^2> of initial wavefunction before polarization iterations 0.0000000000
Beginning iterations for the determination of the polarized wavefunction
Energy prior to optimization (guess energy) = -618.409724770893
Begin Timing: Total SCF Calculation
begin iterations for algorithm: DIIS         
the SCF tolerance is set to 1.00e-08
    1    -618.4097247709      3.02e-05     00000 
    2    -618.4098392681      1.29e-05     00000 
    3    -618.4098542244      7.52e-06     00000 
    4    -618.4098597084      2.05e-06     00000 
    5    -618.4098603734      1.00e-06     00000 
    6    -618.4098605131      2.69e-07     00000 
    7    -618.4098605233      1.24e-07     00000 
    8    -618.4098605247      4.81e-08     00000 
    9    -618.4098605249      1.69e-08     00000 
   10    -618.4098605249      7.23e-09     00000 Convergence criterion met
write pseudocanon occs and virts to disk
write pseudocanon orbital energies to disk
Timing for Total SCF: 8641.00s (wall), 17188.25s (cpu)
<S^2> of polarized wavefunction after polarization iterations 0.0000000000
relaxing scfmi constraint to allow all rotations in the entire AO span
Doing General SCFMI
 Exchange:     0.1670 Hartree-Fock + 1.0000 wB97X-V + LR-HF
 Correlation:  1.0000 wB97X-V
 Using Euler-Maclaurin-Lebedev (99,590) quadrature formula
 Nonlocal Correlation:  VV10 with C = 0.0100 and b = 6.00 and scale = 1.00000
 Grid used for NLC:  SG-1 standard quadrature
performing fock build at end of subrot_r(subrot) constructor so that all methods have access
<S^2> of polarized wavefunction before ct-allowed iterations 0.0000000000
Beginning iterations for the determination of the CT-Allowed wavefunction
Energy prior to optimization (guess energy) = -618.409860524900
Begin Timing: Total SCF Calculation
begin iterations for algorithm: DIIS         
the SCF tolerance is set to 1.00e-08
    1    -618.4098605249      4.80e-05     00000 
    2    -618.4104039247      4.61e-06     00000 
    3    -618.4104192257      7.76e-07     00000 
    4    -618.4104197935      2.81e-07     00000 
    5    -618.4104198216      1.10e-07     00000 
    6    -618.4104198280      2.55e-08     00000 
    7    -618.4104198283      1.11e-08     00000 
    8    -618.4104198284      2.51e-09     00000 Convergence criterion met
write pseudocanon occs and virts to disk
write pseudocanon orbital energies to disk
Timing for Total SCF: 6711.00s (wall), 13366.22s (cpu)
<S^2> of ct_allowed wavefunction after ct-allowed iterations 0.0000000000

================================
        Results of EDA2         
================================
Basic EDA Quantities
--------------------
Fragment Energies (Ha):
1 -271.5792042546
2 -346.8168263804
--------------------
  E_prp (kJ/mol) = -0.0000
  E_sol (kJ/mol) = 1.0801
  E_frz (kJ/mol) = -10.1236
  E_pol (kJ/mol) = -0.3564
  E_vct (kJ/mol) = -1.4685
  E_int (kJ/mol) = -10.8684
--------------------


Initial Wavefunction Decomposition
--------------------
  --------------------
  Orthogonal Fragment Subspace Decomposition:
  --------------------
     E_elec   (ELEC)   (kJ/mol) = -14.1352
     E_pauli  (PAULI)  (kJ/mol) = 18.5345
     E_disp   (DISP)   (kJ/mol) = -14.5229
     --------------------
     Terms summing to E_pauli:
     --------------------
        E_kep_pauli       (kJ/mol) = 24.5922
        E_disp_free_pauli (kJ/mol) = -6.0577
  --------------------
  Classical Frozen Decomposition:
  --------------------
     E_cls_elec  (CLS ELEC)  (kJ/mol) = -5.8700
     E_cls_pauli (CLS PAULI) (kJ/mol) = -4.2536
    [E_mod_pauli (MOD PAULI) (kJ/mol) = 10.2693 (CLS PAULI - DISP from orthogonal decomposition) ]
  --------------------
--------------------

Simplified EDA Summary (kJ/mol)
--------------------
 PREPARATION     -0.0000
 SOLVATION       1.0801
 FROZEN          4.3993      (does not include dispersion)
[PAULI           18.5345]     (if this is negligible, then frozen describes electrostatics)
 DISPERSION      -14.5229
 POLARIZATION    -0.3564
 CHARGE TRANSFER -1.4685
 TOTAL           -10.8684     (PRP + SOL + FRZ + DISP + POL + CT)
--------------------
 
 --------------------------------------------------------------
 
                    Orbital Energies (a.u.)
 --------------------------------------------------------------
 
 Alpha MOs
 -- Occupied --
-19.2389 -10.3246 -10.2717 -10.2706 -10.2700 -10.2693 -10.2663 -10.2657
-10.2637 -10.2631 -10.2625 -10.2593 -10.2587 -10.2529 -10.2497  -1.1840
 -0.9970  -0.9946  -0.9054  -0.8992  -0.8791  -0.8760  -0.8071  -0.8048
 -0.7446  -0.7261  -0.7064  -0.7000  -0.6581  -0.6249  -0.6007  -0.5736
 -0.5709  -0.5596  -0.5453  -0.5390  -0.5325  -0.5264  -0.5243  -0.5165
 -0.5073  -0.5047  -0.4778  -0.4731  -0.4695  -0.4487  -0.4412  -0.4355
 -0.4350  -0.4316  -0.3484  -0.3472  -0.3339  -0.3128
 -- Virtual --
  0.0597   0.0616   0.0681   0.0683   0.0728   0.0768   0.0794   0.0826
  0.0955   0.0965   0.1041   0.1103   0.1152   0.1157   0.1204   0.1253
  0.1369   0.1394   0.1508   0.1536   0.1560   0.1663   0.1699   0.1724
  0.1757   0.1818   0.1890   0.1951   0.2019   0.2049   0.2079   0.2117
  0.2186   0.2250   0.2309   0.2355   0.2370   0.2429   0.2487   0.2495
  0.2561   0.2569   0.2577   0.2646   0.2676   0.2688   0.2741   0.2794
  0.2825   0.2860   0.2897   0.2917   0.2935   0.2956   0.3007   0.3066
  0.3078   0.3100   0.3119   0.3168   0.3245   0.3254   0.3285   0.3321
  0.3337   0.3384   0.3401   0.3426   0.3497   0.3500   0.3520   0.3581
  0.3625   0.3658   0.3678   0.3702   0.3715   0.3728   0.3765   0.3816
  0.3832   0.3881   0.3894   0.3935   0.3955   0.3997   0.4016   0.4022
  0.4065   0.4099   0.4141   0.4182   0.4223   0.4248   0.4281   0.4290
  0.4332   0.4371   0.4376   0.4425   0.4456   0.4487   0.4504   0.4549
  0.4598   0.4654   0.4676   0.4688   0.4735   0.4760   0.4764   0.4831
  0.4876   0.4885   0.4919   0.4941   0.5006   0.5018   0.5054   0.5116
  0.5126   0.5165   0.5196   0.5243   0.5265   0.5280   0.5308   0.5336
  0.5398   0.5417   0.5485   0.5488   0.5503   0.5526   0.5601   0.5671
  0.5691   0.5722   0.5760   0.5818   0.5871   0.5902   0.5951   0.5960
  0.6001   0.6052   0.6105   0.6136   0.6169   0.6191   0.6278   0.6325
  0.6404   0.6468   0.6506   0.6547   0.6597   0.6634   0.6688   0.6760
  0.6773   0.6830   0.6848   0.6890   0.6917   0.6991   0.7023   0.7034
  0.7081   0.7155   0.7208   0.7220   0.7287   0.7327   0.7338   0.7364
  0.7401   0.7421   0.7454   0.7464   0.7520   0.7563   0.7643   0.7685
  0.7709   0.7729   0.7799   0.7817   0.7869   0.7879   0.7912   0.7931
  0.7980   0.8023   0.8039   0.8048   0.8112   0.8149   0.8159   0.8210
  0.8219   0.8276   0.8305   0.8324   0.8373   0.8424   0.8455   0.8491
  0.8548   0.8586   0.8660   0.8694   0.8736   0.8775   0.8832   0.8852
  0.8889   0.8911   0.8941   0.9012   0.9084   0.9111   0.9157   0.9184
  0.9236   0.9288   0.9363   0.9425   0.9447   0.9527   0.9565   0.9661
  0.9713   0.9755   0.9848   0.9934   1.0028   1.0091   1.0165   1.0215
  1.0325   1.0374   1.0435   1.0471   1.0599   1.0668   1.0709   1.0749
  1.0807   1.0833   1.0885   1.0989   1.1092   1.1096   1.1126   1.1198
  1.1237   1.1429   1.1511   1.1596   1.1720   1.1753   1.1855   1.1921
  1.1944   1.2114   1.2140   1.2413   1.2432   1.2555   1.2862   1.2962
  1.3114   1.3276   1.3312   1.3481   1.3502   1.3644   1.3775   1.3829
  1.3881   1.3923   1.3981   1.4153   1.4227   1.4249   1.4458   1.4607
  1.4766   1.4841   1.4873   1.4941   1.5036   1.5085   1.5180   1.5277
  1.5491   1.5580   1.5731   1.5801   1.5914   1.6173   1.6248   1.6436
  1.6519   1.6557   1.6602   1.6649   1.6815   1.6891   1.7040   1.7149
  1.7287   1.7550   1.7687   1.7915   1.8078   1.8098   1.8178   1.8212
  1.8275   1.8322   1.8508   1.8550   1.8662   1.8838   1.8912   1.9005
  1.9197   1.9268   1.9341   1.9442   1.9457   1.9635   1.9657   1.9786
  1.9819   1.9863   2.0003   2.0072   2.0117   2.0197   2.0217   2.0323
  2.0378   2.0462   2.0504   2.0606   2.0621   2.0721   2.0799   2.0823
  2.1005   2.1032   2.1121   2.1172   2.1289   2.1472   2.1546   2.1666
  2.1718   2.2050   2.2105   2.2190   2.2257   2.2362   2.2418   2.2544
  2.2595   2.2724   2.2753   2.2858   2.2940   2.3113   2.3192   2.3230
  2.3308   2.3455   2.3572   2.3672   2.4022   2.4222   2.4276   2.4302
  2.4359   2.4534   2.4653   2.4779   2.4866   2.5054   2.5116   2.5309
  2.5450   2.5673   2.5764   2.5904   2.5960   2.6036   2.6134   2.6168
  2.6346   2.6484   2.6620   2.6667   2.6731   2.6794   2.6961   2.6989
  2.7203   2.7232   2.7370   2.7447   2.7693   2.7732   2.7911   2.7941
  2.7991   2.8161   2.8263   2.8299   2.8349   2.8497   2.8516   2.8744
  2.8781   2.8899   2.8950   2.9096   2.9264   2.9333   2.9436   2.9484
  2.9509   2.9578   2.9618   2.9678   2.9789   2.9902   2.9974   3.0040
  3.0118   3.0173   3.0287   3.0307   3.0354   3.0536   3.0632   3.0720
  3.0926   3.0971   3.1082   3.1159   3.1197   3.1222   3.1445   3.1597
  3.1732   3.1803   3.1960   3.2000   3.2076   3.2158   3.2218   3.2332
  3.2366   3.2609   3.2669   3.2757   3.2815   3.2855   3.3060   3.3184
  3.3217   3.3360   3.3370   3.3574   3.3667   3.3797   3.3923   3.4001
  3.4084   3.4143   3.4256   3.4359   3.4462   3.4499   3.4608   3.4677
  3.4772   3.4824   3.4873   3.4903   3.5019   3.5071   3.5136   3.5236
  3.5272   3.5335   3.5393   3.5466   3.5509   3.5533   3.5624   3.5691
  3.5732   3.5758   3.5802   3.5877   3.5919   3.5937   3.6095   3.6101
  3.6214   3.6285   3.6394   3.6426   3.6506   3.6553   3.6678   3.6753
  3.6862   3.7004   3.7161   3.7194   3.7313   3.7360   3.7429   3.7561
  3.7752   3.8082   3.8137   3.8225   3.8450   3.8785   3.8926   3.9232
  3.9309   3.9536   3.9568   3.9896   3.9953   4.0008   4.0052   4.0226
  4.0431   4.0691   4.0749   4.0958   4.1117   4.1553   4.1791   4.2047
  4.2483   4.2783   4.2989   4.3000   4.3058   4.3087   4.3212   4.3372
  4.3478   4.3516   4.3595   4.3658   4.3705   4.3726   4.3810   4.3920
  4.3981   4.4118   4.4186   4.4353   4.4464   4.4620   4.4697   4.4856
  4.4947   4.5202   4.5267   4.5736   4.5929   4.6308   4.6356   4.6574
  4.6667   4.7669   4.7796   4.7814   4.8208   4.8302   4.8377   4.8606
  4.8703   4.9152   4.9270   4.9506   4.9878   5.0334   5.0730   5.0769
  5.0852   5.0951   5.1601   5.1933   5.2073   5.2985   5.3266   5.3786
  5.4087   5.4168   5.4279   5.4646   5.5314   5.5479   5.5567   5.6006
  5.6660   5.7119   5.7251   5.7692   5.8428   5.9452   6.1919   6.4998
  6.5722   6.6434   6.8798   7.0319   7.3096   7.4500  22.6411  22.7201
 22.7285  22.7361  22.9330  22.9610  23.0132  23.0237  23.0726  23.1010
 23.1456  23.2525  23.4983  23.5830  44.4460
 --------------------------------------------------------------
 
          Ground-State Mulliken Net Atomic Charges

     Atom                 Charge (a.u.)
  ----------------------------------------
      1 C                    -1.168234
      2 C                    -0.352399
      3 C                    -0.637007
      4 C                    -0.371689
      5 C                    -0.388887
      6 C                    -0.641119
      7 C                     0.603752
      8 H                     0.432477
      9 H                     0.393283
     10 H                     0.464814
     11 H                     0.429254
     12 H                     0.382965
     13 H                     0.290525
     14 H                     0.310241
     15 H                     0.245823
     16 C                    -1.106151
     17 C                     0.453692
     18 C                    -0.485892
     19 C                    -0.424979
     20 C                    -0.357837
     21 C                    -0.867155
     22 C                     0.691947
     23 O                    -0.577227
     24 H                     0.201760
     25 H                     0.291965
     26 H                     0.422663
     27 H                     0.376460
     28 H                     0.374874
     29 H                     0.377014
     30 H                     0.336589
     31 H                     0.298478
  ----------------------------------------
  Sum of atomic charges =     0.000000

 -----------------------------------------------------------------
                    Cartesian Multipole Moments
 -----------------------------------------------------------------
    Charge (ESU x 10^10)
                 0.0000
    Dipole Moment (Debye)
         X      -2.3224      Y      -1.0323      Z       0.0871
       Tot       2.5430
    Quadrupole Moments (Debye-Ang)
        XX     -84.9127     XY      -3.8631     YY     -89.9078
        XZ      -8.7078     YZ       3.3720     ZZ     -83.2500
    Octopole Moments (Debye-Ang^2)
       XXX       2.9584    XXY      -3.4540    XYY     -16.7951
       YYY     -64.0397    XXZ      -7.3246    XYZ     -17.7226
       YYZ     -17.3000    XZZ     -14.1618    YZZ      30.4119
       ZZZ      68.7411
    Hexadecapole Moments (Debye-Ang^3)
      XXXX    -698.7975   XXXY    -171.0124   XXYY    -907.6892
      XYYY    -207.1047   YYYY   -4866.4943   XXXZ    -146.6889
      XXYZ    -266.4318   XYYZ    -121.3418   YYYZ    -696.9801
      XXZZ    -362.6565   XYZZ    -133.4196   YYZZ    -958.9229
      XZZZ    -183.0359   YZZZ    -622.7518   ZZZZ   -1022.3395
 -----------------------------------------------------------------
Archival summary:
1\1\nid00511\SP\ProcedureUnspecified\BasisUnspecified\11416\meili\MonSep2709:41:432021MonSep2709:41:432021\0\\#,ProcedureUnspecified,BasisUnspecified,\\0,1\C\C,1,1.38611\H,2,1.08319,1,119.886\C,2,1.38505,1,120.715,3,-179.805,0\H,4,1.06932,2,120.662,1,174.658,0\C,4,1.36171,2,120.949,1,1.38024,0\O,6,1.37373,4,116.992,2,179.545,0\H,7,0.979079,6,110.662,4,3.97915,0\C,6,1.37503,4,119.808,2,0.580859,0\H,9,1.07866,6,119.616,4,178.885,0\C,1,1.39531,2,118.218,3,177.198,0\H,11,1.08134,1,120.066,2,-178.375,0\C,1,1.50624,2,119.906,3,0.5555,0\H,13,1.08976,1,109.836,2,-173.105,0\H,13,1.09084,1,107.665,2,-55.9402,0\H,13,1.1,1,111.845,2,63.9768,0\H,15,2.67541,13,133.17,1,-10.1278,0\C,17,1.08105,15,103.368,13,-100.839,0\C,18,1.37043,17,119.745,15,-112.319,0\H,19,1.08084,18,119.291,17,-0.821711,0\C,18,1.37948,17,119.565,15,67.9923,0\H,21,1.08227,18,120.023,17,0.0218268,0\C,19,1.38043,18,120.318,17,179.762,0\C,23,1.38706,19,120.08,18,0.407896,0\H,24,1.08118,23,120.267,19,179.394,0\C,21,1.3964,18,119.93,17,-179.563,0\H,26,1.08173,21,120.346,18,179.943,0\C,23,1.47867,19,119.521,18,177.846,0\H,28,1.08631,23,108.867,19,139.124,0\H,28,1.08979,23,109.751,19,21.9761,0\H,28,1.1,23,112.362,19,-98.8108,0\\\@

 Total job time:  94749.67s(wall), 58052.60s(cpu) 
 Mon Sep 27 09:41:45 2021

        *************************************************************
        *                                                           *
        *  Thank you very much for using Q-Chem.  Have a nice day.  *
        *                                                           *
        *************************************************************


