
Running Job 1 of 1 SSI-043PHE-065PHE-1_PCM_TZVPD.in
qchem SSI-043PHE-065PHE-1_PCM_TZVPD.in_42630.0 /tmp/qchem42630/ 0
/global/common/cori/software/qchem/5.2/exe/qcprog.exe_s SSI-043PHE-065PHE-1_PCM_TZVPD.in_42630.0 /tmp/qchem42630/
                  Welcome to Q-Chem
     A Quantum Leap Into The Future Of Chemistry


 Q-Chem 5.2, Q-Chem, Inc., Pleasanton, CA (2019)

 License issued to: National Energy Research Scientific Computing Center

 Yihan Shao,  Zhengting Gan,  E. Epifanovsky,  A. T. B. Gilbert,  M. Wormit,  
 J. Kussmann,  A. W. Lange,  A. Behn,  Jia Deng,  Xintian Feng,  D. Ghosh,  
 M. Goldey,  P. R. Horn,  L. D. Jacobson,  I. Kaliman,  T. Kus,  A. Landau,  
 Jie Liu,  E. I. Proynov,  R. M. Richard,  R. P. Steele,  E. J. Sundstrom,  
 H. L. Woodcock III,  P. M. Zimmerman,  D. Zuev,  B. Albrecht,  E. Alguire,  
 S. A. Baeppler,  D. Barton,  Z. Benda,  Y. A. Bernard,  E. J. Berquist,  
 K. B. Bravaya,  H. Burton,  D. Casanova,  Chun-Min Chang,  Yunqing Chen,  
 A. Chien,  K. D. Closser,  M. P. Coons,  S. Coriani,  S. Dasgupta,  
 A. L. Dempwolff,  M. Diedenhofen,  Hainam Do,  R. G. Edgar,  Po-Tung Fang,  
 S. Faraji,  S. Fatehi,  Qingguo Feng,  K. D. Fenk,  J. Fosso-Tande,  
 J. Gayvert,  Qinghui Ge,  A. Ghysels,  G. Gidofalvi,  J. Gomes,  
 J. Gonthier,  A. Gunina,  D. Hait,  M. W. D. Hanson-Heine,  
 P. H. P. Harbach,  A. W. Hauser,  M. F. Herbst,  J. E. Herr,  
 E. G. Hohenstein,  Z. C. Holden,  Kerwin Hui,  B. C. Huynh,  T.-C. Jagau,  
 Hyunjun Ji,  B. Kaduk,  K. Khistyaev,  Jaehoon Kim,  P. Klunzinger,  K. Koh,  
 D. Kosenkov,  L. Koulias,  T. Kowalczyk,  C. M. Krauter,  A. Kunitsa,  
 Ka Un Lao,  A. Laurent,  K. V. Lawler,  Joonho Lee,  D. Lefrancois,  
 S. Lehtola,  D. S. Levine,  Yi-Pei Li,  You-Sheng Lin,  Fenglai Liu,  
 E. Livshits,  A. Luenser,  P. Manohar,  E. Mansoor,  S. F. Manzer,  
 Shan-Ping Mao,  Yuezhi Mao,  N. Mardirossian,  A. V. Marenich,  
 T. Markovich,  L. A. Martinez-Martinez,  S. A. Maurer,  N. J. Mayhall,  
 S. C. McKenzie,  J.-M. Mewes,  P. Morgante,  A. F. Morrison,  
 J. W. Mullinax,  K. Nanda,  T. S. Nguyen-Beck,  R. Olivares-Amaya,  
 J. A. Parkhill,  Zheng Pei,  T. M. Perrine,  F. Plasser,  P. Pokhilko,  
 S. Prager,  A. Prociuk,  E. Ramos,  D. R. Rehn,  F. Rob,  M. Scheurer,  
 M. Schneider,  N. Sergueev,  S. M. Sharada,  S. Sharma,  D. W. Small,  
 T. Stauch,  T. Stein,  Yu-Chuan Su,  A. J. W. Thom,  A. Tkatchenko,  
 T. Tsuchimochi,  N. M. Tubman,  L. Vogt,  M. L. Vidal,  O. Vydrov,  
 M. A. Watson,  J. Wenzel,  M. de Wergifosse,  T. A. Wesolowski,  A. White,  
 J. Witte,  A. Yamada,  Jun Yang,  K. Yao,  S. Yeganeh,  S. R. Yost,  
 Zhi-Qiang You,  A. Zech,  Igor Ying Zhang,  Xing Zhang,  Yan Zhao,  
 Ying Zhu,  B. R. Brooks,  G. K. L. Chan,  C. J. Cramer,  M. S. Gordon,  
 W. J. Hehre,  A. Klamt,  M. W. Schmidt,  C. D. Sherrill,  D. G. Truhlar,  
 A. Aspuru-Guzik,  R. Baer,  A. T. Bell,  N. A. Besley,  Jeng-Da Chai,  
 A. E. DePrince, III,  R. A. DiStasio Jr.,  A. Dreuw,  B. D. Dunietz,  
 T. R. Furlani,  Chao-Ping Hsu,  Yousung Jung,  Jing Kong,  D. S. Lambrecht,  
 WanZhen Liang,  C. Ochsenfeld,  V. A. Rassolov,  L. V. Slipchenko,  
 J. E. Subotnik,  T. Van Voorhis,  J. M. Herbert,  A. I. Krylov,  
 P. M. W. Gill,  M. Head-Gordon

 Contributors to earlier versions of Q-Chem not listed above: 
 R. D. Adamson,  B. Austin,  J. Baker,  G. J. O. Beran,  K. Brandhorst,  
 S. T. Brown,  E. F. C. Byrd,  A. K. Chakraborty,  C.-L. Cheng,  
 Siu Hung Chien,  D. M. Chipman,  D. L. Crittenden,  H. Dachsel,  
 R. J. Doerksen,  A. D. Dutoi,  L. Fusti-Molnar,  W. A. Goddard III,  
 A. Golubeva-Zadorozhnaya,  S. R. Gwaltney,  G. Hawkins,  A. Heyden,  
 S. Hirata,  G. Kedziora,  F. J. Keil,  C. Kelley,  Jihan Kim,  R. A. King,  
 R. Z. Khaliullin,  P. P. Korambath,  W. Kurlancheek,  A. M. Lee,  M. S. Lee,  
 S. V. Levchenko,  Ching Yeh Lin,  D. Liotard,  R. C. Lochan,  I. Lotan,  
 P. E. Maslen,  N. Nair,  D. P. O'Neill,  D. Neuhauser,  E. Neuscamman,  
 C. M. Oana,  R. Olson,  B. Peters,  R. Peverati,  P. A. Pieniazek,  
 Y. M. Rhee,  J. Ritchie,  M. A. Rohrdanz,  E. Rosta,  N. J. Russ,  
 H. F. Schaefer III,  N. E. Schultz,  N. Shenvi,  A. C. Simmonett,  A. Sodt,  
 D. Stuck,  K. S. Thanthiriwatte,  V. Vanovschi,  Tao Wang,  A. Warshel,  
 C. F. Williams,  Q. Wu,  X. Xu,  W. Zhang

 Please cite Q-Chem as follows:
 Y. Shao et al., Mol. Phys. 113, 184-215 (2015)
 DOI: 10.1080/00268976.2014.952696

 Q-Chem 5.2.0 for Intel X86 EM64T Linux

 Parts of Q-Chem use Armadillo 8.300.2 (Tropical Shenanigans).
 http://arma.sourceforge.net/

 Q-Chem begins on Sun Sep 26 07:31:13 2021  

Host: cori01
0

     Scratch files written to /tmp/qchem42630//
 May1019 |scratch|qcdevops|jenkins|workspace|build_RNUM -1
Processing $rem in /global/common/cori/software/qchem/5.2/config/preferences:
	 MEM_TOTAL  96000 
NAlpha2: 100
NElect   100
Mult     1
Symmetry turned off for PCM/SM12/SMD calculation

 Q-Chem warning in module libgen/rem_setup.C, line 2803:

 Neither GIA nor STOLL is specified by user. Use STOLL as the default


Checking the input file for inconsistencies... 	...done.

--------------------------------------------------------------
User input:
--------------------------------------------------------------
$comment
SSI-043PHE-065PHE-1.pdb
$end

$molecule
0 1
--
0 1
C    2.999250537916   -2.418205276947    3.354073511649
C   -0.403749462084   -1.931205276947    0.745073511649
C    0.859250537916   -2.090205276947    0.215073511649
C   -0.570749462084   -1.905205276947    2.115073511649
C    1.951250537916   -2.251205276947    1.067073511649
C    0.531250537916   -2.074205276947    2.974073511649
C    1.799250537916   -2.251205276947    2.452073511649
H   -1.253749462084   -1.805205276947    0.088073511649
H    0.997250537916   -2.092205276947   -0.856926488351
H   -1.559749462084   -1.766205276947    2.532073511649
H    2.932250537916   -2.391205276947    0.637073511649
H    0.380250537916   -2.060205276947    4.045073511649
H    3.457250537916   -3.380205276947    3.122073511649
H    2.686250537916   -2.439205276947    4.399073511649
H    3.744410537916   -1.621455276947    3.212923511649
--
0 1
C   -2.786749462084    2.793794723053   -3.459926488351
C   -1.042749462084    1.304794723053   -0.431926488351
C    0.275250537916    1.624794723053   -0.690926488351
C   -2.062749462084    1.678794723053   -1.328926488351
C   -1.743749462084    2.403794723053   -2.462926488351
C    0.584250537916    2.346794723053   -1.821926488351
C   -0.419749462084    2.723794723053   -2.705926488351
H   -1.292749462084    0.746794723053    0.460073511649
H    1.052250537916    1.310794723053   -0.007926488351
H   -3.087749462084    1.399794723053   -1.126926488351
H    1.610250537916    2.612794723053   -2.036926488351
H   -2.664749462084    3.854794723053   -3.669926488351
H   -3.782749462084    2.649794723053   -3.039926488351
H   -0.157749462084    3.281794723053   -3.593926488351
H   -2.697849462084    2.233634723053   -4.402436488351
$end

$rem
JOBTYPE			EDA
EDA2			1
method			wB97X-V
BASIS			def2-TZVPD
XC_GRID			000099000590
NL_GRID			1
UNRESTRICTED		FALSE
MAX_SCF_CYCLES		200
SYMMETRY		FALSE
SYM_IGNORE		TRUE
MEM_STATIC		2000
BASIS_LIN_DEP_THRESH 	6
THRESH 			14
SCF_CONVERGENCE 	8
SCF_PRINT_FRGM 		TRUE
SOLVENT_METHOD          PCM
$end

$PCM
THEORY                  CPCM
METHOD                  SWIG
SOLVER                  INVERSION
RADII                   UFF
HPOINTS                 302
HEAVYPOINTS             302
PRINTLEVEL              0
$END

$SOLVENT
DIELECTRIC              78.390000 ! water
$END
--------------------------------------------------------------
 ----------------------------------------------------------------
             Standard Nuclear Orientation (Angstroms)
    I     Atom           X                Y                Z
 ----------------------------------------------------------------
    1      C       2.9992505379    -2.4182052769     3.3540735116
    2      C      -0.4037494621    -1.9312052769     0.7450735116
    3      C       0.8592505379    -2.0902052769     0.2150735116
    4      C      -0.5707494621    -1.9052052769     2.1150735116
    5      C       1.9512505379    -2.2512052769     1.0670735116
    6      C       0.5312505379    -2.0742052769     2.9740735116
    7      C       1.7992505379    -2.2512052769     2.4520735116
    8      H      -1.2537494621    -1.8052052769     0.0880735116
    9      H       0.9972505379    -2.0922052769    -0.8569264884
   10      H      -1.5597494621    -1.7662052769     2.5320735116
   11      H       2.9322505379    -2.3912052769     0.6370735116
   12      H       0.3802505379    -2.0602052769     4.0450735116
   13      H       3.4572505379    -3.3802052769     3.1220735116
   14      H       2.6862505379    -2.4392052769     4.3990735116
   15      H       3.7444105379    -1.6214552769     3.2129235116
   16      C      -2.7867494621     2.7937947231    -3.4599264884
   17      C      -1.0427494621     1.3047947231    -0.4319264884
   18      C       0.2752505379     1.6247947231    -0.6909264884
   19      C      -2.0627494621     1.6787947231    -1.3289264884
   20      C      -1.7437494621     2.4037947231    -2.4629264884
   21      C       0.5842505379     2.3467947231    -1.8219264884
   22      C      -0.4197494621     2.7237947231    -2.7059264884
   23      H      -1.2927494621     0.7467947231     0.4600735116
   24      H       1.0522505379     1.3107947231    -0.0079264884
   25      H      -3.0877494621     1.3997947231    -1.1269264884
   26      H       1.6102505379     2.6127947231    -2.0369264884
   27      H      -2.6647494621     3.8547947231    -3.6699264884
   28      H      -3.7827494621     2.6497947231    -3.0399264884
   29      H      -0.1577494621     3.2817947231    -3.5939264884
   30      H      -2.6978494621     2.2336347231    -4.4024364884
 ----------------------------------------------------------------
 Nuclear Repulsion Energy =         762.07462456 hartrees
 There are       50 alpha and       50 beta electrons
 Requested basis set is def2-TZVPD
 There are 262 shells and 662 basis functions

 Total QAlloc Memory Limit  96000 MB
 Mega-Array Size      1956 MB
 MEM_STATIC part      2000 MB
 Discretize the solute cavity surface with Lebedev spheres
	Using 302 Lebedev grid points for each H atom
	Using 302 Lebedev grid points for other atoms
	Atomic van der Waals radii will be scaled by 1.20
 Remove points where switching function is < 1.0e-08
 Keep 3402 surface tesserae and discard 5658 interior tesserae
 Molecular Surface Area = 327.543 Angst**2
 A cutoff of  1.0D-14 yielded  28377 shell pairs
 There are    181655 function pairs (    228893 Cartesian)
 Smallest overlap matrix eigenvalue = 4.60E-07
 Linear dependence detected in AO basis
 Tighter screening thresholds may be required for diffuse basis sets
 Use S2THRESH > 14 and THRESH = 14 in case of SCF convergence issues
 Number of orthogonalized atomic orbitals = 658
 Maximum deviation from orthogonality = 1.900E-10

 Scale SEOQF with 1.000000e-01/1.000000e-01/1.000000e-01

 Standard Electronic Orientation quadrupole field applied
 Nucleus-field energy     =    -0.0000000089 hartrees

 -----------------------------------------------------------------------
  General SCF calculation program by
  Eric Jon Sundstrom, Paul Horn, Yuezhi Mao, Dmitri Zuev, Alec White,
  David Stuck, Shaama M.S., Shane Yost, Joonho Lee, David Small,
  Daniel Levine, Susi Lehtola, Hugh Burton, Evgeny Epifanovsky
 -----------------------------------------------------------------------
================================================================
                 ALMO-EDA with the EDA2 driver                  
================================================================
 The second-generation ALMO-EDA (for DFT):                      
 P. R. Horn, Y. Mao and M. Head-Gordon, PCCP, 18, 23067 (2016)  
 Decomposition of the frozen energy:                            
 P. R. Horn, Y. Mao and M. Head-Gordon, JCP, 144, 114107 (2016) 
 FERF model for polarization:                                   
 P. R. Horn and M. Head-Gordon, JCP, 143, 114111 (2015)         
Using eda2 option set 1
Option set summary: Frozen orbital wavefunction, initial wavefunction decomposition, and nDQ polarization.
--------------------------------
Printing EDA Options
--------------------------------
eda_child_super_basis      0
fragmo_guess_mode          0
child_mp                   1
child_mp_orders            232
cls_elec                   1
cls_disp                   0
scfmi_mode                 1
scfmi_occs                 0
scfmi_virts                0
frz_relax                  0
frz_relax_method           0
dc_pen_start               0
dc_pen_conv                0
dc_pen_increment           0
dc_pen_steps               0
dc_pen_thresh_factor       0
dc_pen_pre_newton_thresh   0
frz_ortho_decomp           1
frz_ortho_decomp_conv      6
frgm_method                2
scfmi_freeze_ss            0
separate_rehyb             0
plot_diff_den              0
eda_nocv                   0
eda_vct_relax              1
disp_free_x                0
disp_free_c                0
eda_bsse                   0
eda_pct_a                  0
eda_covp                   0
--------------------------------
Attempting to make child job directory: /tmp/qchem42630//Frg1/
Attempting to make child job directory: /tmp/qchem42630//Frg2/
Creating input file /tmp/qchem42630/Frg1.input
using default PutDataFrgm: nothing
calling putenv with: QCSCRATCH=/tmp/qchem42630/ 
calling putenv with: QCLOCALSCR=/tmp/qchem42630/ 
Spawning Job For Fragment 0
                  Welcome to Q-Chem
     A Quantum Leap Into The Future Of Chemistry


 Q-Chem 5.2, Q-Chem, Inc., Pleasanton, CA (2019)

 License issued to: National Energy Research Scientific Computing Center

 Yihan Shao,  Zhengting Gan,  E. Epifanovsky,  A. T. B. Gilbert,  M. Wormit,  
 J. Kussmann,  A. W. Lange,  A. Behn,  Jia Deng,  Xintian Feng,  D. Ghosh,  
 M. Goldey,  P. R. Horn,  L. D. Jacobson,  I. Kaliman,  T. Kus,  A. Landau,  
 Jie Liu,  E. I. Proynov,  R. M. Richard,  R. P. Steele,  E. J. Sundstrom,  
 H. L. Woodcock III,  P. M. Zimmerman,  D. Zuev,  B. Albrecht,  E. Alguire,  
 S. A. Baeppler,  D. Barton,  Z. Benda,  Y. A. Bernard,  E. J. Berquist,  
 K. B. Bravaya,  H. Burton,  D. Casanova,  Chun-Min Chang,  Yunqing Chen,  
 A. Chien,  K. D. Closser,  M. P. Coons,  S. Coriani,  S. Dasgupta,  
 A. L. Dempwolff,  M. Diedenhofen,  Hainam Do,  R. G. Edgar,  Po-Tung Fang,  
 S. Faraji,  S. Fatehi,  Qingguo Feng,  K. D. Fenk,  J. Fosso-Tande,  
 J. Gayvert,  Qinghui Ge,  A. Ghysels,  G. Gidofalvi,  J. Gomes,  
 J. Gonthier,  A. Gunina,  D. Hait,  M. W. D. Hanson-Heine,  
 P. H. P. Harbach,  A. W. Hauser,  M. F. Herbst,  J. E. Herr,  
 E. G. Hohenstein,  Z. C. Holden,  Kerwin Hui,  B. C. Huynh,  T.-C. Jagau,  
 Hyunjun Ji,  B. Kaduk,  K. Khistyaev,  Jaehoon Kim,  P. Klunzinger,  K. Koh,  
 D. Kosenkov,  L. Koulias,  T. Kowalczyk,  C. M. Krauter,  A. Kunitsa,  
 Ka Un Lao,  A. Laurent,  K. V. Lawler,  Joonho Lee,  D. Lefrancois,  
 S. Lehtola,  D. S. Levine,  Yi-Pei Li,  You-Sheng Lin,  Fenglai Liu,  
 E. Livshits,  A. Luenser,  P. Manohar,  E. Mansoor,  S. F. Manzer,  
 Shan-Ping Mao,  Yuezhi Mao,  N. Mardirossian,  A. V. Marenich,  
 T. Markovich,  L. A. Martinez-Martinez,  S. A. Maurer,  N. J. Mayhall,  
 S. C. McKenzie,  J.-M. Mewes,  P. Morgante,  A. F. Morrison,  
 J. W. Mullinax,  K. Nanda,  T. S. Nguyen-Beck,  R. Olivares-Amaya,  
 J. A. Parkhill,  Zheng Pei,  T. M. Perrine,  F. Plasser,  P. Pokhilko,  
 S. Prager,  A. Prociuk,  E. Ramos,  D. R. Rehn,  F. Rob,  M. Scheurer,  
 M. Schneider,  N. Sergueev,  S. M. Sharada,  S. Sharma,  D. W. Small,  
 T. Stauch,  T. Stein,  Yu-Chuan Su,  A. J. W. Thom,  A. Tkatchenko,  
 T. Tsuchimochi,  N. M. Tubman,  L. Vogt,  M. L. Vidal,  O. Vydrov,  
 M. A. Watson,  J. Wenzel,  M. de Wergifosse,  T. A. Wesolowski,  A. White,  
 J. Witte,  A. Yamada,  Jun Yang,  K. Yao,  S. Yeganeh,  S. R. Yost,  
 Zhi-Qiang You,  A. Zech,  Igor Ying Zhang,  Xing Zhang,  Yan Zhao,  
 Ying Zhu,  B. R. Brooks,  G. K. L. Chan,  C. J. Cramer,  M. S. Gordon,  
 W. J. Hehre,  A. Klamt,  M. W. Schmidt,  C. D. Sherrill,  D. G. Truhlar,  
 A. Aspuru-Guzik,  R. Baer,  A. T. Bell,  N. A. Besley,  Jeng-Da Chai,  
 A. E. DePrince, III,  R. A. DiStasio Jr.,  A. Dreuw,  B. D. Dunietz,  
 T. R. Furlani,  Chao-Ping Hsu,  Yousung Jung,  Jing Kong,  D. S. Lambrecht,  
 WanZhen Liang,  C. Ochsenfeld,  V. A. Rassolov,  L. V. Slipchenko,  
 J. E. Subotnik,  T. Van Voorhis,  J. M. Herbert,  A. I. Krylov,  
 P. M. W. Gill,  M. Head-Gordon

 Contributors to earlier versions of Q-Chem not listed above: 
 R. D. Adamson,  B. Austin,  J. Baker,  G. J. O. Beran,  K. Brandhorst,  
 S. T. Brown,  E. F. C. Byrd,  A. K. Chakraborty,  C.-L. Cheng,  
 Siu Hung Chien,  D. M. Chipman,  D. L. Crittenden,  H. Dachsel,  
 R. J. Doerksen,  A. D. Dutoi,  L. Fusti-Molnar,  W. A. Goddard III,  
 A. Golubeva-Zadorozhnaya,  S. R. Gwaltney,  G. Hawkins,  A. Heyden,  
 S. Hirata,  G. Kedziora,  F. J. Keil,  C. Kelley,  Jihan Kim,  R. A. King,  
 R. Z. Khaliullin,  P. P. Korambath,  W. Kurlancheek,  A. M. Lee,  M. S. Lee,  
 S. V. Levchenko,  Ching Yeh Lin,  D. Liotard,  R. C. Lochan,  I. Lotan,  
 P. E. Maslen,  N. Nair,  D. P. O'Neill,  D. Neuhauser,  E. Neuscamman,  
 C. M. Oana,  R. Olson,  B. Peters,  R. Peverati,  P. A. Pieniazek,  
 Y. M. Rhee,  J. Ritchie,  M. A. Rohrdanz,  E. Rosta,  N. J. Russ,  
 H. F. Schaefer III,  N. E. Schultz,  N. Shenvi,  A. C. Simmonett,  A. Sodt,  
 D. Stuck,  K. S. Thanthiriwatte,  V. Vanovschi,  Tao Wang,  A. Warshel,  
 C. F. Williams,  Q. Wu,  X. Xu,  W. Zhang

 Please cite Q-Chem as follows:
 Y. Shao et al., Mol. Phys. 113, 184-215 (2015)
 DOI: 10.1080/00268976.2014.952696

 Q-Chem 5.2.0 for Intel X86 EM64T Linux

 Parts of Q-Chem use Armadillo 8.300.2 (Tropical Shenanigans).
 http://arma.sourceforge.net/

 Q-Chem begins on Sun Sep 26 07:31:20 2021  

Host: cori01
0

     Scratch files written to /tmp/qchem42630//Frg1//
 May1019 |scratch|qcdevops|jenkins|workspace|build_RNUM -1
Processing $rem in /global/common/cori/software/qchem/5.2/config/preferences:
	 MEM_TOTAL  96000 
NAlpha2: 50
NElect   50
Mult     1
Symmetry turned off for PCM/SM12/SMD calculation

Checking the input file for inconsistencies... 	...done.

--------------------------------------------------------------
User input:
--------------------------------------------------------------
$molecule
0 1
 6	2.9992505379	-2.4182052769	3.3540735116
 6	-0.4037494621	-1.9312052769	0.7450735116
 6	0.8592505379	-2.0902052769	0.2150735116
 6	-0.5707494621	-1.9052052769	2.1150735116
 6	1.9512505379	-2.2512052769	1.0670735116
 6	0.5312505379	-2.0742052769	2.9740735116
 6	1.7992505379	-2.2512052769	2.4520735116
 1	-1.2537494621	-1.8052052769	0.0880735116
 1	0.9972505379	-2.0922052769	-0.8569264884
 1	-1.5597494621	-1.7662052769	2.5320735116
 1	2.9322505379	-2.3912052769	0.6370735116
 1	0.3802505379	-2.0602052769	4.0450735116
 1	3.4572505379	-3.3802052769	3.1220735116
 1	2.6862505379	-2.4392052769	4.3990735116
 1	3.7444105379	-1.6214552769	3.2129235116
$end
$rem
EDA2		1
METHOD		WB97X-V
BASIS		DEF2-TZVPD
XC_GRID		000099000590
NL_GRID		1
UNRESTRICTED		FALSE
MAX_SCF_CYCLES		200
SYMMETRY		FALSE
SYM_IGNORE		TRUE
BASIS_LIN_DEP_THRESH		6
THRESH		14
SCF_CONVERGENCE		8
SCF_PRINT_FRGM		TRUE
SOLVENT_METHOD		PCM
!required keywords
JOBTYPE		SP
SYM_IGNORE		TRUE
SUBSYSTEM		TRUE
GEN_SCFMAN		TRUE
CHILD_INSTRUCTION		2
SYM_IGNORE		TRUE
SCFMI		0
RI_K 0		
PARI_K 0		
MIN_PARI_K 0		
IARI_K 0		
OCC_RI_K 0		
PURECART		1111
MEM_STATIC		2000
MEM_TOTAL		96000
GUI		0
CHILD_MP		1
CHILD_MP_ORDERS		232
FRZ_RELAX		0
FRZ_RELAX_METHOD		0
EDA_CLS_ELEC		1
EDA_CLS_DISP		0
FRZ_ORTHO_DECOMP		1
EDA2		FALSE
FRGM_METHOD		FALSE
CIS_N_ROOTS  0
LOCAL_CIS    0
CIS_RLX_DNS  1
$end
$pcm
THEORY                  CPCM
METHOD                  SWIG
SOLVER                  INVERSION
RADII                   UFF
HPOINTS                 302
HEAVYPOINTS             302
PRINTLEVEL              0
$end
$solvent
DIELECTRIC              78.390000 ! water
$end
--------------------------------------------------------------
 ----------------------------------------------------------------
             Standard Nuclear Orientation (Angstroms)
    I     Atom           X                Y                Z
 ----------------------------------------------------------------
    1      C       2.9992505379    -2.4182052769     3.3540735116
    2      C      -0.4037494621    -1.9312052769     0.7450735116
    3      C       0.8592505379    -2.0902052769     0.2150735116
    4      C      -0.5707494621    -1.9052052769     2.1150735116
    5      C       1.9512505379    -2.2512052769     1.0670735116
    6      C       0.5312505379    -2.0742052769     2.9740735116
    7      C       1.7992505379    -2.2512052769     2.4520735116
    8      H      -1.2537494621    -1.8052052769     0.0880735116
    9      H       0.9972505379    -2.0922052769    -0.8569264884
   10      H      -1.5597494621    -1.7662052769     2.5320735116
   11      H       2.9322505379    -2.3912052769     0.6370735116
   12      H       0.3802505379    -2.0602052769     4.0450735116
   13      H       3.4572505379    -3.3802052769     3.1220735116
   14      H       2.6862505379    -2.4392052769     4.3990735116
   15      H       3.7444105379    -1.6214552769     3.2129235116
 ----------------------------------------------------------------
 Nuclear Repulsion Energy =         270.07702604 hartrees
 There are       25 alpha and       25 beta electrons
 Requested basis set is def2-TZVPD
 There are 131 shells and 331 basis functions

 Total QAlloc Memory Limit  96000 MB
 Mega-Array Size      1956 MB
 MEM_STATIC part      2000 MB
 Discretize the solute cavity surface with Lebedev spheres
	Using 302 Lebedev grid points for each H atom
	Using 302 Lebedev grid points for other atoms
	Atomic van der Waals radii will be scaled by 1.20
 Remove points where switching function is < 1.0e-08
 Keep 1807 surface tesserae and discard 2723 interior tesserae
 Molecular Surface Area = 177.877 Angst**2

                       Distance Matrix (Angstroms)
             C (  1)   C (  2)   C (  3)   C (  4)   C (  5)   C (  6)
   C (  2)  4.315606
   C (  3)  3.813201  1.378894
   C (  4)  3.813553  1.380386  2.385189
   C (  5)  2.521222  2.398355  1.394378  2.752908
   C (  6)  2.520667  2.421387  2.778475  1.407425  2.384193
   C (  7)  1.510461  2.805255  2.431808  2.418716  1.393316  1.382620
   H (  8)  5.397271  1.081677  2.135913  2.141312  3.380737  3.404054
   H (  9)  4.674056  2.134274  1.080848  3.365468  2.153410  3.859280
   H ( 10)  4.678169  2.134697  3.365268  1.082280  3.835175  2.159284
   H ( 11)  2.717960  3.369297  2.136823  3.832974  1.080213  3.365540
   H ( 12)  2.732180  3.394304  3.859953  2.157157  3.372389  1.081683
   H ( 13)  1.090427  4.759942  4.106623  4.406184  2.786701  3.207650
   H ( 14)  1.091071  4.812264  4.578819  4.013709  3.417279  2.609190
   H ( 15)  1.099999  4.836679  4.187001  4.461658  2.866475  3.253679
             C (  7)   H (  8)   H (  9)   H ( 10)   H ( 11)   H ( 12)
   H (  8)  3.886930
   H (  9)  3.408514  2.458128
   H ( 10)  3.394776  2.463391  4.257916
   H ( 11)  2.144181  4.262322  2.462856  4.915253
   H ( 12)  2.141890  4.288686  4.940781  2.477742  4.270448
   H ( 13)  2.114830  5.820593  4.852111  5.303149  2.725614  3.473076
   H ( 14)  2.147771  5.874545  5.531606  4.686911  3.770340  2.363597
   H ( 15)  2.181542  5.897462  4.932765  5.349638  2.808402  3.493215
             H ( 13)   H ( 14)
   H ( 14)  1.763704
   H ( 15)  1.784353  1.787560
 
 A cutoff of  1.0D-14 yielded   8360 shell pairs
 There are     54484 function pairs (     69429 Cartesian)
 Smallest overlap matrix eigenvalue = 5.36E-07
 Linear dependence detected in AO basis
 Tighter screening thresholds may be required for diffuse basis sets
 Use S2THRESH > 14 and THRESH = 14 in case of SCF convergence issues
 Number of orthogonalized atomic orbitals = 330
 Maximum deviation from orthogonality = 2.269E-10

 Scale SEOQF with 1.000000e-01/1.000000e-01/1.000000e-01

 Standard Electronic Orientation quadrupole field applied
 Nucleus-field energy     =    -0.0000000055 hartrees
 Guess from superposition of atomic densities
 Warning:  Energy on first SCF cycle will be non-variational
 SAD guess density has 49.913408 electrons

 -----------------------------------------------------------------------
  General SCF calculation program by
  Eric Jon Sundstrom, Paul Horn, Yuezhi Mao, Dmitri Zuev, Alec White,
  David Stuck, Shaama M.S., Shane Yost, Joonho Lee, David Small,
  Daniel Levine, Susi Lehtola, Hugh Burton, Evgeny Epifanovsky
 -----------------------------------------------------------------------
 Exchange:     0.1670 Hartree-Fock + 1.0000 wB97X-V + LR-HF
 Correlation:  1.0000 wB97X-V
 Using Euler-Maclaurin-Lebedev (99,590) quadrature formula
 Nonlocal Correlation:  VV10 with C = 0.0100 and b = 6.00 and scale = 1.00000
 Grid used for NLC:  SG-1 standard quadrature
Energy prior to optimization (guess energy) = -271.519416065432
Begin Timing: Total SCF Calculation
begin iterations for algorithm: DIIS         
the SCF tolerance is set to 1.00e-08
    1    -271.5194160654      1.98e-03     00000 
    2    -271.5586289291      1.27e-03     00000 
    3    -271.5810950434      1.39e-04     00000 
    4    -271.5815113811      4.80e-05     00000 
    5    -271.5815458562      1.56e-05     00000 
    6    -271.5815502500      3.45e-06     00000 
    7    -271.5815505404      1.39e-06     00000 
    8    -271.5815505764      4.27e-07     00000 
    9    -271.5815505816      1.03e-07     00000 
   10    -271.5815505824      5.46e-08     00000 
   11    -271.5815505826      2.78e-08     00000 
   12    -271.5815505826      6.36e-09     00000 Convergence criterion met
Timing for Total SCF: 1446.00s (wall), 2872.88s (cpu)

************** Final PCM Free Energy Summary **************
 G_electrostatic  =      -0.00245865 hartree =      -1.54282625 kcal/mol
 G_cavitation     =       0.00000000 hartree =       0.00000000 kcal/mol
 G_dispersion     =       0.00000000 hartree =       0.00000000 kcal/mol
 G_repulsion      =       0.00000000 hartree =       0.00000000 kcal/mol
 --------------------------------------------------
 Non-electrostatic Free Energy =       0.00000000 hartree =       0.00000000 kcal/mol
 Total                         =      -0.00245865 hartree =      -1.54282625 kcal/mol
 --------------------------------------------------
 SCF Energy (H0 + V/2)                       =    -271.58155058 
 Solute Internal Energy (H0)                 =    -271.57909193 
 Total Free Energy (H0 + V/2 + non-elec)     =    -271.58155058 hartree
                                             = -170419.99513946 kcal/mol
***********************************************************

E_pcm = -0.0024586501
Multipole orders to be included
        2
        3
computing dipole RHS
computing quadrupole RHS
total number of RHS in solve_reponses: 8
RHS batch sizes
        8
Beginning Block Conjugate Gradient Iterations. Batch Number: 0
computing hessian-vector products by finite difference
              1      5.84e-01     00000 Conjugate Gradient Iteration
computing hessian-vector products by finite difference
              2      1.92e-01     00000 Conjugate Gradient Iteration
computing hessian-vector products by finite difference
              3      4.46e-02     00000 Conjugate Gradient Iteration
computing hessian-vector products by finite difference
              4      1.00e-02     00000 Conjugate Gradient Iteration
computing hessian-vector products by finite difference
              5      2.09e-03     00000 Conjugate Gradient Iteration
computing hessian-vector products by finite difference
              6      5.81e-04     00000 Conjugate Gradient Iteration
computing hessian-vector products by finite difference
              7      1.95e-04     00000 Conjugate Gradient Iteration
computing hessian-vector products by finite difference
              8      2.95e-05     00000 Conjugate Gradient Iteration
computing hessian-vector products by finite difference
              9      3.34e-06     00000 Conjugate Gradient Iteration
computing hessian-vector products by finite difference
             10      4.33e-07     00000 Conjugate Gradient Iteration
computing hessian-vector products by finite difference
             11      6.14e-08     00000 Conjugate Gradient Iteration
computing hessian-vector products by finite difference
             12      9.11e-09     00000 CG Converged
batch 0 complete
Done Calculating Responses
TESTING ORTHOGONALIZATION OF MULTIPOLE BASIS
Multipole virts passed orthogonality test
Virts Per Order
           75
          124
 
 --------------------------------------------------------------
 
                    Orbital Energies (a.u.)
 --------------------------------------------------------------
 
 Alpha MOs
 -- Occupied --
-10.2815 -10.2731 -10.2720 -10.2703 -10.2692 -10.2679 -10.2638  -0.9989
 -0.9094  -0.8771  -0.8150  -0.7323  -0.7050  -0.6312  -0.5748  -0.5666
 -0.5363  -0.5276  -0.5162  -0.4901  -0.4747  -0.4431  -0.4394  -0.3477
 -0.3408
 -- Virtual --
  0.0615   0.0629   0.0715   0.0788   0.0845   0.1043   0.1100   0.1133
  0.1355   0.1540   0.1642   0.1730   0.1803   0.1902   0.1941   0.1985
  0.2224   0.2278   0.2332   0.2414   0.2455   0.2548   0.2591   0.2701
  0.2787   0.2830   0.2870   0.2920   0.2935   0.2997   0.3016   0.3117
  0.3227   0.3262   0.3279   0.3415   0.3487   0.3527   0.3660   0.3710
  0.3718   0.3811   0.3854   0.3918   0.3934   0.3972   0.3981   0.4045
  0.4142   0.4256   0.4301   0.4374   0.4413   0.4472   0.4521   0.4599
  0.4677   0.4715   0.4781   0.4853   0.4971   0.5011   0.5078   0.5091
  0.5156   0.5185   0.5293   0.5447   0.5460   0.5513   0.5611   0.5638
  0.5707   0.5713   0.5881   0.5923   0.5973   0.6250   0.6317   0.6432
  0.6652   0.6782   0.6831   0.6843   0.6935   0.7023   0.7196   0.7237
  0.7290   0.7341   0.7428   0.7610   0.7644   0.7673   0.7746   0.7813
  0.7878   0.7922   0.7950   0.8004   0.8137   0.8233   0.8260   0.8281
  0.8324   0.8365   0.8490   0.8543   0.8607   0.8707   0.8761   0.8960
  0.9168   0.9289   0.9422   0.9495   0.9545   1.0031   1.0379   1.0401
  1.0528   1.0568   1.0635   1.0776   1.0896   1.0980   1.1054   1.1418
  1.1603   1.1680   1.2669   1.2719   1.2950   1.3273   1.3578   1.3680
  1.3692   1.4439   1.4526   1.4596   1.4669   1.4720   1.5316   1.5389
  1.6078   1.6147   1.6217   1.6299   1.6408   1.6830   1.7313   1.7690
  1.7813   1.7944   1.8018   1.8160   1.8354   1.8442   1.8794   1.9108
  1.9150   1.9239   1.9267   1.9732   1.9888   1.9900   2.0120   2.0302
  2.0361   2.0442   2.0699   2.0865   2.1061   2.1221   2.1726   2.1905
  2.2037   2.2327   2.2451   2.2695   2.2881   2.3146   2.3759   2.3951
  2.4149   2.4272   2.4584   2.5211   2.5459   2.5561   2.5642   2.5969
  2.6157   2.6470   2.6630   2.6745   2.7022   2.7170   2.7671   2.7768
  2.7842   2.8062   2.8152   2.8500   2.8637   2.8983   2.9087   2.9185
  2.9368   2.9416   2.9799   2.9830   3.0016   3.0090   3.0249   3.0506
  3.0560   3.0885   3.1008   3.1321   3.1603   3.1895   3.1940   3.2134
  3.2241   3.2585   3.2696   3.2875   3.3447   3.3523   3.3663   3.3785
  3.4125   3.4284   3.4399   3.4488   3.4536   3.4752   3.4905   3.4982
  3.5075   3.5408   3.5436   3.5455   3.5557   3.5710   3.5788   3.6125
  3.6176   3.6395   3.6615   3.7005   3.7242   3.7472   3.7687   3.8073
  3.8605   3.9039   3.9350   3.9517   3.9612   3.9807   4.0384   4.0612
  4.1348   4.2083   4.2677   4.2771   4.2825   4.3124   4.3243   4.3435
  4.3688   4.3807   4.3914   4.4082   4.4283   4.4585   4.5045   4.5539
  4.5963   4.6053   4.7720   4.7928   4.8184   4.8394   4.9153   4.9499
  5.0272   5.0403   5.1716   5.2691   5.3803   5.4007   5.4946   5.5332
  5.6782   5.8490  22.5837  22.6756  22.8981  22.9113  23.0113  23.1003
 23.4417
 --------------------------------------------------------------
 
          Ground-State Mulliken Net Atomic Charges

     Atom                 Charge (a.u.)
  ----------------------------------------
      1 C                    -1.013235
      2 C                    -0.476950
      3 C                    -0.465239
      4 C                    -0.501212
      5 C                    -0.243085
      6 C                    -0.432808
      7 C                     0.823611
      8 H                     0.332019
      9 H                     0.310519
     10 H                     0.306776
     11 H                     0.346388
     12 H                     0.284535
     13 H                     0.229207
     14 H                     0.268847
     15 H                     0.230626
  ----------------------------------------
  Sum of atomic charges =     0.000000

 -----------------------------------------------------------------
                    Cartesian Multipole Moments
 -----------------------------------------------------------------
    Charge (ESU x 10^10)
                -0.0000
    Dipole Moment (Debye)
         X       0.4121      Y      -0.0651      Z       0.2486
       Tot       0.4857
    Quadrupole Moments (Debye-Ang)
        XX     -37.4369     XY      -2.0549     YY     -45.8458
        XZ       1.2874     YZ      -0.7749     ZZ     -37.2304
    Octopole Moments (Debye-Ang^2)
       XXX    -126.1299    XXY      79.4309    XYY     -39.7653
       YYY     293.8493    XXZ     -71.0379    XYZ      -4.5519
       YYZ     -83.3004    XZZ     -39.6780    YZZ      79.3224
       ZZZ    -216.2500
    Hexadecapole Moments (Debye-Ang^3)
      XXXX    -758.2480   XXXY     299.1374   XXYY    -313.9715
      XYYY     310.9385   YYYY   -1324.0186   XXXZ    -318.3862
      XXYZ     156.8151   XYYZ     -98.1430   YYYZ     553.0199
      XXZZ    -332.1940   XYZZ      91.3477   YYZZ    -417.9168
      XZZZ    -315.2361   YZZZ     474.3040   ZZZZ   -1223.6207
 -----------------------------------------------------------------
Archival summary:
1\1\nid00563\SP\ProcedureUnspecified\BasisUnspecified\78\meili\SunSep2615:32:122021SunSep2615:32:122021\0\\#,ProcedureUnspecified,BasisUnspecified,\\0,1\C\C,1,1.38262\H,2,1.08168,1,120.232\C,1,1.39332,2,118.381,3,-179.448,0\H,4,1.08021,1,119.654,2,-179.79,0\C,4,1.39438,1,121.463,2,-0.586938,0\H,6,1.08085,4,120.386,1,179.953,0\C,6,1.37889,4,119.721,1,-0.219255,0\H,8,1.08168,6,119.983,4,179.952,0\C,8,1.38039,6,119.634,4,1.34031,0\H,10,1.08228,8,119.694,6,179.124,0\C,1,1.51046,2,121.151,3,-0.452068,0\H,12,1.09043,1,107.709,2,121.101,0\H,12,1.09107,1,110.253,2,3.60722,0\H,12,1.1,1,112.425,2,-118.679,0\\\@

 Total job time:  28855.01s(wall), 57257.00s(cpu) 
 Sun Sep 26 15:32:15 2021

        *************************************************************
        *                                                           *
        *  Thank you very much for using Q-Chem.  Have a nice day.  *
        *                                                           *
        *************************************************************


Done Job For Fragment 0
calling putenv with: QCSCRATCH=/global/cscratch1/sd/meili 
calling putenv with: QCLOCALSCR=/tmp 
calling putenv with: QCTHREADS=32 
Creating input file /tmp/qchem42630/Frg2.input
using default PutDataFrgm: nothing
calling putenv with: QCSCRATCH=/tmp/qchem42630/ 
calling putenv with: QCLOCALSCR=/tmp/qchem42630/ 
Spawning Job For Fragment 1
                  Welcome to Q-Chem
     A Quantum Leap Into The Future Of Chemistry


 Q-Chem 5.2, Q-Chem, Inc., Pleasanton, CA (2019)

 License issued to: National Energy Research Scientific Computing Center

 Yihan Shao,  Zhengting Gan,  E. Epifanovsky,  A. T. B. Gilbert,  M. Wormit,  
 J. Kussmann,  A. W. Lange,  A. Behn,  Jia Deng,  Xintian Feng,  D. Ghosh,  
 M. Goldey,  P. R. Horn,  L. D. Jacobson,  I. Kaliman,  T. Kus,  A. Landau,  
 Jie Liu,  E. I. Proynov,  R. M. Richard,  R. P. Steele,  E. J. Sundstrom,  
 H. L. Woodcock III,  P. M. Zimmerman,  D. Zuev,  B. Albrecht,  E. Alguire,  
 S. A. Baeppler,  D. Barton,  Z. Benda,  Y. A. Bernard,  E. J. Berquist,  
 K. B. Bravaya,  H. Burton,  D. Casanova,  Chun-Min Chang,  Yunqing Chen,  
 A. Chien,  K. D. Closser,  M. P. Coons,  S. Coriani,  S. Dasgupta,  
 A. L. Dempwolff,  M. Diedenhofen,  Hainam Do,  R. G. Edgar,  Po-Tung Fang,  
 S. Faraji,  S. Fatehi,  Qingguo Feng,  K. D. Fenk,  J. Fosso-Tande,  
 J. Gayvert,  Qinghui Ge,  A. Ghysels,  G. Gidofalvi,  J. Gomes,  
 J. Gonthier,  A. Gunina,  D. Hait,  M. W. D. Hanson-Heine,  
 P. H. P. Harbach,  A. W. Hauser,  M. F. Herbst,  J. E. Herr,  
 E. G. Hohenstein,  Z. C. Holden,  Kerwin Hui,  B. C. Huynh,  T.-C. Jagau,  
 Hyunjun Ji,  B. Kaduk,  K. Khistyaev,  Jaehoon Kim,  P. Klunzinger,  K. Koh,  
 D. Kosenkov,  L. Koulias,  T. Kowalczyk,  C. M. Krauter,  A. Kunitsa,  
 Ka Un Lao,  A. Laurent,  K. V. Lawler,  Joonho Lee,  D. Lefrancois,  
 S. Lehtola,  D. S. Levine,  Yi-Pei Li,  You-Sheng Lin,  Fenglai Liu,  
 E. Livshits,  A. Luenser,  P. Manohar,  E. Mansoor,  S. F. Manzer,  
 Shan-Ping Mao,  Yuezhi Mao,  N. Mardirossian,  A. V. Marenich,  
 T. Markovich,  L. A. Martinez-Martinez,  S. A. Maurer,  N. J. Mayhall,  
 S. C. McKenzie,  J.-M. Mewes,  P. Morgante,  A. F. Morrison,  
 J. W. Mullinax,  K. Nanda,  T. S. Nguyen-Beck,  R. Olivares-Amaya,  
 J. A. Parkhill,  Zheng Pei,  T. M. Perrine,  F. Plasser,  P. Pokhilko,  
 S. Prager,  A. Prociuk,  E. Ramos,  D. R. Rehn,  F. Rob,  M. Scheurer,  
 M. Schneider,  N. Sergueev,  S. M. Sharada,  S. Sharma,  D. W. Small,  
 T. Stauch,  T. Stein,  Yu-Chuan Su,  A. J. W. Thom,  A. Tkatchenko,  
 T. Tsuchimochi,  N. M. Tubman,  L. Vogt,  M. L. Vidal,  O. Vydrov,  
 M. A. Watson,  J. Wenzel,  M. de Wergifosse,  T. A. Wesolowski,  A. White,  
 J. Witte,  A. Yamada,  Jun Yang,  K. Yao,  S. Yeganeh,  S. R. Yost,  
 Zhi-Qiang You,  A. Zech,  Igor Ying Zhang,  Xing Zhang,  Yan Zhao,  
 Ying Zhu,  B. R. Brooks,  G. K. L. Chan,  C. J. Cramer,  M. S. Gordon,  
 W. J. Hehre,  A. Klamt,  M. W. Schmidt,  C. D. Sherrill,  D. G. Truhlar,  
 A. Aspuru-Guzik,  R. Baer,  A. T. Bell,  N. A. Besley,  Jeng-Da Chai,  
 A. E. DePrince, III,  R. A. DiStasio Jr.,  A. Dreuw,  B. D. Dunietz,  
 T. R. Furlani,  Chao-Ping Hsu,  Yousung Jung,  Jing Kong,  D. S. Lambrecht,  
 WanZhen Liang,  C. Ochsenfeld,  V. A. Rassolov,  L. V. Slipchenko,  
 J. E. Subotnik,  T. Van Voorhis,  J. M. Herbert,  A. I. Krylov,  
 P. M. W. Gill,  M. Head-Gordon

 Contributors to earlier versions of Q-Chem not listed above: 
 R. D. Adamson,  B. Austin,  J. Baker,  G. J. O. Beran,  K. Brandhorst,  
 S. T. Brown,  E. F. C. Byrd,  A. K. Chakraborty,  C.-L. Cheng,  
 Siu Hung Chien,  D. M. Chipman,  D. L. Crittenden,  H. Dachsel,  
 R. J. Doerksen,  A. D. Dutoi,  L. Fusti-Molnar,  W. A. Goddard III,  
 A. Golubeva-Zadorozhnaya,  S. R. Gwaltney,  G. Hawkins,  A. Heyden,  
 S. Hirata,  G. Kedziora,  F. J. Keil,  C. Kelley,  Jihan Kim,  R. A. King,  
 R. Z. Khaliullin,  P. P. Korambath,  W. Kurlancheek,  A. M. Lee,  M. S. Lee,  
 S. V. Levchenko,  Ching Yeh Lin,  D. Liotard,  R. C. Lochan,  I. Lotan,  
 P. E. Maslen,  N. Nair,  D. P. O'Neill,  D. Neuhauser,  E. Neuscamman,  
 C. M. Oana,  R. Olson,  B. Peters,  R. Peverati,  P. A. Pieniazek,  
 Y. M. Rhee,  J. Ritchie,  M. A. Rohrdanz,  E. Rosta,  N. J. Russ,  
 H. F. Schaefer III,  N. E. Schultz,  N. Shenvi,  A. C. Simmonett,  A. Sodt,  
 D. Stuck,  K. S. Thanthiriwatte,  V. Vanovschi,  Tao Wang,  A. Warshel,  
 C. F. Williams,  Q. Wu,  X. Xu,  W. Zhang

 Please cite Q-Chem as follows:
 Y. Shao et al., Mol. Phys. 113, 184-215 (2015)
 DOI: 10.1080/00268976.2014.952696

 Q-Chem 5.2.0 for Intel X86 EM64T Linux

 Parts of Q-Chem use Armadillo 8.300.2 (Tropical Shenanigans).
 http://arma.sourceforge.net/

 Q-Chem begins on Sun Sep 26 15:32:19 2021  

Host: cori01
0

     Scratch files written to /tmp/qchem42630//Frg2//
 May1019 |scratch|qcdevops|jenkins|workspace|build_RNUM -1
Processing $rem in /global/common/cori/software/qchem/5.2/config/preferences:
	 MEM_TOTAL  96000 
NAlpha2: 50
NElect   50
Mult     1
Symmetry turned off for PCM/SM12/SMD calculation

Checking the input file for inconsistencies... 	...done.

--------------------------------------------------------------
User input:
--------------------------------------------------------------
$molecule
0 1
 6	-2.7867494621	2.7937947231	-3.4599264884
 6	-1.0427494621	1.3047947231	-0.4319264884
 6	0.2752505379	1.6247947231	-0.6909264884
 6	-2.0627494621	1.6787947231	-1.3289264884
 6	-1.7437494621	2.4037947231	-2.4629264884
 6	0.5842505379	2.3467947231	-1.8219264884
 6	-0.4197494621	2.7237947231	-2.7059264884
 1	-1.2927494621	0.7467947231	0.4600735116
 1	1.0522505379	1.3107947231	-0.0079264884
 1	-3.0877494621	1.3997947231	-1.1269264884
 1	1.6102505379	2.6127947231	-2.0369264884
 1	-2.6647494621	3.8547947231	-3.6699264884
 1	-3.7827494621	2.6497947231	-3.0399264884
 1	-0.1577494621	3.2817947231	-3.5939264884
 1	-2.6978494621	2.2336347231	-4.4024364884
$end
$rem
EDA2		1
METHOD		WB97X-V
BASIS		DEF2-TZVPD
XC_GRID		000099000590
NL_GRID		1
UNRESTRICTED		FALSE
MAX_SCF_CYCLES		200
SYMMETRY		FALSE
SYM_IGNORE		TRUE
BASIS_LIN_DEP_THRESH		6
THRESH		14
SCF_CONVERGENCE		8
SCF_PRINT_FRGM		TRUE
SOLVENT_METHOD		PCM
!required keywords
JOBTYPE		SP
SYM_IGNORE		TRUE
SUBSYSTEM		TRUE
GEN_SCFMAN		TRUE
CHILD_INSTRUCTION		2
SYM_IGNORE		TRUE
SCFMI		0
RI_K 0		
PARI_K 0		
MIN_PARI_K 0		
IARI_K 0		
OCC_RI_K 0		
PURECART		1111
MEM_STATIC		2000
MEM_TOTAL		96000
GUI		0
CHILD_MP		1
CHILD_MP_ORDERS		232
FRZ_RELAX		0
FRZ_RELAX_METHOD		0
EDA_CLS_ELEC		1
EDA_CLS_DISP		0
FRZ_ORTHO_DECOMP		1
EDA2		FALSE
FRGM_METHOD		FALSE
CIS_N_ROOTS  0
LOCAL_CIS    0
CIS_RLX_DNS  1
$end
$pcm
THEORY                  CPCM
METHOD                  SWIG
SOLVER                  INVERSION
RADII                   UFF
HPOINTS                 302
HEAVYPOINTS             302
PRINTLEVEL              0
$end
$solvent
DIELECTRIC              78.390000 ! water
$end
--------------------------------------------------------------
 ----------------------------------------------------------------
             Standard Nuclear Orientation (Angstroms)
    I     Atom           X                Y                Z
 ----------------------------------------------------------------
    1      C      -2.7867494621     2.7937947231    -3.4599264884
    2      C      -1.0427494621     1.3047947231    -0.4319264884
    3      C       0.2752505379     1.6247947231    -0.6909264884
    4      C      -2.0627494621     1.6787947231    -1.3289264884
    5      C      -1.7437494621     2.4037947231    -2.4629264884
    6      C       0.5842505379     2.3467947231    -1.8219264884
    7      C      -0.4197494621     2.7237947231    -2.7059264884
    8      H      -1.2927494621     0.7467947231     0.4600735116
    9      H       1.0522505379     1.3107947231    -0.0079264884
   10      H      -3.0877494621     1.3997947231    -1.1269264884
   11      H       1.6102505379     2.6127947231    -2.0369264884
   12      H      -2.6647494621     3.8547947231    -3.6699264884
   13      H      -3.7827494621     2.6497947231    -3.0399264884
   14      H      -0.1577494621     3.2817947231    -3.5939264884
   15      H      -2.6978494621     2.2336347231    -4.4024364884
 ----------------------------------------------------------------
 Nuclear Repulsion Energy =         270.87468720 hartrees
 There are       25 alpha and       25 beta electrons
 Requested basis set is def2-TZVPD
 There are 131 shells and 331 basis functions

 Total QAlloc Memory Limit  96000 MB
 Mega-Array Size      1956 MB
 MEM_STATIC part      2000 MB
 Discretize the solute cavity surface with Lebedev spheres
	Using 302 Lebedev grid points for each H atom
	Using 302 Lebedev grid points for other atoms
	Atomic van der Waals radii will be scaled by 1.20
 Remove points where switching function is < 1.0e-08
 Keep 1791 surface tesserae and discard 2739 interior tesserae
 Molecular Surface Area = 177.862 Angst**2

                       Distance Matrix (Angstroms)
             C (  1)   C (  2)   C (  3)   C (  4)   C (  5)   C (  6)
   C (  2)  3.798347
   C (  3)  4.290660  1.380799
   C (  4)  2.511685  1.408859  2.424088
   C (  5)  1.494643  2.413330  2.796996  1.383236
   C (  6)  3.774453  2.380125  1.376926  2.774145  2.415308
   C (  7)  2.485177  2.751866  2.398135  2.384870  1.383627  1.389820
   H (  8)  4.667831  1.081447  2.134083  2.159177  3.390130  3.360157
   H (  9)  5.371547  2.137484  1.081117  3.403482  3.878052  2.140775
   H ( 10)  2.734360  2.161961  3.398601  1.081328  2.144586  3.855310
   H ( 11)  4.625073  3.365308  2.137776  3.855457  3.387399  1.081507
   H ( 12)  1.088442  4.429224  4.742461  3.252332  2.100117  4.030530
   H ( 13)  1.090482  4.014759  4.799561  2.613190  2.133299  4.543789
   H ( 14)  2.677264  3.832753  3.370541  3.365837  2.136689  2.136533
   H ( 15)  1.100003  4.400801  4.794300  3.187109  2.168170  4.176604
             C (  7)   H (  8)   H (  9)   H ( 10)   H ( 11)   H ( 12)
   H (  8)  3.833303
   H (  9)  3.382685  2.456857
   H ( 10)  3.371119  2.483345  4.289485
   H ( 11)  2.140276  4.259621  2.474552  4.936666
   H ( 12)  2.692301  5.347798  5.805021  3.559888  4.741822
   H ( 13)  3.380355  4.698032  5.862011  2.388534  5.485602  1.760355
   H ( 14)  1.080996  4.914200  4.267123  4.267659  2.449007  2.572772
   H ( 15)  2.882385  5.275320  5.850351  3.402393  4.929414  1.779277
             H ( 13)   H ( 14)
   H ( 14)  3.721151
   H ( 15)  1.790707  2.864339
 
 A cutoff of  1.0D-14 yielded   8363 shell pairs
 There are     54531 function pairs (     69493 Cartesian)
 Smallest overlap matrix eigenvalue = 5.42E-07
 Linear dependence detected in AO basis
 Tighter screening thresholds may be required for diffuse basis sets
 Use S2THRESH > 14 and THRESH = 14 in case of SCF convergence issues
 Number of orthogonalized atomic orbitals = 330
 Maximum deviation from orthogonality = 1.624E-10

 Scale SEOQF with 1.000000e-01/1.000000e-01/1.000000e-01

 Standard Electronic Orientation quadrupole field applied
 Nucleus-field energy     =    -0.0000000034 hartrees
 Guess from superposition of atomic densities
 Warning:  Energy on first SCF cycle will be non-variational
 SAD guess density has 49.913408 electrons

 -----------------------------------------------------------------------
  General SCF calculation program by
  Eric Jon Sundstrom, Paul Horn, Yuezhi Mao, Dmitri Zuev, Alec White,
  David Stuck, Shaama M.S., Shane Yost, Joonho Lee, David Small,
  Daniel Levine, Susi Lehtola, Hugh Burton, Evgeny Epifanovsky
 -----------------------------------------------------------------------
 Exchange:     0.1670 Hartree-Fock + 1.0000 wB97X-V + LR-HF
 Correlation:  1.0000 wB97X-V
 Using Euler-Maclaurin-Lebedev (99,590) quadrature formula
 Nonlocal Correlation:  VV10 with C = 0.0100 and b = 6.00 and scale = 1.00000
 Grid used for NLC:  SG-1 standard quadrature
Energy prior to optimization (guess energy) = -271.517636462620
Begin Timing: Total SCF Calculation
begin iterations for algorithm: DIIS         
the SCF tolerance is set to 1.00e-08
    1    -271.5176364626      2.00e-03     00000 
    2    -271.5573192277      1.29e-03     00000 
    3    -271.5805065462      1.41e-04     00000 
    4    -271.5809216648      5.26e-05     00000 
    5    -271.5809608577      1.74e-05     00000 
    6    -271.5809659870      4.81e-06     00000 
    7    -271.5809664161      2.05e-06     00000 
    8    -271.5809664930      3.53e-07     00000 
    9    -271.5809664975      1.07e-07     00000 
   10    -271.5809664981      6.44e-08     00000 
   11    -271.5809664983      2.48e-08     00000 
   12    -271.5809664983      7.67e-09     00000 Convergence criterion met
Timing for Total SCF: 1470.00s (wall), 2912.37s (cpu)

************** Final PCM Free Energy Summary **************
 G_electrostatic  =      -0.00242010 hartree =      -1.51863493 kcal/mol
 G_cavitation     =       0.00000000 hartree =       0.00000000 kcal/mol
 G_dispersion     =       0.00000000 hartree =       0.00000000 kcal/mol
 G_repulsion      =       0.00000000 hartree =       0.00000000 kcal/mol
 --------------------------------------------------
 Non-electrostatic Free Energy =       0.00000000 hartree =       0.00000000 kcal/mol
 Total                         =      -0.00242010 hartree =      -1.51863493 kcal/mol
 --------------------------------------------------
 SCF Energy (H0 + V/2)                       =    -271.58096650 
 Solute Internal Energy (H0)                 =    -271.57854640 
 Total Free Energy (H0 + V/2 + non-elec)     =    -271.58096650 hartree
                                             = -170419.62862105 kcal/mol
***********************************************************

E_pcm = -0.0024200988
Multipole orders to be included
        2
        3
computing dipole RHS
computing quadrupole RHS
total number of RHS in solve_reponses: 8
RHS batch sizes
        8
Beginning Block Conjugate Gradient Iterations. Batch Number: 0
computing hessian-vector products by finite difference
              1      5.80e-01     00000 Conjugate Gradient Iteration
computing hessian-vector products by finite difference
              2      1.90e-01     00000 Conjugate Gradient Iteration
computing hessian-vector products by finite difference
              3      4.43e-02     00000 Conjugate Gradient Iteration
computing hessian-vector products by finite difference
              4      1.00e-02     00000 Conjugate Gradient Iteration
computing hessian-vector products by finite difference
              5      2.06e-03     00000 Conjugate Gradient Iteration
computing hessian-vector products by finite difference
              6      5.76e-04     00000 Conjugate Gradient Iteration
computing hessian-vector products by finite difference
              7      1.49e-04     00000 Conjugate Gradient Iteration
computing hessian-vector products by finite difference
              8      2.19e-05     00000 Conjugate Gradient Iteration
computing hessian-vector products by finite difference
              9      2.85e-06     00000 Conjugate Gradient Iteration
computing hessian-vector products by finite difference
             10      4.78e-07     00000 Conjugate Gradient Iteration
computing hessian-vector products by finite difference
             11      8.73e-08     00000 Conjugate Gradient Iteration
computing hessian-vector products by finite difference
             12      1.88e-08     00000 Conjugate Gradient Iteration
computing hessian-vector products by finite difference
             13      4.36e-09     00000 CG Converged
batch 0 complete
Done Calculating Responses
TESTING ORTHOGONALIZATION OF MULTIPOLE BASIS
Multipole virts passed orthogonality test
Virts Per Order
           75
          125
 
 --------------------------------------------------------------
 
                    Orbital Energies (a.u.)
 --------------------------------------------------------------
 
 Alpha MOs
 -- Occupied --
-10.2786 -10.2731 -10.2710 -10.2703 -10.2676 -10.2669 -10.2614  -1.0004
 -0.9114  -0.8776  -0.8151  -0.7330  -0.7049  -0.6315  -0.5758  -0.5666
 -0.5378  -0.5280  -0.5173  -0.4892  -0.4746  -0.4428  -0.4398  -0.3476
 -0.3408
 -- Virtual --
  0.0621   0.0630   0.0713   0.0791   0.0845   0.1044   0.1102   0.1132
  0.1352   0.1523   0.1652   0.1697   0.1826   0.1898   0.1942   0.2004
  0.2227   0.2277   0.2327   0.2422   0.2456   0.2559   0.2590   0.2707
  0.2784   0.2805   0.2851   0.2929   0.2948   0.3004   0.3029   0.3123
  0.3229   0.3272   0.3288   0.3393   0.3504   0.3530   0.3667   0.3731
  0.3738   0.3821   0.3876   0.3896   0.3921   0.3982   0.4027   0.4034
  0.4141   0.4269   0.4305   0.4367   0.4411   0.4474   0.4538   0.4575
  0.4687   0.4715   0.4785   0.4852   0.4914   0.4981   0.5118   0.5155
  0.5168   0.5247   0.5335   0.5416   0.5446   0.5499   0.5551   0.5684
  0.5714   0.5802   0.5911   0.5945   0.5989   0.6252   0.6324   0.6439
  0.6664   0.6741   0.6799   0.6857   0.6873   0.7039   0.7205   0.7223
  0.7274   0.7311   0.7429   0.7615   0.7664   0.7669   0.7738   0.7826
  0.7909   0.7960   0.7964   0.8024   0.8098   0.8232   0.8271   0.8288
  0.8308   0.8364   0.8488   0.8589   0.8628   0.8658   0.8856   0.8953
  0.9167   0.9280   0.9371   0.9456   0.9573   1.0074   1.0334   1.0430
  1.0500   1.0607   1.0678   1.0766   1.0887   1.0970   1.1034   1.1466
  1.1637   1.1721   1.2647   1.2749   1.3020   1.3278   1.3581   1.3589
  1.3782   1.4427   1.4514   1.4616   1.4668   1.4796   1.5327   1.5426
  1.6052   1.6150   1.6222   1.6303   1.6533   1.6843   1.7342   1.7735
  1.7847   1.7971   1.8033   1.8137   1.8358   1.8568   1.8743   1.9089
  1.9171   1.9267   1.9359   1.9709   1.9894   1.9964   2.0094   2.0290
  2.0364   2.0431   2.0715   2.0903   2.1107   2.1220   2.1736   2.1883
  2.2010   2.2384   2.2516   2.2714   2.2893   2.3152   2.3846   2.4000
  2.4167   2.4240   2.4689   2.5199   2.5472   2.5588   2.5625   2.6019
  2.6145   2.6478   2.6657   2.6742   2.7026   2.7180   2.7613   2.7782
  2.7902   2.8119   2.8188   2.8527   2.8697   2.8974   2.9141   2.9196
  2.9409   2.9441   2.9790   2.9830   3.0023   3.0102   3.0232   3.0503
  3.0642   3.0942   3.1041   3.1371   3.1698   3.1877   3.2022   3.2154
  3.2238   3.2540   3.2829   3.2899   3.3443   3.3589   3.3714   3.3833
  3.4041   3.4375   3.4483   3.4511   3.4547   3.4820   3.4844   3.5003
  3.5114   3.5360   3.5417   3.5526   3.5576   3.5804   3.5862   3.6108
  3.6192   3.6400   3.6684   3.7026   3.7212   3.7484   3.7731   3.8075
  3.8707   3.9057   3.9308   3.9575   3.9803   4.0004   4.0459   4.0616
  4.1298   4.2103   4.2721   4.2819   4.2954   4.3153   4.3289   4.3474
  4.3632   4.3825   4.3990   4.4090   4.4418   4.4595   4.5099   4.5543
  4.6095   4.6247   4.7766   4.7992   4.8374   4.8715   4.9121   4.9504
  5.0327   5.0502   5.1766   5.2716   5.3885   5.4033   5.5097   5.5399
  5.6767   5.8534  22.5792  22.6958  22.8993  22.9167  23.0228  23.1146
 23.4613
 --------------------------------------------------------------
 
          Ground-State Mulliken Net Atomic Charges

     Atom                 Charge (a.u.)
  ----------------------------------------
      1 C                    -1.021657
      2 C                    -0.493693
      3 C                    -0.483526
      4 C                    -0.439452
      5 C                     0.866454
      6 C                    -0.481083
      7 C                    -0.264150
      8 H                     0.306764
      9 H                     0.332996
     10 H                     0.294025
     11 H                     0.308731
     12 H                     0.247437
     13 H                     0.271845
     14 H                     0.336161
     15 H                     0.219149
  ----------------------------------------
  Sum of atomic charges =     0.000000

 -----------------------------------------------------------------
                    Cartesian Multipole Moments
 -----------------------------------------------------------------
    Charge (ESU x 10^10)
                 0.0000
    Dipole Moment (Debye)
         X      -0.2923      Y       0.1144      Z      -0.3717
       Tot       0.4865
    Quadrupole Moments (Debye-Ang)
        XX     -37.7367     XY      -0.0042     YY     -43.6314
        XZ       1.5660     YZ      -4.4263     ZZ     -38.8034
    Octopole Moments (Debye-Ang^2)
       XXX     126.1729    XXY     -82.5731    XYY      47.4815
       YYY    -279.8839    XXZ      71.6642    XYZ       4.4174
       YYZ      65.7131    XZZ      39.2580    YZZ     -73.4327
       ZZZ     223.8507
    Hexadecapole Moments (Debye-Ang^3)
      XXXX    -713.7479   XXXY     296.9153   XXYY    -334.5179
      XYYY     316.8303   YYYY   -1346.8733   XXXZ    -322.5943
      XXYZ     177.2261   XYYZ    -103.5500   YYYZ     555.5321
      XXZZ    -322.5949   XYZZ      88.3406   YYZZ    -374.5085
      XZZZ    -315.3592   YZZZ     533.0760   ZZZZ   -1218.5595
 -----------------------------------------------------------------
Archival summary:
1\1\nid00563\SP\ProcedureUnspecified\BasisUnspecified\78\meili\SunSep2623:58:462021SunSep2623:58:462021\0\\#,ProcedureUnspecified,BasisUnspecified,\\0,1\C\C,1,1.38324\H,2,1.08133,1,120.463\C,1,1.38363,2,119.07,3,-178.801,0\H,4,1.081,1,119.708,2,179.412,0\C,4,1.38982,1,121.119,2,-0.980293,0\H,6,1.08151,4,119.482,1,-179.867,0\C,6,1.37693,4,120.17,1,0.999422,0\H,8,1.08112,6,120.659,4,178.798,0\C,8,1.3808,6,119.327,4,-1.33416,0\H,10,1.08145,8,119.666,6,-179.366,0\C,1,1.49464,2,121.513,3,-1.63013,0\H,12,1.08844,1,107.748,2,131.274,0\H,12,1.09048,1,110.242,2,13.8989,0\H,12,1.1,1,112.474,2,-108.838,0\\\@

 Total job time:  30390.51s(wall), 60310.09s(cpu) 
 Sun Sep 26 23:58:49 2021

        *************************************************************
        *                                                           *
        *  Thank you very much for using Q-Chem.  Have a nice day.  *
        *                                                           *
        *************************************************************


Done Job For Fragment 1
calling putenv with: QCSCRATCH=/global/cscratch1/sd/meili 
calling putenv with: QCLOCALSCR=/tmp 
calling putenv with: QCTHREADS=32 
Doing General SCFMI
 Exchange:     0.1670 Hartree-Fock + 1.0000 wB97X-V + LR-HF
 Correlation:  1.0000 wB97X-V
 Using Euler-Maclaurin-Lebedev (99,590) quadrature formula
 Nonlocal Correlation:  VV10 with C = 0.0100 and b = 6.00 and scale = 1.00000
 Grid used for NLC:  SG-1 standard quadrature
performing fock build before subrot guess so that all methods have access
Printing subrot_rss_gen Method Specification:
Occupied Subspace Method is 0
Virtual Subspace Method is 0
Energy of the unrelaxed supersystem initial determinant -543.159709081776
performing fock build before subrot guess so that all methods have access
Printing subrot_rss_gen Method Specification:
Occupied Subspace Method is 0
Virtual Subspace Method is 0
Energy of the unrelaxed supersystem initial determinant w/ solvent -543.164011030160
write pseudocanon occs and virts to disk
write pseudocanon orbital energies to disk
Tolerance of ortho_decomp_scf: 1.00e-06
GDM subspace size: 20
Beginning the Orthogonal Decomposition of the Initial Supersystem Wavefunction
    1    -543.1457157475      1.65e-02     ortho_decomp Preconditoned Steepest Descent
    2    -543.1469145078      4.12e-04     ortho_decomp BFGS Step
    3    -543.1469183073      3.18e-05     ortho_decomp BFGS Step
    4    -543.1469183147      1.29e-06     ortho_decomp BFGS Step
    5    -543.1469183148      3.72e-08     ortho_decomp 00000 Convergence criterion met
 Hartree-Fock
 Hartree-Fock
 Hartree-Fock
Doing General SCFMI
 Exchange:     0.1670 Hartree-Fock + 1.0000 wB97X-V + LR-HF
 Correlation:  1.0000 wB97X-V
 Using Euler-Maclaurin-Lebedev (99,590) quadrature formula
 Nonlocal Correlation:  VV10 with C = 0.0100 and b = 6.00 and scale = 1.00000
 Grid used for NLC:  SG-1 standard quadrature
performing fock build at end of subrot_r(subrot) constructor so that all methods have access
<S^2> of initial wavefunction before polarization iterations 0.0000000000
Beginning iterations for the determination of the polarized wavefunction
Energy prior to optimization (guess energy) = -543.164011030161
Begin Timing: Total SCF Calculation
begin iterations for algorithm: DIIS         
the SCF tolerance is set to 1.00e-08
    1    -543.1640110302      3.36e-05     00000 
    2    -543.1641088295      1.76e-05     00000 
    3    -543.1641247289      8.05e-06     00000 
    4    -543.1641293038      1.98e-06     00000 
    5    -543.1641296363      8.99e-07     00000 
    6    -543.1641297147      3.08e-07     00000 
    7    -543.1641297251      1.13e-07     00000 
    8    -543.1641297264      4.69e-08     00000 
    9    -543.1641297267      1.48e-08     00000 
   10    -543.1641297267      7.12e-09     00000 Convergence criterion met
write pseudocanon occs and virts to disk
write pseudocanon orbital energies to disk
Timing for Total SCF: 7904.00s (wall), 15733.16s (cpu)
<S^2> of polarized wavefunction after polarization iterations 0.0000000000
relaxing scfmi constraint to allow all rotations in the entire AO span
Doing General SCFMI
 Exchange:     0.1670 Hartree-Fock + 1.0000 wB97X-V + LR-HF
 Correlation:  1.0000 wB97X-V
 Using Euler-Maclaurin-Lebedev (99,590) quadrature formula
 Nonlocal Correlation:  VV10 with C = 0.0100 and b = 6.00 and scale = 1.00000
 Grid used for NLC:  SG-1 standard quadrature
performing fock build at end of subrot_r(subrot) constructor so that all methods have access
<S^2> of polarized wavefunction before ct-allowed iterations 0.0000000000
Beginning iterations for the determination of the CT-Allowed wavefunction
Energy prior to optimization (guess energy) = -543.164129726704
Begin Timing: Total SCF Calculation
begin iterations for algorithm: DIIS         
the SCF tolerance is set to 1.00e-08
    1    -543.1641297267      4.61e-05     00000 
    2    -543.1646428104      4.97e-06     00000 
    3    -543.1646602899      8.32e-07     00000 
    4    -543.1646609086      2.43e-07     00000 
    5    -543.1646609257      1.08e-07     00000 
    6    -543.1646609295      2.49e-08     00000 
    7    -543.1646609298      9.70e-09     00000 Convergence criterion met
write pseudocanon occs and virts to disk
write pseudocanon orbital energies to disk
Timing for Total SCF: 4796.00s (wall), 9547.49s (cpu)
<S^2> of ct_allowed wavefunction after ct-allowed iterations 0.0000000000

================================
        Results of EDA2         
================================
Basic EDA Quantities
--------------------
Fragment Energies (Ha):
1 -271.5815505826
2 -271.5809664983
--------------------
  E_prp (kJ/mol) = 0.0000
  E_sol (kJ/mol) = 1.5144
  E_frz (kJ/mol) = -5.4368
  E_pol (kJ/mol) = -0.3116
  E_vct (kJ/mol) = -1.3947
  E_int (kJ/mol) = -5.6287
--------------------


Initial Wavefunction Decomposition
--------------------
  --------------------
  Orthogonal Fragment Subspace Decomposition:
  --------------------
     E_elec   (ELEC)   (kJ/mol) = -14.7668
     E_pauli  (PAULI)  (kJ/mol) = 21.8778
     E_disp   (DISP)   (kJ/mol) = -12.5479
     --------------------
     Terms summing to E_pauli:
     --------------------
        E_kep_pauli       (kJ/mol) = 28.1457
        E_disp_free_pauli (kJ/mol) = -6.2679
  --------------------
  Classical Frozen Decomposition:
  --------------------
     E_cls_elec  (CLS ELEC)  (kJ/mol) = -5.6576
     E_cls_pauli (CLS PAULI) (kJ/mol) = 0.2208
    [E_mod_pauli (MOD PAULI) (kJ/mol) = 12.7687 (CLS PAULI - DISP from orthogonal decomposition) ]
  --------------------
--------------------

Simplified EDA Summary (kJ/mol)
--------------------
 PREPARATION     0.0000
 SOLVATION       1.5144
 FROZEN          7.1110      (does not include dispersion)
[PAULI           21.8778]     (if this is negligible, then frozen describes electrostatics)
 DISPERSION      -12.5479
 POLARIZATION    -0.3116
 CHARGE TRANSFER -1.3947
 TOTAL           -5.6287     (PRP + SOL + FRZ + DISP + POL + CT)
--------------------
 
 --------------------------------------------------------------
 
                    Orbital Energies (a.u.)
 --------------------------------------------------------------
 
 Alpha MOs
 -- Occupied --
-10.2812 -10.2778 -10.2729 -10.2716 -10.2713 -10.2702 -10.2702 -10.2693
-10.2691 -10.2674 -10.2663 -10.2661 -10.2637 -10.2611  -0.9996  -0.9985
 -0.9109  -0.9089  -0.8768  -0.8766  -0.8151  -0.8142  -0.7322  -0.7320
 -0.7054  -0.7034  -0.6325  -0.6292  -0.5750  -0.5746  -0.5669  -0.5652
 -0.5375  -0.5362  -0.5275  -0.5274  -0.5166  -0.5155  -0.4900  -0.4887
 -0.4765  -0.4714  -0.4430  -0.4419  -0.4397  -0.4381  -0.3491  -0.3469
 -0.3418  -0.3359
 -- Virtual --
  0.0547   0.0600   0.0622   0.0669   0.0708   0.0747   0.0757   0.0812
  0.0868   0.0951   0.0997   0.1030   0.1091   0.1146   0.1258   0.1287
  0.1326   0.1407   0.1519   0.1578   0.1612   0.1632   0.1699   0.1767
  0.1786   0.1843   0.1943   0.1972   0.2008   0.2054   0.2071   0.2190
  0.2212   0.2291   0.2305   0.2338   0.2368   0.2442   0.2448   0.2493
  0.2538   0.2610   0.2621   0.2637   0.2677   0.2692   0.2733   0.2773
  0.2795   0.2824   0.2875   0.2913   0.2947   0.2956   0.3015   0.3034
  0.3076   0.3105   0.3123   0.3220   0.3238   0.3264   0.3316   0.3336
  0.3360   0.3399   0.3411   0.3443   0.3469   0.3521   0.3538   0.3594
  0.3672   0.3703   0.3720   0.3744   0.3764   0.3774   0.3789   0.3830
  0.3860   0.3893   0.3898   0.3951   0.3963   0.3986   0.4057   0.4080
  0.4110   0.4119   0.4140   0.4179   0.4252   0.4271   0.4309   0.4376
  0.4385   0.4417   0.4447   0.4468   0.4528   0.4536   0.4575   0.4612
  0.4645   0.4681   0.4715   0.4730   0.4785   0.4799   0.4815   0.4862
  0.4905   0.4929   0.4961   0.4991   0.5022   0.5058   0.5099   0.5139
  0.5146   0.5193   0.5212   0.5256   0.5294   0.5338   0.5373   0.5428
  0.5446   0.5475   0.5498   0.5549   0.5582   0.5612   0.5671   0.5713
  0.5742   0.5770   0.5822   0.5874   0.5935   0.5986   0.6069   0.6088
  0.6110   0.6181   0.6215   0.6293   0.6371   0.6413   0.6452   0.6505
  0.6561   0.6643   0.6653   0.6712   0.6759   0.6817   0.6838   0.6856
  0.6905   0.6968   0.7018   0.7027   0.7128   0.7157   0.7255   0.7269
  0.7309   0.7413   0.7428   0.7455   0.7502   0.7526   0.7575   0.7600
  0.7653   0.7663   0.7693   0.7748   0.7780   0.7835   0.7850   0.7866
  0.7906   0.7953   0.7968   0.8002   0.8063   0.8079   0.8092   0.8105
  0.8158   0.8170   0.8207   0.8250   0.8283   0.8332   0.8354   0.8390
  0.8428   0.8472   0.8534   0.8559   0.8589   0.8651   0.8684   0.8720
  0.8785   0.8800   0.8843   0.8956   0.9003   0.9028   0.9054   0.9096
  0.9181   0.9253   0.9272   0.9295   0.9348   0.9374   0.9436   0.9530
  0.9590   0.9640   0.9721   0.9756   0.9816   0.9889   1.0073   1.0079
  1.0249   1.0395   1.0437   1.0506   1.0580   1.0675   1.0731   1.0816
  1.0878   1.0929   1.1014   1.1050   1.1077   1.1231   1.1298   1.1365
  1.1415   1.1516   1.1645   1.1742   1.1879   1.1977   1.2129   1.2245
  1.2348   1.2457   1.2920   1.2972   1.3021   1.3402   1.3451   1.3583
  1.3694   1.3713   1.3776   1.3914   1.3933   1.4006   1.4161   1.4395
  1.4530   1.4638   1.4717   1.4753   1.4812   1.4835   1.4879   1.4922
  1.5143   1.5288   1.5493   1.5555   1.5557   1.5762   1.6066   1.6152
  1.6248   1.6311   1.6346   1.6488   1.6530   1.6565   1.6738   1.6783
  1.6942   1.7116   1.7325   1.7416   1.7556   1.7875   1.7933   1.7974
  1.7999   1.8081   1.8127   1.8223   1.8290   1.8364   1.8652   1.8816
  1.8949   1.8981   1.9081   1.9194   1.9290   1.9327   1.9416   1.9431
  1.9549   1.9577   1.9669   1.9787   1.9927   1.9939   2.0043   2.0074
  2.0289   2.0321   2.0378   2.0420   2.0493   2.0542   2.0571   2.0752
  2.0791   2.0828   2.0993   2.1118   2.1183   2.1265   2.1304   2.1597
  2.1653   2.1773   2.2025   2.2036   2.2201   2.2289   2.2360   2.2437
  2.2542   2.2615   2.2682   2.2744   2.2823   2.2899   2.3028   2.3303
  2.3358   2.3628   2.3946   2.4059   2.4116   2.4216   2.4256   2.4384
  2.4546   2.4591   2.4793   2.4936   2.5295   2.5317   2.5579   2.5639
  2.5694   2.5734   2.5996   2.6032   2.6063   2.6140   2.6241   2.6271
  2.6540   2.6589   2.6769   2.6812   2.6973   2.7038   2.7180   2.7290
  2.7350   2.7462   2.7689   2.7759   2.7895   2.7928   2.8039   2.8060
  2.8141   2.8186   2.8195   2.8275   2.8566   2.8636   2.8732   2.8782
  2.9094   2.9239   2.9262   2.9342   2.9403   2.9449   2.9481   2.9564
  2.9607   2.9764   2.9883   2.9919   2.9947   3.0151   3.0177   3.0238
  3.0292   3.0338   3.0435   3.0505   3.0681   3.0693   3.0746   3.0908
  3.1002   3.1069   3.1134   3.1215   3.1536   3.1581   3.1835   3.1891
  3.2066   3.2106   3.2130   3.2302   3.2382   3.2452   3.2591   3.2701
  3.2740   3.2802   3.2862   3.3021   3.3193   3.3497   3.3543   3.3598
  3.3655   3.3732   3.3914   3.3963   3.4073   3.4174   3.4242   3.4310
  3.4475   3.4506   3.4551   3.4605   3.4634   3.4668   3.4736   3.4781
  3.4829   3.4853   3.5060   3.5119   3.5204   3.5212   3.5289   3.5295
  3.5509   3.5530   3.5543   3.5561   3.5607   3.5693   3.5777   3.5825
  3.5892   3.5933   3.5969   3.6031   3.6196   3.6296   3.6331   3.6437
  3.6497   3.6645   3.6701   3.6802   3.6957   3.7038   3.7161   3.7238
  3.7339   3.7474   3.7566   3.7750   3.8143   3.8201   3.8673   3.8764
  3.9077   3.9191   3.9375   3.9416   3.9596   3.9629   3.9714   3.9896
  3.9945   4.0113   4.0529   4.0574   4.0826   4.0903   4.1430   4.1497
  4.2206   4.2296   4.2740   4.2808   4.2871   4.2894   4.3006   4.3019
  4.3201   4.3276   4.3372   4.3432   4.3527   4.3571   4.3742   4.3764
  4.3858   4.3915   4.3981   4.4097   4.4140   4.4174   4.4421   4.4621
  4.4806   4.4829   4.5080   4.5199   4.5591   4.5787   4.6022   4.6139
  4.6236   4.6330   4.7754   4.7805   4.7978   4.8094   4.8230   4.8410
  4.8462   4.8775   4.9137   4.9381   4.9649   4.9697   5.0446   5.0488
  5.0599   5.0671   5.1807   5.1928   5.2774   5.2873   5.3859   5.3975
  5.4013   5.4058   5.4965   5.5139   5.5317   5.5542   5.6833   5.6978
  5.8171   5.8318  22.6064  22.6241  22.6839  22.7022  22.9249  22.9259
 22.9499  22.9560  23.0241  23.0396  23.1199  23.1347  23.4522  23.4757
 --------------------------------------------------------------
 
          Ground-State Mulliken Net Atomic Charges

     Atom                 Charge (a.u.)
  ----------------------------------------
      1 C                    -1.087695
      2 C                    -0.467860
      3 C                    -0.426925
      4 C                    -0.361345
      5 C                    -0.330896
      6 C                    -0.318367
      7 C                     0.608704
      8 H                     0.332507
      9 H                     0.319300
     10 H                     0.324653
     11 H                     0.365486
     12 H                     0.315434
     13 H                     0.242839
     14 H                     0.260654
     15 H                     0.232180
     16 C                    -1.103717
     17 C                    -0.327827
     18 C                    -0.457868
     19 C                    -0.423359
     20 C                     0.663407
     21 C                    -0.501102
     22 C                    -0.321128
     23 H                     0.376587
     24 H                     0.339649
     25 H                     0.309311
     26 H                     0.322878
     27 H                     0.262306
     28 H                     0.273071
     29 H                     0.358133
     30 H                     0.220990
  ----------------------------------------
  Sum of atomic charges =     0.000000

 -----------------------------------------------------------------
                    Cartesian Multipole Moments
 -----------------------------------------------------------------
    Charge (ESU x 10^10)
                -0.0000
    Dipole Moment (Debye)
         X       0.1421      Y      -0.0127      Z      -0.0966
       Tot       0.1723
    Quadrupole Moments (Debye-Ang)
        XX     -75.3921     XY      -1.9634     YY     -89.8799
        XZ       2.7500     YZ      -4.9468     ZZ     -76.3951
    Octopole Moments (Debye-Ang^2)
       XXX       0.3171    XXY      -3.3828    XYY       7.9106
       YYY      13.5349    XXZ       0.8148    XYZ      -0.2995
       YYZ     -17.2120    XZZ      -0.2238    YZZ       5.4458
       ZZZ       8.0924
    Hexadecapole Moments (Debye-Ang^3)
      XXXX   -1474.5024   XXXY     597.2143   XXYY    -650.0266
      XYYY     628.7250   YYYY   -2676.6143   XXXZ    -642.2632
      XXYZ     335.1549   XYYZ    -202.4108   YYYZ    1111.0884
      XXZZ    -656.4261   XYZZ     180.6476   YYZZ    -795.0515
      XZZZ    -632.1250   YZZZ    1010.2416   ZZZZ   -2446.9091
 -----------------------------------------------------------------
Archival summary:
1\1\nid00563\SP\ProcedureUnspecified\BasisUnspecified\1416\meili\MonSep2707:05:472021MonSep2707:05:472021\0\\#,ProcedureUnspecified,BasisUnspecified,\\0,1\C\H,1,1.08145\C,1,1.3808,2,119.666\H,3,1.08112,1,120.014,2,0.50234,0\C,3,1.37693,1,119.327,2,-179.366,0\H,5,1.08151,3,120.342,1,179.54,0\C,5,1.38982,3,120.17,1,-1.33416,0\H,7,1.081,5,119.172,3,-179.391,0\C,7,1.38363,5,121.119,3,0.999422,0\C,9,1.38324,7,119.07,5,-0.980293,0\H,10,1.08133,9,120.463,7,-178.801,0\C,9,1.49464,7,119.357,5,-178.213,0\H,12,1.08844,9,107.748,7,-51.563,0\H,12,1.09048,9,110.242,7,-168.938,0\H,12,1.1,9,112.474,7,68.3257,0\H,2,2.57927,1,112.834,3,-89.6954,0\C,16,1.08168,2,92.2657,1,113.288,0\C,17,1.37889,16,119.983,2,-100.897,0\H,18,1.08085,17,119.893,16,-0.219804,0\C,17,1.38039,16,120.368,2,77.7043,0\H,20,1.08228,17,119.694,16,0.517538,0\C,18,1.39438,17,119.721,16,179.952,0\H,22,1.08021,18,118.878,17,178.99,0\C,22,1.39332,18,121.463,17,-0.219255,0\C,24,1.38262,22,118.381,18,-0.586938,0\H,25,1.08168,24,120.232,22,-179.448,0\C,24,1.51046,22,120.46,18,-179.59,0\H,27,1.09043,24,107.709,22,-59.9244,0\H,27,1.09107,24,110.253,22,-177.418,0\H,27,1.1,24,112.425,22,60.2956,0\\\@

 Total job time:  84876.41s(wall), 51049.08s(cpu) 
 Mon Sep 27 07:05:49 2021

        *************************************************************
        *                                                           *
        *  Thank you very much for using Q-Chem.  Have a nice day.  *
        *                                                           *
        *************************************************************


