
Running Job 1 of 1 SSI-032ASP-040HIE-1_PCM_TZVPD.in
qchem SSI-032ASP-040HIE-1_PCM_TZVPD.in_41567.0 /tmp/qchem41567/ 0
/global/common/cori/software/qchem/5.2/exe/qcprog.exe_s SSI-032ASP-040HIE-1_PCM_TZVPD.in_41567.0 /tmp/qchem41567/
                  Welcome to Q-Chem
     A Quantum Leap Into The Future Of Chemistry


 Q-Chem 5.2, Q-Chem, Inc., Pleasanton, CA (2019)

 License issued to: National Energy Research Scientific Computing Center

 Yihan Shao,  Zhengting Gan,  E. Epifanovsky,  A. T. B. Gilbert,  M. Wormit,  
 J. Kussmann,  A. W. Lange,  A. Behn,  Jia Deng,  Xintian Feng,  D. Ghosh,  
 M. Goldey,  P. R. Horn,  L. D. Jacobson,  I. Kaliman,  T. Kus,  A. Landau,  
 Jie Liu,  E. I. Proynov,  R. M. Richard,  R. P. Steele,  E. J. Sundstrom,  
 H. L. Woodcock III,  P. M. Zimmerman,  D. Zuev,  B. Albrecht,  E. Alguire,  
 S. A. Baeppler,  D. Barton,  Z. Benda,  Y. A. Bernard,  E. J. Berquist,  
 K. B. Bravaya,  H. Burton,  D. Casanova,  Chun-Min Chang,  Yunqing Chen,  
 A. Chien,  K. D. Closser,  M. P. Coons,  S. Coriani,  S. Dasgupta,  
 A. L. Dempwolff,  M. Diedenhofen,  Hainam Do,  R. G. Edgar,  Po-Tung Fang,  
 S. Faraji,  S. Fatehi,  Qingguo Feng,  K. D. Fenk,  J. Fosso-Tande,  
 J. Gayvert,  Qinghui Ge,  A. Ghysels,  G. Gidofalvi,  J. Gomes,  
 J. Gonthier,  A. Gunina,  D. Hait,  M. W. D. Hanson-Heine,  
 P. H. P. Harbach,  A. W. Hauser,  M. F. Herbst,  J. E. Herr,  
 E. G. Hohenstein,  Z. C. Holden,  Kerwin Hui,  B. C. Huynh,  T.-C. Jagau,  
 Hyunjun Ji,  B. Kaduk,  K. Khistyaev,  Jaehoon Kim,  P. Klunzinger,  K. Koh,  
 D. Kosenkov,  L. Koulias,  T. Kowalczyk,  C. M. Krauter,  A. Kunitsa,  
 Ka Un Lao,  A. Laurent,  K. V. Lawler,  Joonho Lee,  D. Lefrancois,  
 S. Lehtola,  D. S. Levine,  Yi-Pei Li,  You-Sheng Lin,  Fenglai Liu,  
 E. Livshits,  A. Luenser,  P. Manohar,  E. Mansoor,  S. F. Manzer,  
 Shan-Ping Mao,  Yuezhi Mao,  N. Mardirossian,  A. V. Marenich,  
 T. Markovich,  L. A. Martinez-Martinez,  S. A. Maurer,  N. J. Mayhall,  
 S. C. McKenzie,  J.-M. Mewes,  P. Morgante,  A. F. Morrison,  
 J. W. Mullinax,  K. Nanda,  T. S. Nguyen-Beck,  R. Olivares-Amaya,  
 J. A. Parkhill,  Zheng Pei,  T. M. Perrine,  F. Plasser,  P. Pokhilko,  
 S. Prager,  A. Prociuk,  E. Ramos,  D. R. Rehn,  F. Rob,  M. Scheurer,  
 M. Schneider,  N. Sergueev,  S. M. Sharada,  S. Sharma,  D. W. Small,  
 T. Stauch,  T. Stein,  Yu-Chuan Su,  A. J. W. Thom,  A. Tkatchenko,  
 T. Tsuchimochi,  N. M. Tubman,  L. Vogt,  M. L. Vidal,  O. Vydrov,  
 M. A. Watson,  J. Wenzel,  M. de Wergifosse,  T. A. Wesolowski,  A. White,  
 J. Witte,  A. Yamada,  Jun Yang,  K. Yao,  S. Yeganeh,  S. R. Yost,  
 Zhi-Qiang You,  A. Zech,  Igor Ying Zhang,  Xing Zhang,  Yan Zhao,  
 Ying Zhu,  B. R. Brooks,  G. K. L. Chan,  C. J. Cramer,  M. S. Gordon,  
 W. J. Hehre,  A. Klamt,  M. W. Schmidt,  C. D. Sherrill,  D. G. Truhlar,  
 A. Aspuru-Guzik,  R. Baer,  A. T. Bell,  N. A. Besley,  Jeng-Da Chai,  
 A. E. DePrince, III,  R. A. DiStasio Jr.,  A. Dreuw,  B. D. Dunietz,  
 T. R. Furlani,  Chao-Ping Hsu,  Yousung Jung,  Jing Kong,  D. S. Lambrecht,  
 WanZhen Liang,  C. Ochsenfeld,  V. A. Rassolov,  L. V. Slipchenko,  
 J. E. Subotnik,  T. Van Voorhis,  J. M. Herbert,  A. I. Krylov,  
 P. M. W. Gill,  M. Head-Gordon

 Contributors to earlier versions of Q-Chem not listed above: 
 R. D. Adamson,  B. Austin,  J. Baker,  G. J. O. Beran,  K. Brandhorst,  
 S. T. Brown,  E. F. C. Byrd,  A. K. Chakraborty,  C.-L. Cheng,  
 Siu Hung Chien,  D. M. Chipman,  D. L. Crittenden,  H. Dachsel,  
 R. J. Doerksen,  A. D. Dutoi,  L. Fusti-Molnar,  W. A. Goddard III,  
 A. Golubeva-Zadorozhnaya,  S. R. Gwaltney,  G. Hawkins,  A. Heyden,  
 S. Hirata,  G. Kedziora,  F. J. Keil,  C. Kelley,  Jihan Kim,  R. A. King,  
 R. Z. Khaliullin,  P. P. Korambath,  W. Kurlancheek,  A. M. Lee,  M. S. Lee,  
 S. V. Levchenko,  Ching Yeh Lin,  D. Liotard,  R. C. Lochan,  I. Lotan,  
 P. E. Maslen,  N. Nair,  D. P. O'Neill,  D. Neuhauser,  E. Neuscamman,  
 C. M. Oana,  R. Olson,  B. Peters,  R. Peverati,  P. A. Pieniazek,  
 Y. M. Rhee,  J. Ritchie,  M. A. Rohrdanz,  E. Rosta,  N. J. Russ,  
 H. F. Schaefer III,  N. E. Schultz,  N. Shenvi,  A. C. Simmonett,  A. Sodt,  
 D. Stuck,  K. S. Thanthiriwatte,  V. Vanovschi,  Tao Wang,  A. Warshel,  
 C. F. Williams,  Q. Wu,  X. Xu,  W. Zhang

 Please cite Q-Chem as follows:
 Y. Shao et al., Mol. Phys. 113, 184-215 (2015)
 DOI: 10.1080/00268976.2014.952696

 Q-Chem 5.2.0 for Intel X86 EM64T Linux

 Parts of Q-Chem use Armadillo 8.300.2 (Tropical Shenanigans).
 http://arma.sourceforge.net/

 Q-Chem begins on Sun Sep 26 05:16:24 2021  

Host: cori01
0

     Scratch files written to /tmp/qchem41567//
 May1019 |scratch|qcdevops|jenkins|workspace|build_RNUM -1
Processing $rem in /global/common/cori/software/qchem/5.2/config/preferences:
	 MEM_TOTAL  96000 
NAlpha2: 84
NElect   84
Mult     1
Symmetry turned off for PCM/SM12/SMD calculation

 Q-Chem warning in module libgen/rem_setup.C, line 2803:

 Neither GIA nor STOLL is specified by user. Use STOLL as the default


Checking the input file for inconsistencies... 	...done.

--------------------------------------------------------------
User input:
--------------------------------------------------------------
$comment
SSI-032ASP-040HIE-1.pdb
$end

$molecule
-1 1
--
-1 1
C   -0.407730648121   -0.851242036026   -1.680045592607
C   -0.282730648121   -1.645242036026   -2.971045592607
C   -0.924730648121    0.533757963974   -1.927045592607
O   -0.192730648121    1.459757963974   -2.287045592607
O   -2.118730648121    0.686757963974   -1.727045592607
H   -1.074730648121   -1.383242036026   -0.996045592607
H    0.569269351879   -0.791242036026   -1.197045592607
H   -1.248730648121   -1.630242036026   -3.480045592607
H   -0.010422648121   -2.682422036026   -2.725895592607
H    0.481556351879   -1.203252036026   -3.627175592607
--
0 1
C    2.365269351879   -1.491242036026    1.920954407393
C   -0.134730648121   -0.762242036026    2.148954407393
C    1.202269351879   -0.547242036026    1.919954407393
C    0.171269351879    1.375757963974    1.687954407393
N   -0.760730648121    0.468757963974    2.001954407393
N    1.383269351879    0.803757963974    1.660954407393
H   -0.617730648121   -1.693242036026    2.403954407393
H   -1.758730648121    0.659757963974    2.078954407393
H    3.075269351879   -1.136242036026    2.667954407393
H    2.856269351879   -1.437242036026    0.947954407393
H   -0.029730648121    2.423757963974    1.498954407393
H    2.111190351879   -2.537242036026    2.147526407393
$end

$rem
JOBTYPE			EDA
EDA2			1
method			wB97X-V
BASIS			def2-TZVPD
XC_GRID			000099000590
NL_GRID			1
UNRESTRICTED		FALSE
MAX_SCF_CYCLES		200
SYMMETRY		FALSE
SYM_IGNORE		TRUE
MEM_STATIC		2000
BASIS_LIN_DEP_THRESH 	6
THRESH 			14
SCF_CONVERGENCE 	8
SCF_PRINT_FRGM 		TRUE
SOLVENT_METHOD          PCM
$end

$PCM
THEORY                  CPCM
METHOD                  SWIG
SOLVER                  INVERSION
RADII                   UFF
HPOINTS                 302
HEAVYPOINTS             302
PRINTLEVEL              0
$END

$SOLVENT
DIELECTRIC              78.390000 ! water
$END
--------------------------------------------------------------
 ----------------------------------------------------------------
             Standard Nuclear Orientation (Angstroms)
    I     Atom           X                Y                Z
 ----------------------------------------------------------------
    1      C      -0.4077306481    -0.8512420360    -1.6800455926
    2      C      -0.2827306481    -1.6452420360    -2.9710455926
    3      C      -0.9247306481     0.5337579640    -1.9270455926
    4      O      -0.1927306481     1.4597579640    -2.2870455926
    5      O      -2.1187306481     0.6867579640    -1.7270455926
    6      H      -1.0747306481    -1.3832420360    -0.9960455926
    7      H       0.5692693519    -0.7912420360    -1.1970455926
    8      H      -1.2487306481    -1.6302420360    -3.4800455926
    9      H      -0.0104226481    -2.6824220360    -2.7258955926
   10      H       0.4815563519    -1.2032520360    -3.6271755926
   11      C       2.3652693519    -1.4912420360     1.9209544074
   12      C      -0.1347306481    -0.7622420360     2.1489544074
   13      C       1.2022693519    -0.5472420360     1.9199544074
   14      C       0.1712693519     1.3757579640     1.6879544074
   15      N      -0.7607306481     0.4687579640     2.0019544074
   16      N       1.3832693519     0.8037579640     1.6609544074
   17      H      -0.6177306481    -1.6932420360     2.4039544074
   18      H      -1.7587306481     0.6597579640     2.0789544074
   19      H       3.0752693519    -1.1362420360     2.6679544074
   20      H       2.8562693519    -1.4372420360     0.9479544074
   21      H      -0.0297306481     2.4237579640     1.4989544074
   22      H       2.1111903519    -2.5372420360     2.1475264074
 ----------------------------------------------------------------
 Nuclear Repulsion Energy =         589.00179819 hartrees
 There are       42 alpha and       42 beta electrons
 Requested basis set is def2-TZVPD
 There are 200 shells and 512 basis functions

 Total QAlloc Memory Limit  96000 MB
 Mega-Array Size      1956 MB
 MEM_STATIC part      2000 MB
 Discretize the solute cavity surface with Lebedev spheres
	Using 302 Lebedev grid points for each H atom
	Using 302 Lebedev grid points for other atoms
	Atomic van der Waals radii will be scaled by 1.20
 Remove points where switching function is < 1.0e-08
 Keep 2624 surface tesserae and discard 4020 interior tesserae
 Molecular Surface Area = 270.197 Angst**2
 A cutoff of  1.0D-14 yielded  17951 shell pairs
 There are    118799 function pairs (    150690 Cartesian)
 Smallest overlap matrix eigenvalue = 1.55E-06

 Scale SEOQF with 1.000000e-01/1.000000e-01/1.000000e-01

 Standard Electronic Orientation quadrupole field applied
 Nucleus-field energy     =    -0.0000000253 hartrees

 -----------------------------------------------------------------------
  General SCF calculation program by
  Eric Jon Sundstrom, Paul Horn, Yuezhi Mao, Dmitri Zuev, Alec White,
  David Stuck, Shaama M.S., Shane Yost, Joonho Lee, David Small,
  Daniel Levine, Susi Lehtola, Hugh Burton, Evgeny Epifanovsky
 -----------------------------------------------------------------------
================================================================
                 ALMO-EDA with the EDA2 driver                  
================================================================
 The second-generation ALMO-EDA (for DFT):                      
 P. R. Horn, Y. Mao and M. Head-Gordon, PCCP, 18, 23067 (2016)  
 Decomposition of the frozen energy:                            
 P. R. Horn, Y. Mao and M. Head-Gordon, JCP, 144, 114107 (2016) 
 FERF model for polarization:                                   
 P. R. Horn and M. Head-Gordon, JCP, 143, 114111 (2015)         
Using eda2 option set 1
Option set summary: Frozen orbital wavefunction, initial wavefunction decomposition, and nDQ polarization.
--------------------------------
Printing EDA Options
--------------------------------
eda_child_super_basis      0
fragmo_guess_mode          0
child_mp                   1
child_mp_orders            232
cls_elec                   1
cls_disp                   0
scfmi_mode                 1
scfmi_occs                 0
scfmi_virts                0
frz_relax                  0
frz_relax_method           0
dc_pen_start               0
dc_pen_conv                0
dc_pen_increment           0
dc_pen_steps               0
dc_pen_thresh_factor       0
dc_pen_pre_newton_thresh   0
frz_ortho_decomp           1
frz_ortho_decomp_conv      6
frgm_method                2
scfmi_freeze_ss            0
separate_rehyb             0
plot_diff_den              0
eda_nocv                   0
eda_vct_relax              1
disp_free_x                0
disp_free_c                0
eda_bsse                   0
eda_pct_a                  0
eda_covp                   0
--------------------------------
Attempting to make child job directory: /tmp/qchem41567//Frg1/
Attempting to make child job directory: /tmp/qchem41567//Frg2/
Creating input file /tmp/qchem41567/Frg1.input
using default PutDataFrgm: nothing
calling putenv with: QCSCRATCH=/tmp/qchem41567/ 
calling putenv with: QCLOCALSCR=/tmp/qchem41567/ 
Spawning Job For Fragment 0
                  Welcome to Q-Chem
     A Quantum Leap Into The Future Of Chemistry


 Q-Chem 5.2, Q-Chem, Inc., Pleasanton, CA (2019)

 License issued to: National Energy Research Scientific Computing Center

 Yihan Shao,  Zhengting Gan,  E. Epifanovsky,  A. T. B. Gilbert,  M. Wormit,  
 J. Kussmann,  A. W. Lange,  A. Behn,  Jia Deng,  Xintian Feng,  D. Ghosh,  
 M. Goldey,  P. R. Horn,  L. D. Jacobson,  I. Kaliman,  T. Kus,  A. Landau,  
 Jie Liu,  E. I. Proynov,  R. M. Richard,  R. P. Steele,  E. J. Sundstrom,  
 H. L. Woodcock III,  P. M. Zimmerman,  D. Zuev,  B. Albrecht,  E. Alguire,  
 S. A. Baeppler,  D. Barton,  Z. Benda,  Y. A. Bernard,  E. J. Berquist,  
 K. B. Bravaya,  H. Burton,  D. Casanova,  Chun-Min Chang,  Yunqing Chen,  
 A. Chien,  K. D. Closser,  M. P. Coons,  S. Coriani,  S. Dasgupta,  
 A. L. Dempwolff,  M. Diedenhofen,  Hainam Do,  R. G. Edgar,  Po-Tung Fang,  
 S. Faraji,  S. Fatehi,  Qingguo Feng,  K. D. Fenk,  J. Fosso-Tande,  
 J. Gayvert,  Qinghui Ge,  A. Ghysels,  G. Gidofalvi,  J. Gomes,  
 J. Gonthier,  A. Gunina,  D. Hait,  M. W. D. Hanson-Heine,  
 P. H. P. Harbach,  A. W. Hauser,  M. F. Herbst,  J. E. Herr,  
 E. G. Hohenstein,  Z. C. Holden,  Kerwin Hui,  B. C. Huynh,  T.-C. Jagau,  
 Hyunjun Ji,  B. Kaduk,  K. Khistyaev,  Jaehoon Kim,  P. Klunzinger,  K. Koh,  
 D. Kosenkov,  L. Koulias,  T. Kowalczyk,  C. M. Krauter,  A. Kunitsa,  
 Ka Un Lao,  A. Laurent,  K. V. Lawler,  Joonho Lee,  D. Lefrancois,  
 S. Lehtola,  D. S. Levine,  Yi-Pei Li,  You-Sheng Lin,  Fenglai Liu,  
 E. Livshits,  A. Luenser,  P. Manohar,  E. Mansoor,  S. F. Manzer,  
 Shan-Ping Mao,  Yuezhi Mao,  N. Mardirossian,  A. V. Marenich,  
 T. Markovich,  L. A. Martinez-Martinez,  S. A. Maurer,  N. J. Mayhall,  
 S. C. McKenzie,  J.-M. Mewes,  P. Morgante,  A. F. Morrison,  
 J. W. Mullinax,  K. Nanda,  T. S. Nguyen-Beck,  R. Olivares-Amaya,  
 J. A. Parkhill,  Zheng Pei,  T. M. Perrine,  F. Plasser,  P. Pokhilko,  
 S. Prager,  A. Prociuk,  E. Ramos,  D. R. Rehn,  F. Rob,  M. Scheurer,  
 M. Schneider,  N. Sergueev,  S. M. Sharada,  S. Sharma,  D. W. Small,  
 T. Stauch,  T. Stein,  Yu-Chuan Su,  A. J. W. Thom,  A. Tkatchenko,  
 T. Tsuchimochi,  N. M. Tubman,  L. Vogt,  M. L. Vidal,  O. Vydrov,  
 M. A. Watson,  J. Wenzel,  M. de Wergifosse,  T. A. Wesolowski,  A. White,  
 J. Witte,  A. Yamada,  Jun Yang,  K. Yao,  S. Yeganeh,  S. R. Yost,  
 Zhi-Qiang You,  A. Zech,  Igor Ying Zhang,  Xing Zhang,  Yan Zhao,  
 Ying Zhu,  B. R. Brooks,  G. K. L. Chan,  C. J. Cramer,  M. S. Gordon,  
 W. J. Hehre,  A. Klamt,  M. W. Schmidt,  C. D. Sherrill,  D. G. Truhlar,  
 A. Aspuru-Guzik,  R. Baer,  A. T. Bell,  N. A. Besley,  Jeng-Da Chai,  
 A. E. DePrince, III,  R. A. DiStasio Jr.,  A. Dreuw,  B. D. Dunietz,  
 T. R. Furlani,  Chao-Ping Hsu,  Yousung Jung,  Jing Kong,  D. S. Lambrecht,  
 WanZhen Liang,  C. Ochsenfeld,  V. A. Rassolov,  L. V. Slipchenko,  
 J. E. Subotnik,  T. Van Voorhis,  J. M. Herbert,  A. I. Krylov,  
 P. M. W. Gill,  M. Head-Gordon

 Contributors to earlier versions of Q-Chem not listed above: 
 R. D. Adamson,  B. Austin,  J. Baker,  G. J. O. Beran,  K. Brandhorst,  
 S. T. Brown,  E. F. C. Byrd,  A. K. Chakraborty,  C.-L. Cheng,  
 Siu Hung Chien,  D. M. Chipman,  D. L. Crittenden,  H. Dachsel,  
 R. J. Doerksen,  A. D. Dutoi,  L. Fusti-Molnar,  W. A. Goddard III,  
 A. Golubeva-Zadorozhnaya,  S. R. Gwaltney,  G. Hawkins,  A. Heyden,  
 S. Hirata,  G. Kedziora,  F. J. Keil,  C. Kelley,  Jihan Kim,  R. A. King,  
 R. Z. Khaliullin,  P. P. Korambath,  W. Kurlancheek,  A. M. Lee,  M. S. Lee,  
 S. V. Levchenko,  Ching Yeh Lin,  D. Liotard,  R. C. Lochan,  I. Lotan,  
 P. E. Maslen,  N. Nair,  D. P. O'Neill,  D. Neuhauser,  E. Neuscamman,  
 C. M. Oana,  R. Olson,  B. Peters,  R. Peverati,  P. A. Pieniazek,  
 Y. M. Rhee,  J. Ritchie,  M. A. Rohrdanz,  E. Rosta,  N. J. Russ,  
 H. F. Schaefer III,  N. E. Schultz,  N. Shenvi,  A. C. Simmonett,  A. Sodt,  
 D. Stuck,  K. S. Thanthiriwatte,  V. Vanovschi,  Tao Wang,  A. Warshel,  
 C. F. Williams,  Q. Wu,  X. Xu,  W. Zhang

 Please cite Q-Chem as follows:
 Y. Shao et al., Mol. Phys. 113, 184-215 (2015)
 DOI: 10.1080/00268976.2014.952696

 Q-Chem 5.2.0 for Intel X86 EM64T Linux

 Parts of Q-Chem use Armadillo 8.300.2 (Tropical Shenanigans).
 http://arma.sourceforge.net/

 Q-Chem begins on Sun Sep 26 05:16:28 2021  

Host: cori01
0

     Scratch files written to /tmp/qchem41567//Frg1//
 May1019 |scratch|qcdevops|jenkins|workspace|build_RNUM -1
Processing $rem in /global/common/cori/software/qchem/5.2/config/preferences:
	 MEM_TOTAL  96000 
NAlpha2: 40
NElect   40
Mult     1
Symmetry turned off for PCM/SM12/SMD calculation

Checking the input file for inconsistencies... 	...done.

--------------------------------------------------------------
User input:
--------------------------------------------------------------
$molecule
-1 1
 6	-0.4077306481	-0.8512420360	-1.6800455926
 6	-0.2827306481	-1.6452420360	-2.9710455926
 6	-0.9247306481	0.5337579640	-1.9270455926
 8	-0.1927306481	1.4597579640	-2.2870455926
 8	-2.1187306481	0.6867579640	-1.7270455926
 1	-1.0747306481	-1.3832420360	-0.9960455926
 1	0.5692693519	-0.7912420360	-1.1970455926
 1	-1.2487306481	-1.6302420360	-3.4800455926
 1	-0.0104226481	-2.6824220360	-2.7258955926
 1	0.4815563519	-1.2032520360	-3.6271755926
$end
$rem
EDA2		1
METHOD		WB97X-V
BASIS		DEF2-TZVPD
XC_GRID		000099000590
NL_GRID		1
UNRESTRICTED		FALSE
MAX_SCF_CYCLES		200
SYMMETRY		FALSE
SYM_IGNORE		TRUE
BASIS_LIN_DEP_THRESH		6
THRESH		14
SCF_CONVERGENCE		8
SCF_PRINT_FRGM		TRUE
SOLVENT_METHOD		PCM
!required keywords
JOBTYPE		SP
SYM_IGNORE		TRUE
SUBSYSTEM		TRUE
GEN_SCFMAN		TRUE
CHILD_INSTRUCTION		2
SYM_IGNORE		TRUE
SCFMI		0
RI_K 0		
PARI_K 0		
MIN_PARI_K 0		
IARI_K 0		
OCC_RI_K 0		
PURECART		1111
MEM_STATIC		2000
MEM_TOTAL		96000
GUI		0
CHILD_MP		1
CHILD_MP_ORDERS		232
FRZ_RELAX		0
FRZ_RELAX_METHOD		0
EDA_CLS_ELEC		1
EDA_CLS_DISP		0
FRZ_ORTHO_DECOMP		1
EDA2		FALSE
FRGM_METHOD		FALSE
CIS_N_ROOTS  0
LOCAL_CIS    0
CIS_RLX_DNS  1
$end
$pcm
THEORY                  CPCM
METHOD                  SWIG
SOLVER                  INVERSION
RADII                   UFF
HPOINTS                 302
HEAVYPOINTS             302
PRINTLEVEL              0
$end
$solvent
DIELECTRIC              78.390000 ! water
$end
--------------------------------------------------------------
 ----------------------------------------------------------------
             Standard Nuclear Orientation (Angstroms)
    I     Atom           X                Y                Z
 ----------------------------------------------------------------
    1      C      -0.4077306481    -0.8512420360    -1.6800455926
    2      C      -0.2827306481    -1.6452420360    -2.9710455926
    3      C      -0.9247306481     0.5337579640    -1.9270455926
    4      O      -0.1927306481     1.4597579640    -2.2870455926
    5      O      -2.1187306481     0.6867579640    -1.7270455926
    6      H      -1.0747306481    -1.3832420360    -0.9960455926
    7      H       0.5692693519    -0.7912420360    -1.1970455926
    8      H      -1.2487306481    -1.6302420360    -3.4800455926
    9      H      -0.0104226481    -2.6824220360    -2.7258955926
   10      H       0.4815563519    -1.2032520360    -3.6271755926
 ----------------------------------------------------------------
 Nuclear Repulsion Energy =         171.21386217 hartrees
 There are       20 alpha and       20 beta electrons
 Requested basis set is def2-TZVPD
 There are 92 shells and 236 basis functions

 Total QAlloc Memory Limit  96000 MB
 Mega-Array Size      1956 MB
 MEM_STATIC part      2000 MB
 Discretize the solute cavity surface with Lebedev spheres
	Using 302 Lebedev grid points for each H atom
	Using 302 Lebedev grid points for other atoms
	Atomic van der Waals radii will be scaled by 1.20
 Remove points where switching function is < 1.0e-08
 Keep 1301 surface tesserae and discard 1719 interior tesserae
 Molecular Surface Area = 143.827 Angst**2

                       Distance Matrix (Angstroms)
             C (  1)   C (  2)   C (  3)   O (  4)   O (  5)   H (  6)
   C (  2)  1.520770
   C (  3)  1.498841  2.500028
   O (  4)  2.399040  3.180720  1.234058
   O (  5)  2.301125  3.218176  1.220264  2.149559
   H (  6)  1.093512  2.143953  2.136387  3.244573  2.430884
   H (  7)  1.091521  2.145296  2.126161  2.614526  3.112993  1.758864
   H (  8)  2.134039  1.091999  2.683222  3.476562  3.032886  2.502307
   H (  9)  2.145897  1.099997  3.437722  4.169350  4.098053  2.411017
   H ( 10)  2.169345  1.099998  2.808076  3.056507  3.734183  3.062233
             H (  7)   H (  8)   H (  9)
   H (  8)  3.036632
   H (  9)  2.499997  1.791433
   H ( 10)  2.466369  1.788256  1.800637
 
 A cutoff of  1.0D-14 yielded   4198 shell pairs
 There are     28084 function pairs (     35788 Cartesian)
 Smallest overlap matrix eigenvalue = 1.07E-05

 Scale SEOQF with 1.000000e-01/1.000000e-01/1.000000e-01

 Standard Electronic Orientation quadrupole field applied
 Nucleus-field energy     =    -0.0000000150 hartrees
 Guess from superposition of atomic densities
 Warning:  Energy on first SCF cycle will be non-variational
 SAD guess density has 38.612942 electrons

 -----------------------------------------------------------------------
  General SCF calculation program by
  Eric Jon Sundstrom, Paul Horn, Yuezhi Mao, Dmitri Zuev, Alec White,
  David Stuck, Shaama M.S., Shane Yost, Joonho Lee, David Small,
  Daniel Levine, Susi Lehtola, Hugh Burton, Evgeny Epifanovsky
 -----------------------------------------------------------------------
 Exchange:     0.1670 Hartree-Fock + 1.0000 wB97X-V + LR-HF
 Correlation:  1.0000 wB97X-V
 Using Euler-Maclaurin-Lebedev (99,590) quadrature formula
 Nonlocal Correlation:  VV10 with C = 0.0100 and b = 6.00 and scale = 1.00000
 Grid used for NLC:  SG-1 standard quadrature
Energy prior to optimization (guess energy) = -267.083268933412
Begin Timing: Total SCF Calculation
begin iterations for algorithm: DIIS         
the SCF tolerance is set to 1.00e-08
    1    -267.0832689334      1.26e-02     00000 
    2    -263.0662764559      2.08e-02     00000 
    3    -267.7898836895      4.99e-03     00000 
    4    -267.9243746784      2.17e-03     00000 
    5    -267.9509246296      3.43e-04     00000 
    6    -267.9519594605      2.02e-04     00000 
    7    -267.9521418253      6.65e-05     00000 
    8    -267.9521662668      1.67e-05     00000 
    9    -267.9521683539      6.31e-06     00000 
   10    -267.9521686947      2.13e-06     00000 
   11    -267.9521687586      3.23e-07     00000 
   12    -267.9521687621      1.15e-07     00000 
   13    -267.9521687623      4.88e-08     00000 
   14    -267.9521687624      1.33e-08     00000 
   15    -267.9521687624      2.01e-09     00000 Convergence criterion met
Timing for Total SCF: 638.00s (wall), 1263.89s (cpu)

************** Final PCM Free Energy Summary **************
 G_electrostatic  =      -0.10115362 hartree =     -63.47485246 kcal/mol
 G_cavitation     =       0.00000000 hartree =       0.00000000 kcal/mol
 G_dispersion     =       0.00000000 hartree =       0.00000000 kcal/mol
 G_repulsion      =       0.00000000 hartree =       0.00000000 kcal/mol
 --------------------------------------------------
 Non-electrostatic Free Energy =       0.00000000 hartree =       0.00000000 kcal/mol
 Total                         =      -0.10115362 hartree =     -63.47485246 kcal/mol
 --------------------------------------------------
 SCF Energy (H0 + V/2)                       =    -267.95216876 
 Solute Internal Energy (H0)                 =    -267.85101515 
 Total Free Energy (H0 + V/2 + non-elec)     =    -267.95216876 hartree
                                             = -168142.52367338 kcal/mol
***********************************************************

E_pcm = -0.1011536166
Multipole orders to be included
        2
        3
computing dipole RHS
computing quadrupole RHS
total number of RHS in solve_reponses: 8
RHS batch sizes
        8
Beginning Block Conjugate Gradient Iterations. Batch Number: 0
computing hessian-vector products by finite difference
              1      6.46e-01     00000 Conjugate Gradient Iteration
computing hessian-vector products by finite difference
              2      2.32e-01     00000 Conjugate Gradient Iteration
computing hessian-vector products by finite difference
              3      6.19e-02     00000 Conjugate Gradient Iteration
computing hessian-vector products by finite difference
              4      1.60e-02     00000 Conjugate Gradient Iteration
computing hessian-vector products by finite difference
              5      2.86e-03     00000 Conjugate Gradient Iteration
computing hessian-vector products by finite difference
              6      6.20e-04     00000 Conjugate Gradient Iteration
computing hessian-vector products by finite difference
              7      1.06e-04     00000 Conjugate Gradient Iteration
computing hessian-vector products by finite difference
              8      1.64e-05     00000 Conjugate Gradient Iteration
computing hessian-vector products by finite difference
              9      4.64e-06     00000 Conjugate Gradient Iteration
computing hessian-vector products by finite difference
             10      7.49e-07     00000 Conjugate Gradient Iteration
computing hessian-vector products by finite difference
             11      1.10e-07     00000 Conjugate Gradient Iteration
computing hessian-vector products by finite difference
             12      1.58e-08     00000 Conjugate Gradient Iteration
computing hessian-vector products by finite difference
             13      2.28e-09     00000 CG Converged
batch 0 complete
Done Calculating Responses
TESTING ORTHOGONALIZATION OF MULTIPOLE BASIS
Multipole virts passed orthogonality test
Virts Per Order
           60
          100
 
 --------------------------------------------------------------
 
                    Orbital Energies (a.u.)
 --------------------------------------------------------------
 
 Alpha MOs
 -- Occupied --
-19.1165 -19.1138 -10.3097 -10.2490 -10.2373  -1.1438  -1.0363  -0.8855
 -0.7432  -0.5975  -0.5491  -0.5345  -0.5096  -0.4874  -0.4686  -0.4356
 -0.4305  -0.3274  -0.3206  -0.3037
 -- Virtual --
  0.0637   0.0885   0.0922   0.0947   0.1243   0.1302   0.1360   0.1441
  0.1468   0.1853   0.1861   0.1898   0.1984   0.2029   0.2166   0.2272
  0.2543   0.2638   0.2800   0.2916   0.3023   0.3054   0.3210   0.3346
  0.3386   0.3474   0.3552   0.3611   0.3685   0.3745   0.3790   0.3887
  0.4046   0.4114   0.4213   0.4273   0.4354   0.4519   0.4642   0.4755
  0.4782   0.4903   0.4974   0.5134   0.5202   0.5279   0.5365   0.5433
  0.5568   0.5629   0.5776   0.5869   0.6166   0.6430   0.6477   0.6526
  0.6681   0.6874   0.6963   0.7010   0.7123   0.7345   0.7443   0.7519
  0.7657   0.7798   0.7820   0.7950   0.8053   0.8126   0.8190   0.8252
  0.8562   0.8788   0.8806   0.8949   0.9146   0.9330   0.9898   1.0197
  1.0285   1.0569   1.0713   1.0962   1.1136   1.1749   1.1950   1.2233
  1.2558   1.2803   1.3039   1.3381   1.3417   1.3831   1.4054   1.4294
  1.4673   1.4894   1.5318   1.6078   1.6544   1.7521   1.8609   1.8842
  1.9056   1.9075   1.9344   1.9431   1.9626   1.9780   1.9955   2.0085
  2.0397   2.0738   2.1084   2.1425   2.1944   2.2010   2.2289   2.2579
  2.3030   2.3526   2.3789   2.3985   2.4917   2.5104   2.5202   2.5531
  2.5774   2.5990   2.6151   2.6341   2.6507   2.7289   2.7676   2.8140
  2.8350   2.8569   2.8894   2.8987   2.9321   2.9622   3.0568   3.0962
  3.1381   3.1717   3.2573   3.2706   3.2762   3.3077   3.3320   3.3650
  3.3981   3.4096   3.4548   3.4766   3.5241   3.5316   3.5742   3.6127
  3.6151   3.6583   3.6682   3.6980   3.7128   3.7612   3.7716   3.8080
  3.8699   3.9124   4.0263   4.0600   4.0971   4.1298   4.1958   4.2772
  4.2891   4.4900   4.5615   4.6065   4.6761   4.7442   4.7976   4.8374
  4.8765   5.0288   5.1022   5.3411   5.3701   5.3880   5.4021   5.5356
  5.7710   5.8432   5.9010   6.1116   6.3100   6.3917   6.4492   6.6498
  6.7020   6.7580   6.7808   6.8001   7.0109   7.0459   7.0830   7.2946
  7.4131   7.4539   7.4692  22.6308  22.7994  23.9634  44.2804  44.4555
 --------------------------------------------------------------
 
          Ground-State Mulliken Net Atomic Charges

     Atom                 Charge (a.u.)
  ----------------------------------------
      1 C                     0.158154
      2 C                    -0.768776
      3 C                     0.137821
      4 O                    -0.690721
      5 O                    -0.661007
      6 H                     0.128729
      7 H                     0.132524
      8 H                     0.201050
      9 H                     0.176390
     10 H                     0.185836
  ----------------------------------------
  Sum of atomic charges =    -1.000000

 -----------------------------------------------------------------
                    Cartesian Multipole Moments
 -----------------------------------------------------------------
    Charge (ESU x 10^10)
                -4.8032
    Dipole Moment (Debye)
         X       6.0635      Y      -6.6392      Z       9.9855
       Tot      13.4371
    Quadrupole Moments (Debye-Ang)
        XX     -48.2388     XY       5.3119     YY     -42.8232
        XZ     -10.1125     YZ      14.0739     ZZ     -54.1788
    Octopole Moments (Debye-Ang^2)
       XXX     110.4746    XXY      -9.7252    XYY      30.2922
       YYY      -8.4900    XXZ      96.2905    XYZ      -9.5989
       YYZ      94.4476    XZZ      41.2657    YZZ     -27.0826
       ZZZ     259.2379
    Hexadecapole Moments (Debye-Ang^3)
      XXXX    -353.4395   XXXY      50.0795   XXYY    -110.8934
      XYYY      31.5555   YYYY    -351.2962   XXXZ    -200.9751
      XXYZ       7.6293   XYYZ     -58.3879   YYYZ     -10.5309
      XXZZ    -255.8684   XYZZ      25.9492   YYZZ    -284.0923
      XZZZ    -166.5975   YZZZ      17.6504   ZZZZ   -1129.2487
 -----------------------------------------------------------------
Archival summary:
1\1\nid00566\SP\ProcedureUnspecified\BasisUnspecified\235(1-,1)\meili\SunSep2608:17:332021SunSep2608:17:332021\0\\#,ProcedureUnspecified,BasisUnspecified,\\-1,1\C\O,1,1.22026\O,1,1.23406,2,122.285\C,1,1.49884,2,115.237,3,178.924,0\H,4,1.09152,1,109.322,2,-140.149,0\H,4,1.09351,1,110.013,2,-22.6692,0\C,4,1.52077,1,111.771,2,98.6877,0\H,7,1.092,4,108.41,1,-54.4926,0\H,7,1.1,4,108.871,1,-173.69,0\H,7,1.1,4,110.713,1,65.4356,0\\\@

 Total job time:  10866.18s(wall), 21203.33s(cpu) 
 Sun Sep 26 08:17:34 2021

        *************************************************************
        *                                                           *
        *  Thank you very much for using Q-Chem.  Have a nice day.  *
        *                                                           *
        *************************************************************


Done Job For Fragment 0
calling putenv with: QCSCRATCH=/global/cscratch1/sd/meili 
calling putenv with: QCLOCALSCR=/tmp 
calling putenv with: QCTHREADS=32 
Creating input file /tmp/qchem41567/Frg2.input
using default PutDataFrgm: nothing
calling putenv with: QCSCRATCH=/tmp/qchem41567/ 
calling putenv with: QCLOCALSCR=/tmp/qchem41567/ 
Spawning Job For Fragment 1
                  Welcome to Q-Chem
     A Quantum Leap Into The Future Of Chemistry


 Q-Chem 5.2, Q-Chem, Inc., Pleasanton, CA (2019)

 License issued to: National Energy Research Scientific Computing Center

 Yihan Shao,  Zhengting Gan,  E. Epifanovsky,  A. T. B. Gilbert,  M. Wormit,  
 J. Kussmann,  A. W. Lange,  A. Behn,  Jia Deng,  Xintian Feng,  D. Ghosh,  
 M. Goldey,  P. R. Horn,  L. D. Jacobson,  I. Kaliman,  T. Kus,  A. Landau,  
 Jie Liu,  E. I. Proynov,  R. M. Richard,  R. P. Steele,  E. J. Sundstrom,  
 H. L. Woodcock III,  P. M. Zimmerman,  D. Zuev,  B. Albrecht,  E. Alguire,  
 S. A. Baeppler,  D. Barton,  Z. Benda,  Y. A. Bernard,  E. J. Berquist,  
 K. B. Bravaya,  H. Burton,  D. Casanova,  Chun-Min Chang,  Yunqing Chen,  
 A. Chien,  K. D. Closser,  M. P. Coons,  S. Coriani,  S. Dasgupta,  
 A. L. Dempwolff,  M. Diedenhofen,  Hainam Do,  R. G. Edgar,  Po-Tung Fang,  
 S. Faraji,  S. Fatehi,  Qingguo Feng,  K. D. Fenk,  J. Fosso-Tande,  
 J. Gayvert,  Qinghui Ge,  A. Ghysels,  G. Gidofalvi,  J. Gomes,  
 J. Gonthier,  A. Gunina,  D. Hait,  M. W. D. Hanson-Heine,  
 P. H. P. Harbach,  A. W. Hauser,  M. F. Herbst,  J. E. Herr,  
 E. G. Hohenstein,  Z. C. Holden,  Kerwin Hui,  B. C. Huynh,  T.-C. Jagau,  
 Hyunjun Ji,  B. Kaduk,  K. Khistyaev,  Jaehoon Kim,  P. Klunzinger,  K. Koh,  
 D. Kosenkov,  L. Koulias,  T. Kowalczyk,  C. M. Krauter,  A. Kunitsa,  
 Ka Un Lao,  A. Laurent,  K. V. Lawler,  Joonho Lee,  D. Lefrancois,  
 S. Lehtola,  D. S. Levine,  Yi-Pei Li,  You-Sheng Lin,  Fenglai Liu,  
 E. Livshits,  A. Luenser,  P. Manohar,  E. Mansoor,  S. F. Manzer,  
 Shan-Ping Mao,  Yuezhi Mao,  N. Mardirossian,  A. V. Marenich,  
 T. Markovich,  L. A. Martinez-Martinez,  S. A. Maurer,  N. J. Mayhall,  
 S. C. McKenzie,  J.-M. Mewes,  P. Morgante,  A. F. Morrison,  
 J. W. Mullinax,  K. Nanda,  T. S. Nguyen-Beck,  R. Olivares-Amaya,  
 J. A. Parkhill,  Zheng Pei,  T. M. Perrine,  F. Plasser,  P. Pokhilko,  
 S. Prager,  A. Prociuk,  E. Ramos,  D. R. Rehn,  F. Rob,  M. Scheurer,  
 M. Schneider,  N. Sergueev,  S. M. Sharada,  S. Sharma,  D. W. Small,  
 T. Stauch,  T. Stein,  Yu-Chuan Su,  A. J. W. Thom,  A. Tkatchenko,  
 T. Tsuchimochi,  N. M. Tubman,  L. Vogt,  M. L. Vidal,  O. Vydrov,  
 M. A. Watson,  J. Wenzel,  M. de Wergifosse,  T. A. Wesolowski,  A. White,  
 J. Witte,  A. Yamada,  Jun Yang,  K. Yao,  S. Yeganeh,  S. R. Yost,  
 Zhi-Qiang You,  A. Zech,  Igor Ying Zhang,  Xing Zhang,  Yan Zhao,  
 Ying Zhu,  B. R. Brooks,  G. K. L. Chan,  C. J. Cramer,  M. S. Gordon,  
 W. J. Hehre,  A. Klamt,  M. W. Schmidt,  C. D. Sherrill,  D. G. Truhlar,  
 A. Aspuru-Guzik,  R. Baer,  A. T. Bell,  N. A. Besley,  Jeng-Da Chai,  
 A. E. DePrince, III,  R. A. DiStasio Jr.,  A. Dreuw,  B. D. Dunietz,  
 T. R. Furlani,  Chao-Ping Hsu,  Yousung Jung,  Jing Kong,  D. S. Lambrecht,  
 WanZhen Liang,  C. Ochsenfeld,  V. A. Rassolov,  L. V. Slipchenko,  
 J. E. Subotnik,  T. Van Voorhis,  J. M. Herbert,  A. I. Krylov,  
 P. M. W. Gill,  M. Head-Gordon

 Contributors to earlier versions of Q-Chem not listed above: 
 R. D. Adamson,  B. Austin,  J. Baker,  G. J. O. Beran,  K. Brandhorst,  
 S. T. Brown,  E. F. C. Byrd,  A. K. Chakraborty,  C.-L. Cheng,  
 Siu Hung Chien,  D. M. Chipman,  D. L. Crittenden,  H. Dachsel,  
 R. J. Doerksen,  A. D. Dutoi,  L. Fusti-Molnar,  W. A. Goddard III,  
 A. Golubeva-Zadorozhnaya,  S. R. Gwaltney,  G. Hawkins,  A. Heyden,  
 S. Hirata,  G. Kedziora,  F. J. Keil,  C. Kelley,  Jihan Kim,  R. A. King,  
 R. Z. Khaliullin,  P. P. Korambath,  W. Kurlancheek,  A. M. Lee,  M. S. Lee,  
 S. V. Levchenko,  Ching Yeh Lin,  D. Liotard,  R. C. Lochan,  I. Lotan,  
 P. E. Maslen,  N. Nair,  D. P. O'Neill,  D. Neuhauser,  E. Neuscamman,  
 C. M. Oana,  R. Olson,  B. Peters,  R. Peverati,  P. A. Pieniazek,  
 Y. M. Rhee,  J. Ritchie,  M. A. Rohrdanz,  E. Rosta,  N. J. Russ,  
 H. F. Schaefer III,  N. E. Schultz,  N. Shenvi,  A. C. Simmonett,  A. Sodt,  
 D. Stuck,  K. S. Thanthiriwatte,  V. Vanovschi,  Tao Wang,  A. Warshel,  
 C. F. Williams,  Q. Wu,  X. Xu,  W. Zhang

 Please cite Q-Chem as follows:
 Y. Shao et al., Mol. Phys. 113, 184-215 (2015)
 DOI: 10.1080/00268976.2014.952696

 Q-Chem 5.2.0 for Intel X86 EM64T Linux

 Parts of Q-Chem use Armadillo 8.300.2 (Tropical Shenanigans).
 http://arma.sourceforge.net/

 Q-Chem begins on Sun Sep 26 08:17:37 2021  

Host: cori01
0

     Scratch files written to /tmp/qchem41567//Frg2//
 May1019 |scratch|qcdevops|jenkins|workspace|build_RNUM -1
Processing $rem in /global/common/cori/software/qchem/5.2/config/preferences:
	 MEM_TOTAL  96000 
NAlpha2: 44
NElect   44
Mult     1
Symmetry turned off for PCM/SM12/SMD calculation

Checking the input file for inconsistencies... 	...done.

--------------------------------------------------------------
User input:
--------------------------------------------------------------
$molecule
0 1
 6	2.3652693519	-1.4912420360	1.9209544074
 6	-0.1347306481	-0.7622420360	2.1489544074
 6	1.2022693519	-0.5472420360	1.9199544074
 6	0.1712693519	1.3757579640	1.6879544074
 7	-0.7607306481	0.4687579640	2.0019544074
 7	1.3832693519	0.8037579640	1.6609544074
 1	-0.6177306481	-1.6932420360	2.4039544074
 1	-1.7587306481	0.6597579640	2.0789544074
 1	3.0752693519	-1.1362420360	2.6679544074
 1	2.8562693519	-1.4372420360	0.9479544074
 1	-0.0297306481	2.4237579640	1.4989544074
 1	2.1111903519	-2.5372420360	2.1475264074
$end
$rem
EDA2		1
METHOD		WB97X-V
BASIS		DEF2-TZVPD
XC_GRID		000099000590
NL_GRID		1
UNRESTRICTED		FALSE
MAX_SCF_CYCLES		200
SYMMETRY		FALSE
SYM_IGNORE		TRUE
BASIS_LIN_DEP_THRESH		6
THRESH		14
SCF_CONVERGENCE		8
SCF_PRINT_FRGM		TRUE
SOLVENT_METHOD		PCM
!required keywords
JOBTYPE		SP
SYM_IGNORE		TRUE
SUBSYSTEM		TRUE
GEN_SCFMAN		TRUE
CHILD_INSTRUCTION		2
SYM_IGNORE		TRUE
SCFMI		0
RI_K 0		
PARI_K 0		
MIN_PARI_K 0		
IARI_K 0		
OCC_RI_K 0		
PURECART		1111
MEM_STATIC		2000
MEM_TOTAL		96000
GUI		0
CHILD_MP		1
CHILD_MP_ORDERS		232
FRZ_RELAX		0
FRZ_RELAX_METHOD		0
EDA_CLS_ELEC		1
EDA_CLS_DISP		0
FRZ_ORTHO_DECOMP		1
EDA2		FALSE
FRGM_METHOD		FALSE
CIS_N_ROOTS  0
LOCAL_CIS    0
CIS_RLX_DNS  1
$end
$pcm
THEORY                  CPCM
METHOD                  SWIG
SOLVER                  INVERSION
RADII                   UFF
HPOINTS                 302
HEAVYPOINTS             302
PRINTLEVEL              0
$end
$solvent
DIELECTRIC              78.390000 ! water
$end
--------------------------------------------------------------
 ----------------------------------------------------------------
             Standard Nuclear Orientation (Angstroms)
    I     Atom           X                Y                Z
 ----------------------------------------------------------------
    1      C       2.3652693519    -1.4912420360     1.9209544074
    2      C      -0.1347306481    -0.7622420360     2.1489544074
    3      C       1.2022693519    -0.5472420360     1.9199544074
    4      C       0.1712693519     1.3757579640     1.6879544074
    5      N      -0.7607306481     0.4687579640     2.0019544074
    6      N       1.3832693519     0.8037579640     1.6609544074
    7      H      -0.6177306481    -1.6932420360     2.4039544074
    8      H      -1.7587306481     0.6597579640     2.0789544074
    9      H       3.0752693519    -1.1362420360     2.6679544074
   10      H       2.8562693519    -1.4372420360     0.9479544074
   11      H      -0.0297306481     2.4237579640     1.4989544074
   12      H       2.1111903519    -2.5372420360     2.1475264074
 ----------------------------------------------------------------
 Nuclear Repulsion Energy =         223.48302050 hartrees
 There are       22 alpha and       22 beta electrons
 Requested basis set is def2-TZVPD
 There are 108 shells and 276 basis functions

 Total QAlloc Memory Limit  96000 MB
 Mega-Array Size      1956 MB
 MEM_STATIC part      2000 MB
 Discretize the solute cavity surface with Lebedev spheres
	Using 302 Lebedev grid points for each H atom
	Using 302 Lebedev grid points for other atoms
	Atomic van der Waals radii will be scaled by 1.20
 Remove points where switching function is < 1.0e-08
 Keep 1530 surface tesserae and discard 2094 interior tesserae
 Molecular Surface Area = 157.883 Angst**2

                       Distance Matrix (Angstroms)
             C (  1)   C (  2)   C (  3)   C (  4)   N (  5)   N (  6)
   C (  2)  2.614082
   C (  3)  1.497901  1.373403
   C (  4)  3.617681  2.208439  2.194246
   N (  5)  3.690533  1.388829  2.211866  1.337860
   N (  6)  2.509771  2.234910  1.387459  1.340469  2.196643
   H (  7)  3.028594  1.079386  2.204534  3.248683  2.203701  3.284975
   H (  8)  4.653938  2.159713  3.201508  2.095337  1.019026  3.172952
   H (  9)  1.090016  3.273123  2.101084  3.962797  4.211232  2.764148
   H ( 10)  1.091204  3.293039  2.114852  3.958509  4.222137  2.774920
   H ( 11)  4.608832  3.253325  3.243749  1.083709  2.146950  2.155740
   H ( 12)  1.100003  2.862654  2.199551  4.391591  4.159947  3.453824
             H (  7)   H (  8)   H (  9)   H ( 10)   H ( 11)
   H (  8)  2.635169
   H (  9)  3.744088  5.190385
   H ( 10)  3.775467  5.193727  1.759819
   H ( 11)  4.256108  2.537230  4.866332  4.851795
   H ( 12)  2.867944  5.020139  1.778509  1.790004  5.442032
 
 A cutoff of  1.0D-14 yielded   5736 shell pairs
 There are     38166 function pairs (     48943 Cartesian)
 Smallest overlap matrix eigenvalue = 1.84E-06

 Scale SEOQF with 1.000000e-01/1.000000e-01/1.000000e-01

 Standard Electronic Orientation quadrupole field applied
 Nucleus-field energy     =    -0.0000000103 hartrees
 Guess from superposition of atomic densities
 Warning:  Energy on first SCF cycle will be non-variational
 SAD guess density has 43.559167 electrons

 -----------------------------------------------------------------------
  General SCF calculation program by
  Eric Jon Sundstrom, Paul Horn, Yuezhi Mao, Dmitri Zuev, Alec White,
  David Stuck, Shaama M.S., Shane Yost, Joonho Lee, David Small,
  Daniel Levine, Susi Lehtola, Hugh Burton, Evgeny Epifanovsky
 -----------------------------------------------------------------------
 Exchange:     0.1670 Hartree-Fock + 1.0000 wB97X-V + LR-HF
 Correlation:  1.0000 wB97X-V
 Using Euler-Maclaurin-Lebedev (99,590) quadrature formula
 Nonlocal Correlation:  VV10 with C = 0.0100 and b = 6.00 and scale = 1.00000
 Grid used for NLC:  SG-1 standard quadrature
Energy prior to optimization (guess energy) = -265.150999135426
Begin Timing: Total SCF Calculation
begin iterations for algorithm: DIIS         
the SCF tolerance is set to 1.00e-08
    1    -265.1509991354      7.16e-03     00000 
    2    -265.1122066832      7.31e-03     00000 
    3    -265.5608980311      7.27e-04     00000 
    4    -265.5644917446      4.14e-04     00000 
    5    -265.5659128585      8.73e-05     00000 
    6    -265.5660000966      3.00e-05     00000 
    7    -265.5660129258      9.12e-06     00000 
    8    -265.5660142809      2.98e-06     00000 
    9    -265.5660144569      1.35e-06     00000 
   10    -265.5660144994      3.66e-07     00000 
   11    -265.5660145043      9.21e-08     00000 
   12    -265.5660145045      4.94e-08     00000 
   13    -265.5660145046      1.02e-08     00000 
   14    -265.5660145046      4.32e-09     00000 Convergence criterion met
Timing for Total SCF: 960.00s (wall), 1905.68s (cpu)

************** Final PCM Free Energy Summary **************
 G_electrostatic  =      -0.01052530 hartree =      -6.60472599 kcal/mol
 G_cavitation     =       0.00000000 hartree =       0.00000000 kcal/mol
 G_dispersion     =       0.00000000 hartree =       0.00000000 kcal/mol
 G_repulsion      =       0.00000000 hartree =       0.00000000 kcal/mol
 --------------------------------------------------
 Non-electrostatic Free Energy =       0.00000000 hartree =       0.00000000 kcal/mol
 Total                         =      -0.01052530 hartree =      -6.60472599 kcal/mol
 --------------------------------------------------
 SCF Energy (H0 + V/2)                       =    -265.56601450 
 Solute Internal Energy (H0)                 =    -265.55548920 
 Total Free Energy (H0 + V/2 + non-elec)     =    -265.56601450 hartree
                                             = -166645.18927734 kcal/mol
***********************************************************

E_pcm = -0.0105253009
Multipole orders to be included
        2
        3
computing dipole RHS
computing quadrupole RHS
total number of RHS in solve_reponses: 8
RHS batch sizes
        8
Beginning Block Conjugate Gradient Iterations. Batch Number: 0
computing hessian-vector products by finite difference
              1      6.32e-01     00000 Conjugate Gradient Iteration
computing hessian-vector products by finite difference
              2      2.05e-01     00000 Conjugate Gradient Iteration
computing hessian-vector products by finite difference
              3      5.16e-02     00000 Conjugate Gradient Iteration
computing hessian-vector products by finite difference
              4      1.59e-02     00000 Conjugate Gradient Iteration
computing hessian-vector products by finite difference
              5      3.33e-03     00000 Conjugate Gradient Iteration
computing hessian-vector products by finite difference
              6      6.42e-04     00000 Conjugate Gradient Iteration
computing hessian-vector products by finite difference
              7      1.28e-04     00000 Conjugate Gradient Iteration
computing hessian-vector products by finite difference
              8      1.95e-05     00000 Conjugate Gradient Iteration
computing hessian-vector products by finite difference
              9      2.92e-06     00000 Conjugate Gradient Iteration
computing hessian-vector products by finite difference
             10      3.96e-07     00000 Conjugate Gradient Iteration
computing hessian-vector products by finite difference
             11      5.86e-08     00000 Conjugate Gradient Iteration
computing hessian-vector products by finite difference
             12      9.38e-09     00000 CG Converged
batch 0 complete
Done Calculating Responses
TESTING ORTHOGONALIZATION OF MULTIPOLE BASIS
Multipole virts passed orthogonality test
Virts Per Order
           66
          110
 
 --------------------------------------------------------------
 
                    Orbital Energies (a.u.)
 --------------------------------------------------------------
 
 Alpha MOs
 -- Occupied --
-14.4692 -14.3919 -10.3264 -10.2932 -10.2914 -10.2650  -1.1503  -0.9978
 -0.8972  -0.8284  -0.7295  -0.6863  -0.6677  -0.5636  -0.5597  -0.5442
 -0.5131  -0.4983  -0.4853  -0.3821  -0.3775  -0.3235
 -- Virtual --
  0.0638   0.0817   0.0936   0.0997   0.1136   0.1247   0.1286   0.1415
  0.1674   0.1680   0.1731   0.1819   0.1967   0.1991   0.2218   0.2395
  0.2401   0.2440   0.2580   0.2608   0.2655   0.2849   0.2962   0.2976
  0.3072   0.3103   0.3180   0.3242   0.3261   0.3323   0.3404   0.3559
  0.3574   0.3595   0.3735   0.3765   0.3888   0.3963   0.4023   0.4095
  0.4179   0.4197   0.4231   0.4455   0.4530   0.4664   0.4714   0.4732
  0.4836   0.4931   0.4959   0.5124   0.5307   0.5443   0.5445   0.5575
  0.5604   0.5701   0.5856   0.5946   0.5999   0.6056   0.6270   0.6291
  0.6389   0.6485   0.6709   0.6790   0.6884   0.7012   0.7050   0.7166
  0.7258   0.7309   0.7524   0.7656   0.7735   0.7782   0.7922   0.8013
  0.8045   0.8086   0.8179   0.8314   0.8572   0.8606   0.8722   0.8949
  0.9134   0.9389   0.9752   0.9904   0.9919   0.9998   1.0141   1.0298
  1.0571   1.0869   1.0952   1.1161   1.1260   1.1438   1.1779   1.2150
  1.2263   1.2372   1.2767   1.3194   1.3321   1.3368   1.3752   1.4274
  1.4342   1.4641   1.5350   1.5473   1.5930   1.6330   1.6390   1.6667
  1.6849   1.7263   1.7962   1.8189   1.8287   1.8454   1.8560   1.8746
  1.8938   1.9402   1.9475   1.9556   1.9734   1.9771   1.9948   2.0051
  2.0146   2.0684   2.0913   2.1204   2.1661   2.2369   2.2480   2.2753
  2.3057   2.3496   2.3657   2.3911   2.4323   2.4550   2.4713   2.4930
  2.5444   2.5906   2.6107   2.6150   2.6314   2.6393   2.6854   2.7164
  2.7304   2.7639   2.7782   2.8216   2.8505   2.8678   2.8936   2.9688
  3.0097   3.0346   3.0565   3.0674   3.0982   3.1222   3.1329   3.1555
  3.1701   3.1866   3.1991   3.2126   3.2449   3.2968   3.2974   3.3193
  3.3542   3.3627   3.3726   3.3844   3.4123   3.4367   3.4588   3.4908
  3.5074   3.5415   3.5639   3.5907   3.6317   3.6358   3.6840   3.7284
  3.7423   3.7753   3.7873   3.8374   3.8705   3.9273   3.9451   4.0308
  4.0716   4.0985   4.1158   4.2176   4.2782   4.4342   4.4393   4.4832
  4.5187   4.5594   4.6081   4.6558   4.7381   4.7842   4.8234   4.8481
  4.9258   4.9461   5.0164   5.0224   5.0313   5.0479   5.1404   5.1795
  5.2110   5.2885   5.3527   5.4187   5.4777   5.5120   5.5578   5.5816
  5.6560   5.6837   5.7572   5.7703   5.8603   6.0235   6.2185   6.2316
 22.6317  22.8379  23.0777  23.3458  32.6235  32.7644
 --------------------------------------------------------------
 
          Ground-State Mulliken Net Atomic Charges

     Atom                 Charge (a.u.)
  ----------------------------------------
      1 C                    -0.724308
      2 C                    -0.561991
      3 C                     0.568071
      4 C                    -0.240293
      5 N                     0.096850
      6 N                    -0.469620
      7 H                     0.261009
      8 H                     0.178164
      9 H                     0.191394
     10 H                     0.192356
     11 H                     0.285271
     12 H                     0.223096
  ----------------------------------------
  Sum of atomic charges =     0.000000

 -----------------------------------------------------------------
                    Cartesian Multipole Moments
 -----------------------------------------------------------------
    Charge (ESU x 10^10)
                 0.0000
    Dipole Moment (Debye)
         X      -4.3353      Y      -0.8297      Z       0.6539
       Tot       4.4621
    Quadrupole Moments (Debye-Ang)
        XX     -36.1505     XY      -6.1115     YY     -32.0279
        XZ      -7.8042     YZ      -2.2229     ZZ     -35.9265
    Octopole Moments (Debye-Ang^2)
       XXX     -98.9999    XXY      -4.9543    XYY     -32.9450
       YYY      12.2483    XXZ     -64.9352    XYZ      -9.9285
       YYZ     -60.3172    XZZ     -41.9993    YZZ      -2.8429
       ZZZ    -211.5669
    Hexadecapole Moments (Debye-Ang^3)
      XXXX    -459.0784   XXXY      47.7284   XXYY    -132.9035
      XYYY      65.1211   YYYY    -269.2024   XXXZ    -176.4441
      XXYZ      -0.9667   XYYZ     -59.2283   YYYZ      28.8871
      XXZZ    -201.4445   XYZZ       7.2717   YYZZ    -176.6776
      XZZZ    -176.4811   YZZZ      19.3191   ZZZZ    -869.7031
 -----------------------------------------------------------------
Archival summary:
1\1\nid00566\SP\ProcedureUnspecified\BasisUnspecified\246\meili\SunSep2612:52:342021SunSep2612:52:342021\0\\#,ProcedureUnspecified,BasisUnspecified,\\0,1\N\C,1,1.34047\H,2,1.08371,1,125.229\N,2,1.33786,1,110.2,3,-179.119,0\H,4,1.01903,2,124.954,1,-179.588,0\C,1,1.38746,2,107.085,3,-178.46,0\C,6,1.3734,1,108.093,2,-2.10859,0\H,7,1.07939,6,127.592,1,-178.36,0\C,6,1.4979,1,120.83,2,178.114,0\H,9,1.09002,6,107.514,1,58.4562,0\H,9,1.0912,6,108.516,1,-57.6166,0\H,9,1.1,6,114.839,1,179.432,0\\\@

 Total job time:  16502.53s(wall), 32722.35s(cpu) 
 Sun Sep 26 12:52:39 2021

        *************************************************************
        *                                                           *
        *  Thank you very much for using Q-Chem.  Have a nice day.  *
        *                                                           *
        *************************************************************


Done Job For Fragment 1
calling putenv with: QCSCRATCH=/global/cscratch1/sd/meili 
calling putenv with: QCLOCALSCR=/tmp 
calling putenv with: QCTHREADS=32 
Doing General SCFMI
 Exchange:     0.1670 Hartree-Fock + 1.0000 wB97X-V + LR-HF
 Correlation:  1.0000 wB97X-V
 Using Euler-Maclaurin-Lebedev (99,590) quadrature formula
 Nonlocal Correlation:  VV10 with C = 0.0100 and b = 6.00 and scale = 1.00000
 Grid used for NLC:  SG-1 standard quadrature
performing fock build before subrot guess so that all methods have access
Printing subrot_rss_gen Method Specification:
Occupied Subspace Method is 0
Virtual Subspace Method is 0
Energy of the unrelaxed supersystem initial determinant -533.410767350037
performing fock build before subrot guess so that all methods have access
Printing subrot_rss_gen Method Specification:
Occupied Subspace Method is 0
Virtual Subspace Method is 0
Energy of the unrelaxed supersystem initial determinant w/ solvent -533.520631109058
write pseudocanon occs and virts to disk
write pseudocanon orbital energies to disk
Tolerance of ortho_decomp_scf: 1.00e-06
GDM subspace size: 20
Beginning the Orthogonal Decomposition of the Initial Supersystem Wavefunction
    1    -533.3981269466      1.54e-02     ortho_decomp Preconditoned Steepest Descent
    2    -533.3988547311      3.74e-04     ortho_decomp BFGS Step
    3    -533.3988567574      2.34e-05     ortho_decomp BFGS Step
    4    -533.3988567601      9.43e-07     ortho_decomp 00000 Convergence criterion met
 Hartree-Fock
 Hartree-Fock
 Hartree-Fock
Doing General SCFMI
 Exchange:     0.1670 Hartree-Fock + 1.0000 wB97X-V + LR-HF
 Correlation:  1.0000 wB97X-V
 Using Euler-Maclaurin-Lebedev (99,590) quadrature formula
 Nonlocal Correlation:  VV10 with C = 0.0100 and b = 6.00 and scale = 1.00000
 Grid used for NLC:  SG-1 standard quadrature
performing fock build at end of subrot_r(subrot) constructor so that all methods have access
<S^2> of initial wavefunction before polarization iterations 0.0000000000
Beginning iterations for the determination of the polarized wavefunction
Energy prior to optimization (guess energy) = -533.520631109058
Begin Timing: Total SCF Calculation
begin iterations for algorithm: DIIS         
the SCF tolerance is set to 1.00e-08
    1    -533.5206311091      5.22e-05     00000 
    2    -533.5207650424      2.77e-05     00000 
    3    -533.5207894682      7.33e-06     00000 
    4    -533.5207916449      3.79e-06     00000 
    5    -533.5207921309      1.53e-06     00000 
    6    -533.5207922287      6.35e-07     00000 
    7    -533.5207922458      2.39e-07     00000 
    8    -533.5207922472      1.35e-07     00000 
    9    -533.5207922477      4.35e-08     00000 
   10    -533.5207922477      2.31e-08     00000 
   11    -533.5207922478      7.43e-09     00000 Convergence criterion met
write pseudocanon occs and virts to disk
write pseudocanon orbital energies to disk
Timing for Total SCF: 4403.00s (wall), 8737.89s (cpu)
<S^2> of polarized wavefunction after polarization iterations 0.0000000000
relaxing scfmi constraint to allow all rotations in the entire AO span
Doing General SCFMI
 Exchange:     0.1670 Hartree-Fock + 1.0000 wB97X-V + LR-HF
 Correlation:  1.0000 wB97X-V
 Using Euler-Maclaurin-Lebedev (99,590) quadrature formula
 Nonlocal Correlation:  VV10 with C = 0.0100 and b = 6.00 and scale = 1.00000
 Grid used for NLC:  SG-1 standard quadrature
performing fock build at end of subrot_r(subrot) constructor so that all methods have access
<S^2> of polarized wavefunction before ct-allowed iterations 0.0000000000
Beginning iterations for the determination of the CT-Allowed wavefunction
Energy prior to optimization (guess energy) = -533.520792247756
Begin Timing: Total SCF Calculation
begin iterations for algorithm: DIIS         
the SCF tolerance is set to 1.00e-08
    1    -533.5207922478      6.22e-05     00000 
    2    -533.5211175914      4.52e-06     00000 
    3    -533.5211255173      8.15e-07     00000 
    4    -533.5211258305      3.99e-07     00000 
    5    -533.5211258512      1.15e-07     00000 
    6    -533.5211258536      5.47e-08     00000 
    7    -533.5211258540      9.20e-09     00000 Convergence criterion met
write pseudocanon occs and virts to disk
write pseudocanon orbital energies to disk
Timing for Total SCF: 2672.00s (wall), 5317.30s (cpu)
<S^2> of ct_allowed wavefunction after ct-allowed iterations 0.0000000000

================================
        Results of EDA2         
================================
Basic EDA Quantities
--------------------
Fragment Energies (Ha):
1 -267.9521687624
2 -265.5660145046
--------------------
  E_prp (kJ/mol) = 0.0000
  E_sol (kJ/mol) = 4.7658
  E_frz (kJ/mol) = -11.1926
  E_pol (kJ/mol) = -0.4231
  E_vct (kJ/mol) = -0.8759
  E_int (kJ/mol) = -7.7259
--------------------


Initial Wavefunction Decomposition
--------------------
  --------------------
  Orthogonal Fragment Subspace Decomposition:
  --------------------
     E_elec   (ELEC)   (kJ/mol) = -12.5260
     E_pauli  (PAULI)  (kJ/mol) = 15.0919
     E_disp   (DISP)   (kJ/mol) = -13.7585
     --------------------
     Terms summing to E_pauli:
     --------------------
        E_kep_pauli       (kJ/mol) = 20.0790
        E_disp_free_pauli (kJ/mol) = -4.9871
  --------------------
  Classical Frozen Decomposition:
  --------------------
     E_cls_elec  (CLS ELEC)  (kJ/mol) = -3.5318
     E_cls_pauli (CLS PAULI) (kJ/mol) = -7.6608
    [E_mod_pauli (MOD PAULI) (kJ/mol) = 6.0977 (CLS PAULI - DISP from orthogonal decomposition) ]
  --------------------
--------------------

Simplified EDA Summary (kJ/mol)
--------------------
 PREPARATION     0.0000
 SOLVATION       4.7658
 FROZEN          2.5659      (does not include dispersion)
[PAULI           15.0919]     (if this is negligible, then frozen describes electrostatics)
 DISPERSION      -13.7585
 POLARIZATION    -0.4231
 CHARGE TRANSFER -0.8759
 TOTAL           -7.7259     (PRP + SOL + FRZ + DISP + POL + CT)
--------------------
 
 --------------------------------------------------------------
 
                    Orbital Energies (a.u.)
 --------------------------------------------------------------
 
 Alpha MOs
 -- Occupied --
-19.1150 -19.1124 -14.4652 -14.3882 -10.3229 -10.3078 -10.2895 -10.2877
-10.2630 -10.2476 -10.2341  -1.1461  -1.1419  -1.0345  -0.9939  -0.8939
 -0.8832  -0.8254  -0.7409  -0.7258  -0.6827  -0.6642  -0.5955  -0.5601
 -0.5565  -0.5467  -0.5407  -0.5328  -0.5120  -0.5056  -0.4954  -0.4860
 -0.4828  -0.4669  -0.4335  -0.4281  -0.3785  -0.3734  -0.3257  -0.3207
 -0.3169  -0.3021
 -- Virtual --
  0.0584   0.0744   0.0779   0.0843   0.0950   0.0986   0.1046   0.1088
  0.1178   0.1187   0.1292   0.1326   0.1411   0.1474   0.1515   0.1577
  0.1597   0.1690   0.1775   0.1834   0.1859   0.1942   0.1948   0.2000
  0.2092   0.2131   0.2174   0.2301   0.2345   0.2396   0.2447   0.2535
  0.2585   0.2679   0.2738   0.2793   0.2858   0.2892   0.2960   0.2985
  0.3023   0.3083   0.3123   0.3139   0.3219   0.3240   0.3264   0.3286
  0.3309   0.3384   0.3414   0.3449   0.3520   0.3574   0.3640   0.3666
  0.3692   0.3706   0.3769   0.3839   0.3861   0.3922   0.3952   0.3983
  0.4040   0.4045   0.4141   0.4154   0.4181   0.4238   0.4253   0.4293
  0.4324   0.4368   0.4462   0.4527   0.4577   0.4628   0.4680   0.4737
  0.4827   0.4835   0.4882   0.4907   0.4936   0.5039   0.5061   0.5139
  0.5178   0.5216   0.5262   0.5295   0.5388   0.5449   0.5494   0.5497
  0.5519   0.5621   0.5722   0.5752   0.5788   0.5890   0.5926   0.5989
  0.6073   0.6093   0.6119   0.6279   0.6311   0.6370   0.6434   0.6512
  0.6549   0.6599   0.6650   0.6737   0.6794   0.6834   0.6895   0.6949
  0.6968   0.7039   0.7110   0.7167   0.7205   0.7313   0.7388   0.7425
  0.7522   0.7580   0.7629   0.7702   0.7774   0.7840   0.7866   0.7910
  0.7961   0.7970   0.7993   0.8007   0.8115   0.8189   0.8241   0.8263
  0.8296   0.8415   0.8420   0.8479   0.8548   0.8597   0.8618   0.8659
  0.8777   0.8800   0.8965   0.9005   0.9036   0.9132   0.9172   0.9326
  0.9357   0.9479   0.9618   0.9709   0.9864   1.0013   1.0027   1.0142
  1.0233   1.0366   1.0445   1.0602   1.0640   1.0736   1.0882   1.1090
  1.1149   1.1214   1.1371   1.1491   1.1540   1.1596   1.1827   1.1858
  1.1966   1.2047   1.2215   1.2231   1.2298   1.2422   1.2539   1.2598
  1.2725   1.2822   1.3061   1.3111   1.3353   1.3490   1.3588   1.3731
  1.3838   1.3962   1.4006   1.4163   1.4301   1.4519   1.4698   1.4850
  1.4997   1.5206   1.5287   1.5520   1.5798   1.6028   1.6220   1.6270
  1.6555   1.6645   1.6794   1.6931   1.7190   1.7409   1.7500   1.7637
  1.8351   1.8460   1.8662   1.8707   1.8947   1.9092   1.9173   1.9342
  1.9360   1.9479   1.9527   1.9575   1.9721   1.9766   1.9833   1.9908
  2.0018   2.0067   2.0099   2.0276   2.0374   2.0628   2.0641   2.0818
  2.0949   2.1000   2.1116   2.1139   2.1341   2.1432   2.1834   2.2068
  2.2177   2.2402   2.2591   2.2677   2.2842   2.3037   2.3113   2.3211
  2.3329   2.3450   2.3803   2.3877   2.3964   2.4068   2.4206   2.4547
  2.4565   2.4842   2.5160   2.5169   2.5321   2.5462   2.5602   2.5779
  2.5865   2.6009   2.6222   2.6231   2.6381   2.6500   2.6603   2.6660
  2.6986   2.7082   2.7292   2.7320   2.7518   2.7586   2.7663   2.7890
  2.8016   2.8144   2.8378   2.8592   2.8729   2.8995   2.9038   2.9106
  2.9291   2.9575   2.9646   2.9825   2.9887   3.0028   3.0369   3.0543
  3.0903   3.0911   3.1127   3.1309   3.1447   3.1606   3.1614   3.1780
  3.1986   3.2081   3.2195   3.2317   3.2468   3.2619   3.2864   3.2891
  3.3019   3.3153   3.3167   3.3365   3.3496   3.3553   3.3748   3.3835
  3.3917   3.4027   3.4041   3.4164   3.4334   3.4480   3.4521   3.4700
  3.4874   3.4940   3.5119   3.5296   3.5417   3.5472   3.5587   3.5669
  3.5809   3.6075   3.6258   3.6443   3.6540   3.6590   3.6651   3.7002
  3.7104   3.7267   3.7413   3.7593   3.7611   3.7790   3.7866   3.7913
  3.8055   3.8216   3.8324   3.8474   3.8868   3.9030   3.9370   3.9522
  3.9622   4.0429   4.0622   4.0776   4.0856   4.1130   4.1185   4.1350
  4.1745   4.2245   4.2383   4.2941   4.2989   4.3079   4.4472   4.4578
  4.4969   4.5233   4.5326   4.5775   4.5886   4.6242   4.6289   4.6626
  4.6926   4.7559   4.7713   4.7995   4.8215   4.8403   4.8601   4.8688
  4.9049   4.9385   4.9744   5.0312   5.0344   5.0535   5.0590   5.0717
  5.1379   5.1685   5.2058   5.2405   5.3119   5.3470   5.3716   5.3780
  5.3958   5.4108   5.4371   5.4945   5.5270   5.5412   5.5725   5.5946
  5.6699   5.7072   5.7771   5.7789   5.8207   5.8484   5.8761   5.9047
  6.0383   6.1164   6.2281   6.2432   6.3258   6.4016   6.4594   6.6650
  6.7155   6.7783   6.8050   6.8298   7.0303   7.0588   7.1046   7.3019
  7.4185   7.4653   7.4893  22.6474  22.6513  22.8724  22.9278  23.1130
 23.3699  23.9978  32.6806  32.8139  44.4013  44.5246
 --------------------------------------------------------------
 
          Ground-State Mulliken Net Atomic Charges

     Atom                 Charge (a.u.)
  ----------------------------------------
      1 C                     0.609499
      2 C                    -0.967198
      3 C                     0.138772
      4 O                    -0.724391
      5 O                    -0.693649
      6 H                     0.091719
      7 H                    -0.109969
      8 H                     0.220929
      9 H                     0.206845
     10 H                     0.219524
     11 C                    -0.839124
     12 C                    -0.661461
     13 C                     0.753134
     14 C                    -0.295236
     15 N                     0.160723
     16 N                    -0.460071
     17 H                     0.249902
     18 H                     0.180934
     19 H                     0.232560
     20 H                     0.189066
     21 H                     0.265531
     22 H                     0.231961
  ----------------------------------------
  Sum of atomic charges =    -1.000000

 -----------------------------------------------------------------
                    Cartesian Multipole Moments
 -----------------------------------------------------------------
    Charge (ESU x 10^10)
                -4.8032
    Dipole Moment (Debye)
         X       1.6931      Y      -7.4407      Z      10.6223
       Tot      13.0792
    Quadrupole Moments (Debye-Ang)
        XX     -84.8221     XY      -0.7661     YY     -75.2023
        XZ     -18.1524     YZ      11.8046     ZZ     -91.1434
    Octopole Moments (Debye-Ang^2)
       XXX      11.2396    XXY     -14.6296    XYY      -2.7358
       YYY       3.8969    XXZ      31.2030    XYZ     -19.4968
       YYZ      34.2473    XZZ      -0.7954    YZZ     -29.6357
       ZZZ      47.5141
    Hexadecapole Moments (Debye-Ang^3)
      XXXX    -816.8891   XXXY      98.5208   XXYY    -245.1618
      XYYY      97.0288   YYYY    -623.6897   XXXZ    -379.5525
      XXYZ       6.9366   XYYZ    -118.3845   YYYZ      18.0252
      XXZZ    -460.1861   XYZZ      33.4097   YYZZ    -464.1617
      XZZZ    -345.1235   YZZZ      36.1033   ZZZZ   -2012.9576
 -----------------------------------------------------------------
Archival summary:
1\1\nid00566\SP\ProcedureUnspecified\BasisUnspecified\22711(1-,1)\meili\SunSep2616:24:522021SunSep2616:24:522021\0\\#,ProcedureUnspecified,BasisUnspecified,\\-1,1\N\H,1,1.01903\C,1,1.33786,2,124.954\H,3,1.08371,1,124.565,2,1.2865,0\N,3,1.34047,1,110.2,2,-179.588,0\C,5,1.38746,3,107.085,1,2.42139,0\C,6,1.3734,5,108.093,3,-2.10859,0\H,7,1.07939,6,127.592,5,-178.36,0\C,6,1.4979,5,120.83,3,178.114,0\H,9,1.09002,6,107.514,5,58.4562,0\H,9,1.0912,6,108.516,5,-57.6166,0\H,9,1.1,6,114.839,5,179.432,0\H,6,3.18997,5,85.2944,3,83.7934,0\C,13,1.09152,6,127.894,5,-100.111,0\H,14,1.09351,13,107.213,6,-32.6486,0\C,14,1.49884,13,109.322,6,86.5796,0\O,16,1.22026,14,115.237,13,-140.149,0\O,16,1.23406,14,122.469,13,38.7722,0\C,14,1.52077,13,109.316,6,-150.779,0\H,19,1.092,14,108.41,13,-175.659,0\H,19,1.1,14,108.871,13,65.1441,0\H,19,1.1,14,110.713,13,-55.7307,0\\\@

 Total job time:  40112.72s(wall), 25331.39s(cpu) 
 Sun Sep 26 16:24:57 2021

        *************************************************************
        *                                                           *
        *  Thank you very much for using Q-Chem.  Have a nice day.  *
        *                                                           *
        *************************************************************


