
Running Job 1 of 1 SSI-105ASN-154ASN-1_PCM_TZVPD.in
qchem SSI-105ASN-154ASN-1_PCM_TZVPD.in_11684.0 /tmp/qchem11684/ 0
/global/common/cori/software/qchem/5.2/exe/qcprog.exe_s SSI-105ASN-154ASN-1_PCM_TZVPD.in_11684.0 /tmp/qchem11684/
                  Welcome to Q-Chem
     A Quantum Leap Into The Future Of Chemistry


 Q-Chem 5.2, Q-Chem, Inc., Pleasanton, CA (2019)

 License issued to: National Energy Research Scientific Computing Center

 Yihan Shao,  Zhengting Gan,  E. Epifanovsky,  A. T. B. Gilbert,  M. Wormit,  
 J. Kussmann,  A. W. Lange,  A. Behn,  Jia Deng,  Xintian Feng,  D. Ghosh,  
 M. Goldey,  P. R. Horn,  L. D. Jacobson,  I. Kaliman,  T. Kus,  A. Landau,  
 Jie Liu,  E. I. Proynov,  R. M. Richard,  R. P. Steele,  E. J. Sundstrom,  
 H. L. Woodcock III,  P. M. Zimmerman,  D. Zuev,  B. Albrecht,  E. Alguire,  
 S. A. Baeppler,  D. Barton,  Z. Benda,  Y. A. Bernard,  E. J. Berquist,  
 K. B. Bravaya,  H. Burton,  D. Casanova,  Chun-Min Chang,  Yunqing Chen,  
 A. Chien,  K. D. Closser,  M. P. Coons,  S. Coriani,  S. Dasgupta,  
 A. L. Dempwolff,  M. Diedenhofen,  Hainam Do,  R. G. Edgar,  Po-Tung Fang,  
 S. Faraji,  S. Fatehi,  Qingguo Feng,  K. D. Fenk,  J. Fosso-Tande,  
 J. Gayvert,  Qinghui Ge,  A. Ghysels,  G. Gidofalvi,  J. Gomes,  
 J. Gonthier,  A. Gunina,  D. Hait,  M. W. D. Hanson-Heine,  
 P. H. P. Harbach,  A. W. Hauser,  M. F. Herbst,  J. E. Herr,  
 E. G. Hohenstein,  Z. C. Holden,  Kerwin Hui,  B. C. Huynh,  T.-C. Jagau,  
 Hyunjun Ji,  B. Kaduk,  K. Khistyaev,  Jaehoon Kim,  P. Klunzinger,  K. Koh,  
 D. Kosenkov,  L. Koulias,  T. Kowalczyk,  C. M. Krauter,  A. Kunitsa,  
 Ka Un Lao,  A. Laurent,  K. V. Lawler,  Joonho Lee,  D. Lefrancois,  
 S. Lehtola,  D. S. Levine,  Yi-Pei Li,  You-Sheng Lin,  Fenglai Liu,  
 E. Livshits,  A. Luenser,  P. Manohar,  E. Mansoor,  S. F. Manzer,  
 Shan-Ping Mao,  Yuezhi Mao,  N. Mardirossian,  A. V. Marenich,  
 T. Markovich,  L. A. Martinez-Martinez,  S. A. Maurer,  N. J. Mayhall,  
 S. C. McKenzie,  J.-M. Mewes,  P. Morgante,  A. F. Morrison,  
 J. W. Mullinax,  K. Nanda,  T. S. Nguyen-Beck,  R. Olivares-Amaya,  
 J. A. Parkhill,  Zheng Pei,  T. M. Perrine,  F. Plasser,  P. Pokhilko,  
 S. Prager,  A. Prociuk,  E. Ramos,  D. R. Rehn,  F. Rob,  M. Scheurer,  
 M. Schneider,  N. Sergueev,  S. M. Sharada,  S. Sharma,  D. W. Small,  
 T. Stauch,  T. Stein,  Yu-Chuan Su,  A. J. W. Thom,  A. Tkatchenko,  
 T. Tsuchimochi,  N. M. Tubman,  L. Vogt,  M. L. Vidal,  O. Vydrov,  
 M. A. Watson,  J. Wenzel,  M. de Wergifosse,  T. A. Wesolowski,  A. White,  
 J. Witte,  A. Yamada,  Jun Yang,  K. Yao,  S. Yeganeh,  S. R. Yost,  
 Zhi-Qiang You,  A. Zech,  Igor Ying Zhang,  Xing Zhang,  Yan Zhao,  
 Ying Zhu,  B. R. Brooks,  G. K. L. Chan,  C. J. Cramer,  M. S. Gordon,  
 W. J. Hehre,  A. Klamt,  M. W. Schmidt,  C. D. Sherrill,  D. G. Truhlar,  
 A. Aspuru-Guzik,  R. Baer,  A. T. Bell,  N. A. Besley,  Jeng-Da Chai,  
 A. E. DePrince, III,  R. A. DiStasio Jr.,  A. Dreuw,  B. D. Dunietz,  
 T. R. Furlani,  Chao-Ping Hsu,  Yousung Jung,  Jing Kong,  D. S. Lambrecht,  
 WanZhen Liang,  C. Ochsenfeld,  V. A. Rassolov,  L. V. Slipchenko,  
 J. E. Subotnik,  T. Van Voorhis,  J. M. Herbert,  A. I. Krylov,  
 P. M. W. Gill,  M. Head-Gordon

 Contributors to earlier versions of Q-Chem not listed above: 
 R. D. Adamson,  B. Austin,  J. Baker,  G. J. O. Beran,  K. Brandhorst,  
 S. T. Brown,  E. F. C. Byrd,  A. K. Chakraborty,  C.-L. Cheng,  
 Siu Hung Chien,  D. M. Chipman,  D. L. Crittenden,  H. Dachsel,  
 R. J. Doerksen,  A. D. Dutoi,  L. Fusti-Molnar,  W. A. Goddard III,  
 A. Golubeva-Zadorozhnaya,  S. R. Gwaltney,  G. Hawkins,  A. Heyden,  
 S. Hirata,  G. Kedziora,  F. J. Keil,  C. Kelley,  Jihan Kim,  R. A. King,  
 R. Z. Khaliullin,  P. P. Korambath,  W. Kurlancheek,  A. M. Lee,  M. S. Lee,  
 S. V. Levchenko,  Ching Yeh Lin,  D. Liotard,  R. C. Lochan,  I. Lotan,  
 P. E. Maslen,  N. Nair,  D. P. O'Neill,  D. Neuhauser,  E. Neuscamman,  
 C. M. Oana,  R. Olson,  B. Peters,  R. Peverati,  P. A. Pieniazek,  
 Y. M. Rhee,  J. Ritchie,  M. A. Rohrdanz,  E. Rosta,  N. J. Russ,  
 H. F. Schaefer III,  N. E. Schultz,  N. Shenvi,  A. C. Simmonett,  A. Sodt,  
 D. Stuck,  K. S. Thanthiriwatte,  V. Vanovschi,  Tao Wang,  A. Warshel,  
 C. F. Williams,  Q. Wu,  X. Xu,  W. Zhang

 Please cite Q-Chem as follows:
 Y. Shao et al., Mol. Phys. 113, 184-215 (2015)
 DOI: 10.1080/00268976.2014.952696

 Q-Chem 5.2.0 for Intel X86 EM64T Linux

 Parts of Q-Chem use Armadillo 8.300.2 (Tropical Shenanigans).
 http://arma.sourceforge.net/

 Q-Chem begins on Sun Sep 26 13:12:28 2021  

Host: cori01
0

     Scratch files written to /tmp/qchem11684//
 May1019 |scratch|qcdevops|jenkins|workspace|build_RNUM -1
Processing $rem in /global/common/cori/software/qchem/5.2/config/preferences:
	 MEM_TOTAL  96000 
NAlpha2: 64
NElect   64
Mult     1
Symmetry turned off for PCM/SM12/SMD calculation

 Q-Chem warning in module libgen/rem_setup.C, line 2803:

 Neither GIA nor STOLL is specified by user. Use STOLL as the default


Checking the input file for inconsistencies... 	...done.

--------------------------------------------------------------
User input:
--------------------------------------------------------------
$comment
SSI-105ASN-154ASN-1.pdb
$end

$molecule
0 1
--
0 1
C   -2.345493956112   -0.518421396627    0.002451544620
C   -2.041493956112    0.414578603373    1.150451544620
O   -2.873493956112    0.616578603373    2.029451544620
N   -0.858493956112    1.010578603373    1.160451544620
H   -0.624493956112    1.592578603373    1.962451544620
H   -0.139493956112    0.820578603373    0.488451544620
H   -1.440493956112   -0.872421396627   -0.465548455380
H   -2.906493956112    0.046578603373   -0.744548455380
H   -2.933663956112   -1.398521396627    0.301583544620
--
0 1
C    2.378506043888   -1.662421396627   -0.549548455380
C    2.041506043888   -0.329421396627   -1.108548455380
O    2.878506043888    0.347578603373   -1.714548455380
N    0.815506043888    0.075578603373   -0.955548455380
H    0.608506043888    0.977578603373   -1.370548455380
H    0.129506043888   -0.610421396627   -0.693548455380
H    3.449506043888   -1.830421396627   -0.683548455380
H    1.860506043888   -2.404421396627   -1.139548455380
H    2.121146043888   -1.761461396627    0.515324544620
$end

$rem
JOBTYPE			EDA
EDA2			1
method			wB97X-V
BASIS			def2-TZVPD
XC_GRID			000099000590
NL_GRID			1
UNRESTRICTED		FALSE
MAX_SCF_CYCLES		200
SYMMETRY		FALSE
SYM_IGNORE		TRUE
MEM_STATIC		2000
BASIS_LIN_DEP_THRESH 	6
THRESH 			14
SCF_CONVERGENCE 	8
SCF_PRINT_FRGM 		TRUE
SOLVENT_METHOD          PCM
$end

$PCM
THEORY                  CPCM
METHOD                  SWIG
SOLVER                  INVERSION
RADII                   UFF
HPOINTS                 302
HEAVYPOINTS             302
PRINTLEVEL              0
$END

$SOLVENT
DIELECTRIC              78.390000 ! water
$END
--------------------------------------------------------------
 ----------------------------------------------------------------
             Standard Nuclear Orientation (Angstroms)
    I     Atom           X                Y                Z
 ----------------------------------------------------------------
    1      C      -2.3454939561    -0.5184213966     0.0024515446
    2      C      -2.0414939561     0.4145786034     1.1504515446
    3      O      -2.8734939561     0.6165786034     2.0294515446
    4      N      -0.8584939561     1.0105786034     1.1604515446
    5      H      -0.6244939561     1.5925786034     1.9624515446
    6      H      -0.1394939561     0.8205786034     0.4884515446
    7      H      -1.4404939561    -0.8724213966    -0.4655484554
    8      H      -2.9064939561     0.0465786034    -0.7445484554
    9      H      -2.9336639561    -1.3985213966     0.3015835446
   10      C       2.3785060439    -1.6624213966    -0.5495484554
   11      C       2.0415060439    -0.3294213966    -1.1085484554
   12      O       2.8785060439     0.3475786034    -1.7145484554
   13      N       0.8155060439     0.0755786034    -0.9555484554
   14      H       0.6085060439     0.9775786034    -1.3705484554
   15      H       0.1295060439    -0.6104213966    -0.6935484554
   16      H       3.4495060439    -1.8304213966    -0.6835484554
   17      H       1.8605060439    -2.4044213966    -1.1395484554
   18      H       2.1211460439    -1.7614613966     0.5153245446
 ----------------------------------------------------------------
 Nuclear Repulsion Energy =         367.18712673 hartrees
 There are       32 alpha and       32 beta electrons
 Requested basis set is def2-TZVPD
 There are 156 shells and 392 basis functions

 Total QAlloc Memory Limit  96000 MB
 Mega-Array Size      1956 MB
 MEM_STATIC part      2000 MB
 Discretize the solute cavity surface with Lebedev spheres
	Using 302 Lebedev grid points for each H atom
	Using 302 Lebedev grid points for other atoms
	Atomic van der Waals radii will be scaled by 1.20
 Remove points where switching function is < 1.0e-08
 Keep 2131 surface tesserae and discard 3305 interior tesserae
 Molecular Surface Area = 218.622 Angst**2
 A cutoff of  1.0D-14 yielded  11128 shell pairs
 There are     69986 function pairs (     87537 Cartesian)
 Smallest overlap matrix eigenvalue = 5.38E-06

 Scale SEOQF with 1.000000e-01/1.000000e-01/1.000000e-01

 Standard Electronic Orientation quadrupole field applied
 Nucleus-field energy     =     0.0000000037 hartrees

 -----------------------------------------------------------------------
  General SCF calculation program by
  Eric Jon Sundstrom, Paul Horn, Yuezhi Mao, Dmitri Zuev, Alec White,
  David Stuck, Shaama M.S., Shane Yost, Joonho Lee, David Small,
  Daniel Levine, Susi Lehtola, Hugh Burton, Evgeny Epifanovsky
 -----------------------------------------------------------------------
================================================================
                 ALMO-EDA with the EDA2 driver                  
================================================================
 The second-generation ALMO-EDA (for DFT):                      
 P. R. Horn, Y. Mao and M. Head-Gordon, PCCP, 18, 23067 (2016)  
 Decomposition of the frozen energy:                            
 P. R. Horn, Y. Mao and M. Head-Gordon, JCP, 144, 114107 (2016) 
 FERF model for polarization:                                   
 P. R. Horn and M. Head-Gordon, JCP, 143, 114111 (2015)         
Using eda2 option set 1
Option set summary: Frozen orbital wavefunction, initial wavefunction decomposition, and nDQ polarization.
--------------------------------
Printing EDA Options
--------------------------------
eda_child_super_basis      0
fragmo_guess_mode          0
child_mp                   1
child_mp_orders            232
cls_elec                   1
cls_disp                   0
scfmi_mode                 1
scfmi_occs                 0
scfmi_virts                0
frz_relax                  0
frz_relax_method           0
dc_pen_start               0
dc_pen_conv                0
dc_pen_increment           0
dc_pen_steps               0
dc_pen_thresh_factor       0
dc_pen_pre_newton_thresh   0
frz_ortho_decomp           1
frz_ortho_decomp_conv      6
frgm_method                2
scfmi_freeze_ss            0
separate_rehyb             0
plot_diff_den              0
eda_nocv                   0
eda_vct_relax              1
disp_free_x                0
disp_free_c                0
eda_bsse                   0
eda_pct_a                  0
eda_covp                   0
--------------------------------
Attempting to make child job directory: /tmp/qchem11684//Frg1/
Attempting to make child job directory: /tmp/qchem11684//Frg2/
Creating input file /tmp/qchem11684/Frg1.input
using default PutDataFrgm: nothing
calling putenv with: QCSCRATCH=/tmp/qchem11684/ 
calling putenv with: QCLOCALSCR=/tmp/qchem11684/ 
Spawning Job For Fragment 0
                  Welcome to Q-Chem
     A Quantum Leap Into The Future Of Chemistry


 Q-Chem 5.2, Q-Chem, Inc., Pleasanton, CA (2019)

 License issued to: National Energy Research Scientific Computing Center

 Yihan Shao,  Zhengting Gan,  E. Epifanovsky,  A. T. B. Gilbert,  M. Wormit,  
 J. Kussmann,  A. W. Lange,  A. Behn,  Jia Deng,  Xintian Feng,  D. Ghosh,  
 M. Goldey,  P. R. Horn,  L. D. Jacobson,  I. Kaliman,  T. Kus,  A. Landau,  
 Jie Liu,  E. I. Proynov,  R. M. Richard,  R. P. Steele,  E. J. Sundstrom,  
 H. L. Woodcock III,  P. M. Zimmerman,  D. Zuev,  B. Albrecht,  E. Alguire,  
 S. A. Baeppler,  D. Barton,  Z. Benda,  Y. A. Bernard,  E. J. Berquist,  
 K. B. Bravaya,  H. Burton,  D. Casanova,  Chun-Min Chang,  Yunqing Chen,  
 A. Chien,  K. D. Closser,  M. P. Coons,  S. Coriani,  S. Dasgupta,  
 A. L. Dempwolff,  M. Diedenhofen,  Hainam Do,  R. G. Edgar,  Po-Tung Fang,  
 S. Faraji,  S. Fatehi,  Qingguo Feng,  K. D. Fenk,  J. Fosso-Tande,  
 J. Gayvert,  Qinghui Ge,  A. Ghysels,  G. Gidofalvi,  J. Gomes,  
 J. Gonthier,  A. Gunina,  D. Hait,  M. W. D. Hanson-Heine,  
 P. H. P. Harbach,  A. W. Hauser,  M. F. Herbst,  J. E. Herr,  
 E. G. Hohenstein,  Z. C. Holden,  Kerwin Hui,  B. C. Huynh,  T.-C. Jagau,  
 Hyunjun Ji,  B. Kaduk,  K. Khistyaev,  Jaehoon Kim,  P. Klunzinger,  K. Koh,  
 D. Kosenkov,  L. Koulias,  T. Kowalczyk,  C. M. Krauter,  A. Kunitsa,  
 Ka Un Lao,  A. Laurent,  K. V. Lawler,  Joonho Lee,  D. Lefrancois,  
 S. Lehtola,  D. S. Levine,  Yi-Pei Li,  You-Sheng Lin,  Fenglai Liu,  
 E. Livshits,  A. Luenser,  P. Manohar,  E. Mansoor,  S. F. Manzer,  
 Shan-Ping Mao,  Yuezhi Mao,  N. Mardirossian,  A. V. Marenich,  
 T. Markovich,  L. A. Martinez-Martinez,  S. A. Maurer,  N. J. Mayhall,  
 S. C. McKenzie,  J.-M. Mewes,  P. Morgante,  A. F. Morrison,  
 J. W. Mullinax,  K. Nanda,  T. S. Nguyen-Beck,  R. Olivares-Amaya,  
 J. A. Parkhill,  Zheng Pei,  T. M. Perrine,  F. Plasser,  P. Pokhilko,  
 S. Prager,  A. Prociuk,  E. Ramos,  D. R. Rehn,  F. Rob,  M. Scheurer,  
 M. Schneider,  N. Sergueev,  S. M. Sharada,  S. Sharma,  D. W. Small,  
 T. Stauch,  T. Stein,  Yu-Chuan Su,  A. J. W. Thom,  A. Tkatchenko,  
 T. Tsuchimochi,  N. M. Tubman,  L. Vogt,  M. L. Vidal,  O. Vydrov,  
 M. A. Watson,  J. Wenzel,  M. de Wergifosse,  T. A. Wesolowski,  A. White,  
 J. Witte,  A. Yamada,  Jun Yang,  K. Yao,  S. Yeganeh,  S. R. Yost,  
 Zhi-Qiang You,  A. Zech,  Igor Ying Zhang,  Xing Zhang,  Yan Zhao,  
 Ying Zhu,  B. R. Brooks,  G. K. L. Chan,  C. J. Cramer,  M. S. Gordon,  
 W. J. Hehre,  A. Klamt,  M. W. Schmidt,  C. D. Sherrill,  D. G. Truhlar,  
 A. Aspuru-Guzik,  R. Baer,  A. T. Bell,  N. A. Besley,  Jeng-Da Chai,  
 A. E. DePrince, III,  R. A. DiStasio Jr.,  A. Dreuw,  B. D. Dunietz,  
 T. R. Furlani,  Chao-Ping Hsu,  Yousung Jung,  Jing Kong,  D. S. Lambrecht,  
 WanZhen Liang,  C. Ochsenfeld,  V. A. Rassolov,  L. V. Slipchenko,  
 J. E. Subotnik,  T. Van Voorhis,  J. M. Herbert,  A. I. Krylov,  
 P. M. W. Gill,  M. Head-Gordon

 Contributors to earlier versions of Q-Chem not listed above: 
 R. D. Adamson,  B. Austin,  J. Baker,  G. J. O. Beran,  K. Brandhorst,  
 S. T. Brown,  E. F. C. Byrd,  A. K. Chakraborty,  C.-L. Cheng,  
 Siu Hung Chien,  D. M. Chipman,  D. L. Crittenden,  H. Dachsel,  
 R. J. Doerksen,  A. D. Dutoi,  L. Fusti-Molnar,  W. A. Goddard III,  
 A. Golubeva-Zadorozhnaya,  S. R. Gwaltney,  G. Hawkins,  A. Heyden,  
 S. Hirata,  G. Kedziora,  F. J. Keil,  C. Kelley,  Jihan Kim,  R. A. King,  
 R. Z. Khaliullin,  P. P. Korambath,  W. Kurlancheek,  A. M. Lee,  M. S. Lee,  
 S. V. Levchenko,  Ching Yeh Lin,  D. Liotard,  R. C. Lochan,  I. Lotan,  
 P. E. Maslen,  N. Nair,  D. P. O'Neill,  D. Neuhauser,  E. Neuscamman,  
 C. M. Oana,  R. Olson,  B. Peters,  R. Peverati,  P. A. Pieniazek,  
 Y. M. Rhee,  J. Ritchie,  M. A. Rohrdanz,  E. Rosta,  N. J. Russ,  
 H. F. Schaefer III,  N. E. Schultz,  N. Shenvi,  A. C. Simmonett,  A. Sodt,  
 D. Stuck,  K. S. Thanthiriwatte,  V. Vanovschi,  Tao Wang,  A. Warshel,  
 C. F. Williams,  Q. Wu,  X. Xu,  W. Zhang

 Please cite Q-Chem as follows:
 Y. Shao et al., Mol. Phys. 113, 184-215 (2015)
 DOI: 10.1080/00268976.2014.952696

 Q-Chem 5.2.0 for Intel X86 EM64T Linux

 Parts of Q-Chem use Armadillo 8.300.2 (Tropical Shenanigans).
 http://arma.sourceforge.net/

 Q-Chem begins on Sun Sep 26 13:12:32 2021  

Host: cori01
0

     Scratch files written to /tmp/qchem11684//Frg1//
 May1019 |scratch|qcdevops|jenkins|workspace|build_RNUM -1
Processing $rem in /global/common/cori/software/qchem/5.2/config/preferences:
	 MEM_TOTAL  96000 
NAlpha2: 32
NElect   32
Mult     1
Symmetry turned off for PCM/SM12/SMD calculation

Checking the input file for inconsistencies... 	...done.

--------------------------------------------------------------
User input:
--------------------------------------------------------------
$molecule
0 1
 6	-2.3454939561	-0.5184213966	0.0024515446
 6	-2.0414939561	0.4145786034	1.1504515446
 8	-2.8734939561	0.6165786034	2.0294515446
 7	-0.8584939561	1.0105786034	1.1604515446
 1	-0.6244939561	1.5925786034	1.9624515446
 1	-0.1394939561	0.8205786034	0.4884515446
 1	-1.4404939561	-0.8724213966	-0.4655484554
 1	-2.9064939561	0.0465786034	-0.7445484554
 1	-2.9336639561	-1.3985213966	0.3015835446
$end
$rem
EDA2		1
METHOD		WB97X-V
BASIS		DEF2-TZVPD
XC_GRID		000099000590
NL_GRID		1
UNRESTRICTED		FALSE
MAX_SCF_CYCLES		200
SYMMETRY		FALSE
SYM_IGNORE		TRUE
BASIS_LIN_DEP_THRESH		6
THRESH		14
SCF_CONVERGENCE		8
SCF_PRINT_FRGM		TRUE
SOLVENT_METHOD		PCM
!required keywords
JOBTYPE		SP
SYM_IGNORE		TRUE
SUBSYSTEM		TRUE
GEN_SCFMAN		TRUE
CHILD_INSTRUCTION		2
SYM_IGNORE		TRUE
SCFMI		0
RI_K 0		
PARI_K 0		
MIN_PARI_K 0		
IARI_K 0		
OCC_RI_K 0		
PURECART		1111
MEM_STATIC		2000
MEM_TOTAL		96000
GUI		0
CHILD_MP		1
CHILD_MP_ORDERS		232
FRZ_RELAX		0
FRZ_RELAX_METHOD		0
EDA_CLS_ELEC		1
EDA_CLS_DISP		0
FRZ_ORTHO_DECOMP		1
EDA2		FALSE
FRGM_METHOD		FALSE
CIS_N_ROOTS  0
LOCAL_CIS    0
CIS_RLX_DNS  1
$end
$pcm
THEORY                  CPCM
METHOD                  SWIG
SOLVER                  INVERSION
RADII                   UFF
HPOINTS                 302
HEAVYPOINTS             302
PRINTLEVEL              0
$end
$solvent
DIELECTRIC              78.390000 ! water
$end
--------------------------------------------------------------
 ----------------------------------------------------------------
             Standard Nuclear Orientation (Angstroms)
    I     Atom           X                Y                Z
 ----------------------------------------------------------------
    1      C      -2.3454939561    -0.5184213966     0.0024515446
    2      C      -2.0414939561     0.4145786034     1.1504515446
    3      O      -2.8734939561     0.6165786034     2.0294515446
    4      N      -0.8584939561     1.0105786034     1.1604515446
    5      H      -0.6244939561     1.5925786034     1.9624515446
    6      H      -0.1394939561     0.8205786034     0.4884515446
    7      H      -1.4404939561    -0.8724213966    -0.4655484554
    8      H      -2.9064939561     0.0465786034    -0.7445484554
    9      H      -2.9336639561    -1.3985213966     0.3015835446
 ----------------------------------------------------------------
 Nuclear Repulsion Energy =         122.43577701 hartrees
 There are       16 alpha and       16 beta electrons
 Requested basis set is def2-TZVPD
 There are 78 shells and 196 basis functions

 Total QAlloc Memory Limit  96000 MB
 Mega-Array Size      1956 MB
 MEM_STATIC part      2000 MB
 Discretize the solute cavity surface with Lebedev spheres
	Using 302 Lebedev grid points for each H atom
	Using 302 Lebedev grid points for other atoms
	Atomic van der Waals radii will be scaled by 1.20
 Remove points where switching function is < 1.0e-08
 Keep 1215 surface tesserae and discard 1503 interior tesserae
 Molecular Surface Area = 128.326 Angst**2

                       Distance Matrix (Angstroms)
             C (  1)   C (  2)   O (  3)   N (  4)   H (  5)   H (  6)
   C (  2)  1.510235
   O (  3)  2.382381  1.227057
   N (  4)  2.426927  1.324691  2.229489
   H (  5)  3.355557  2.013682  2.452563  1.018177
   H (  6)  2.625938  2.054430  3.145004  1.002320  1.733172
   H (  7)  1.078594  2.151517  3.239697  2.555052  3.554893  2.338582
   H (  8)  1.091767  2.115343  2.832148  2.958484  3.863352  3.126604
   H (  9)  1.100000  2.191775  2.655141  3.293592  4.127642  3.573053
             H (  7)   H (  8)
   H (  8)  1.752586
   H (  9)  1.759213  1.784221
 
 A cutoff of  1.0D-14 yielded   3054 shell pairs
 There are     19544 function pairs (     24702 Cartesian)
 Smallest overlap matrix eigenvalue = 1.13E-05

 Scale SEOQF with 1.000000e-01/1.000000e-01/1.000000e-01

 Standard Electronic Orientation quadrupole field applied
 Nucleus-field energy     =     0.0000000007 hartrees
 Guess from superposition of atomic densities
 Warning:  Energy on first SCF cycle will be non-variational
 SAD guess density has 31.604610 electrons

 -----------------------------------------------------------------------
  General SCF calculation program by
  Eric Jon Sundstrom, Paul Horn, Yuezhi Mao, Dmitri Zuev, Alec White,
  David Stuck, Shaama M.S., Shane Yost, Joonho Lee, David Small,
  Daniel Levine, Susi Lehtola, Hugh Burton, Evgeny Epifanovsky
 -----------------------------------------------------------------------
 Exchange:     0.1670 Hartree-Fock + 1.0000 wB97X-V + LR-HF
 Correlation:  1.0000 wB97X-V
 Using Euler-Maclaurin-Lebedev (99,590) quadrature formula
 Nonlocal Correlation:  VV10 with C = 0.0100 and b = 6.00 and scale = 1.00000
 Grid used for NLC:  SG-1 standard quadrature
Energy prior to optimization (guess energy) = -208.704930276814
Begin Timing: Total SCF Calculation
begin iterations for algorithm: DIIS         
the SCF tolerance is set to 1.00e-08
    1    -208.7049302768      1.26e-02     00000 
    2    -208.3279240226      1.55e-02     00000 
    3    -209.2233919939      2.47e-03     00000 
    4    -209.2430559965      8.22e-04     00000 
    5    -209.2457317925      1.22e-04     00000 
    6    -209.2458278114      4.88e-05     00000 
    7    -209.2458447424      1.10e-05     00000 
    8    -209.2458458769      2.09e-06     00000 
    9    -209.2458459647      7.70e-07     00000 
   10    -209.2458459701      3.16e-07     00000 
   11    -209.2458459710      6.91e-08     00000 
   12    -209.2458459711      1.68e-08     00000 
   13    -209.2458459711      4.35e-09     00000 Convergence criterion met
Timing for Total SCF: 379.00s (wall), 749.20s (cpu)

************** Final PCM Free Energy Summary **************
 G_electrostatic  =      -0.01215548 hartree =      -7.62767941 kcal/mol
 G_cavitation     =       0.00000000 hartree =       0.00000000 kcal/mol
 G_dispersion     =       0.00000000 hartree =       0.00000000 kcal/mol
 G_repulsion      =       0.00000000 hartree =       0.00000000 kcal/mol
 --------------------------------------------------
 Non-electrostatic Free Energy =       0.00000000 hartree =       0.00000000 kcal/mol
 Total                         =      -0.01215548 hartree =      -7.62767941 kcal/mol
 --------------------------------------------------
 SCF Energy (H0 + V/2)                       =    -209.24584597 
 Solute Internal Energy (H0)                 =    -209.23369049 
 Total Free Energy (H0 + V/2 + non-elec)     =    -209.24584597 hartree
                                             = -131303.75011427 kcal/mol
***********************************************************

E_pcm = -0.0121554809
Multipole orders to be included
        2
        3
computing dipole RHS
computing quadrupole RHS
total number of RHS in solve_reponses: 8
RHS batch sizes
        8
Beginning Block Conjugate Gradient Iterations. Batch Number: 0
computing hessian-vector products by finite difference
              1      5.90e-01     00000 Conjugate Gradient Iteration
computing hessian-vector products by finite difference
              2      2.02e-01     00000 Conjugate Gradient Iteration
computing hessian-vector products by finite difference
              3      5.37e-02     00000 Conjugate Gradient Iteration
computing hessian-vector products by finite difference
              4      1.35e-02     00000 Conjugate Gradient Iteration
computing hessian-vector products by finite difference
              5      2.03e-03     00000 Conjugate Gradient Iteration
computing hessian-vector products by finite difference
              6      4.48e-04     00000 Conjugate Gradient Iteration
computing hessian-vector products by finite difference
              7      6.53e-05     00000 Conjugate Gradient Iteration
computing hessian-vector products by finite difference
              8      7.75e-06     00000 Conjugate Gradient Iteration
computing hessian-vector products by finite difference
              9      1.08e-06     00000 Conjugate Gradient Iteration
computing hessian-vector products by finite difference
             10      1.13e-07     00000 Conjugate Gradient Iteration
computing hessian-vector products by finite difference
             11      1.59e-08     00000 Conjugate Gradient Iteration
computing hessian-vector products by finite difference
             12      3.43e-09     00000 CG Converged
batch 0 complete
Done Calculating Responses
TESTING ORTHOGONALIZATION OF MULTIPOLE BASIS
Multipole virts passed orthogonality test
Virts Per Order
        48
        80
 
 --------------------------------------------------------------
 
                    Orbital Energies (a.u.)
 --------------------------------------------------------------
 
 Alpha MOs
 -- Occupied --
-19.1772 -14.4346 -10.3775 -10.2713  -1.1729  -1.0463  -0.8722  -0.7183
 -0.6592  -0.5913  -0.5693  -0.5182  -0.5073  -0.4824  -0.3831  -0.3680
 -- Virtual --
  0.0596   0.0911   0.0928   0.0973   0.1271   0.1280   0.1352   0.1427
  0.1751   0.1803   0.1916   0.2095   0.2229   0.2415   0.2493   0.2580
  0.2617   0.2682   0.2913   0.3079   0.3291   0.3308   0.3404   0.3456
  0.3550   0.3618   0.3689   0.3718   0.3871   0.3993   0.4153   0.4177
  0.4342   0.4535   0.4584   0.4688   0.4763   0.4905   0.4945   0.5021
  0.5267   0.5282   0.5468   0.5675   0.5814   0.5956   0.6246   0.6321
  0.6347   0.6589   0.6772   0.6857   0.7114   0.7194   0.7291   0.7645
  0.7671   0.7802   0.7945   0.8080   0.8146   0.8354   0.8468   0.8703
  0.9107   0.9535   0.9773   0.9895   1.0133   1.0214   1.0577   1.0835
  1.1080   1.1754   1.2280   1.2389   1.2868   1.3209   1.3387   1.3738
  1.4810   1.4902   1.5093   1.6193   1.6715   1.7264   1.7332   1.8106
  1.8446   1.8614   1.8961   1.9089   1.9293   1.9506   1.9876   2.0319
  2.0495   2.0835   2.1364   2.1701   2.2014   2.2185   2.3111   2.3586
  2.3947   2.4192   2.4485   2.4772   2.5545   2.5764   2.5883   2.6296
  2.6707   2.6972   2.7664   2.7927   2.8376   2.8956   2.9598   2.9913
  3.0540   3.0975   3.1427   3.1515   3.2029   3.2248   3.2572   3.2780
  3.3108   3.3324   3.3658   3.4062   3.4627   3.4874   3.5372   3.5715
  3.6312   3.6390   3.6795   3.8031   3.8846   3.9325   4.0096   4.0384
  4.0577   4.2132   4.2929   4.4053   4.5096   4.6171   4.6177   4.6647
  4.7754   4.8861   4.8988   4.9276   5.1409   5.1784   5.2737   5.3504
  5.3674   5.3999   5.4153   5.4974   5.5361   5.7777   5.9094   6.1535
  6.2605   6.5339   6.6460   6.7467   6.8339   6.9801   7.2310   7.3269
 22.5935  23.5869  32.4095  44.3123
 --------------------------------------------------------------
 
          Ground-State Mulliken Net Atomic Charges

     Atom                 Charge (a.u.)
  ----------------------------------------
      1 C                    -0.604296
      2 C                     0.406060
      3 O                    -0.580018
      4 N                    -0.257080
      5 H                     0.215942
      6 H                     0.189305
      7 H                     0.238699
      8 H                     0.184266
      9 H                     0.207122
  ----------------------------------------
  Sum of atomic charges =     0.000000

 -----------------------------------------------------------------
                    Cartesian Multipole Moments
 -----------------------------------------------------------------
    Charge (ESU x 10^10)
                -0.0000
    Dipole Moment (Debye)
         X       4.1742      Y      -0.2894      Z      -3.0325
       Tot       5.1676
    Quadrupole Moments (Debye-Ang)
        XX     -39.4032     XY       4.9008     YY     -23.5342
        XZ      13.3922     YZ      -0.3745     ZZ     -31.9756
    Octopole Moments (Debye-Ang^2)
       XXX     199.0502    XXY     -23.0874    XYY      51.2874
       YYY     -24.4789    XXZ     -68.7099    XYZ       9.1963
       YYZ     -21.9316    XZZ      79.6441    YZZ      -8.6005
       ZZZ     -91.2713
    Hexadecapole Moments (Debye-Ang^3)
      XXXX    -891.8069   XXXY      74.5256   XXYY    -142.9875
      XYYY      36.9494   YYYY    -105.1689   XXXZ     292.1599
      XXYZ     -49.0599   XYYZ      55.8979   YYYZ     -48.9328
      XXZZ    -261.5486   XYZZ      27.7417   YYZZ     -57.4855
      XZZZ     222.1339   YZZZ     -56.4832   ZZZZ    -313.3878
 -----------------------------------------------------------------
Archival summary:
1\1\nid00510\SP\ProcedureUnspecified\BasisUnspecified\1125\meili\SunSep2615:01:142021SunSep2615:01:142021\0\\#,ProcedureUnspecified,BasisUnspecified,\\0,1\C\O,1,1.22706\N,1,1.32469,2,121.739\H,3,1.00232,1,123.385,2,176.007,0\H,3,1.01818,1,117.928,2,4.67777,0\C,1,1.51023,2,120.647,3,-179.225,0\H,6,1.07859,1,111.327,2,-159.04,0\H,6,1.09177,1,107.688,2,83.109,0\H,6,1.1,1,113.279,2,-37.4864,0\\\@

 Total job time:  6522.99s(wall), 12695.66s(cpu) 
 Sun Sep 26 15:01:14 2021

        *************************************************************
        *                                                           *
        *  Thank you very much for using Q-Chem.  Have a nice day.  *
        *                                                           *
        *************************************************************


Done Job For Fragment 0
calling putenv with: QCSCRATCH=/global/cscratch1/sd/meili 
calling putenv with: QCLOCALSCR=/tmp 
calling putenv with: QCTHREADS=32 
Creating input file /tmp/qchem11684/Frg2.input
using default PutDataFrgm: nothing
calling putenv with: QCSCRATCH=/tmp/qchem11684/ 
calling putenv with: QCLOCALSCR=/tmp/qchem11684/ 
Spawning Job For Fragment 1
                  Welcome to Q-Chem
     A Quantum Leap Into The Future Of Chemistry


 Q-Chem 5.2, Q-Chem, Inc., Pleasanton, CA (2019)

 License issued to: National Energy Research Scientific Computing Center

 Yihan Shao,  Zhengting Gan,  E. Epifanovsky,  A. T. B. Gilbert,  M. Wormit,  
 J. Kussmann,  A. W. Lange,  A. Behn,  Jia Deng,  Xintian Feng,  D. Ghosh,  
 M. Goldey,  P. R. Horn,  L. D. Jacobson,  I. Kaliman,  T. Kus,  A. Landau,  
 Jie Liu,  E. I. Proynov,  R. M. Richard,  R. P. Steele,  E. J. Sundstrom,  
 H. L. Woodcock III,  P. M. Zimmerman,  D. Zuev,  B. Albrecht,  E. Alguire,  
 S. A. Baeppler,  D. Barton,  Z. Benda,  Y. A. Bernard,  E. J. Berquist,  
 K. B. Bravaya,  H. Burton,  D. Casanova,  Chun-Min Chang,  Yunqing Chen,  
 A. Chien,  K. D. Closser,  M. P. Coons,  S. Coriani,  S. Dasgupta,  
 A. L. Dempwolff,  M. Diedenhofen,  Hainam Do,  R. G. Edgar,  Po-Tung Fang,  
 S. Faraji,  S. Fatehi,  Qingguo Feng,  K. D. Fenk,  J. Fosso-Tande,  
 J. Gayvert,  Qinghui Ge,  A. Ghysels,  G. Gidofalvi,  J. Gomes,  
 J. Gonthier,  A. Gunina,  D. Hait,  M. W. D. Hanson-Heine,  
 P. H. P. Harbach,  A. W. Hauser,  M. F. Herbst,  J. E. Herr,  
 E. G. Hohenstein,  Z. C. Holden,  Kerwin Hui,  B. C. Huynh,  T.-C. Jagau,  
 Hyunjun Ji,  B. Kaduk,  K. Khistyaev,  Jaehoon Kim,  P. Klunzinger,  K. Koh,  
 D. Kosenkov,  L. Koulias,  T. Kowalczyk,  C. M. Krauter,  A. Kunitsa,  
 Ka Un Lao,  A. Laurent,  K. V. Lawler,  Joonho Lee,  D. Lefrancois,  
 S. Lehtola,  D. S. Levine,  Yi-Pei Li,  You-Sheng Lin,  Fenglai Liu,  
 E. Livshits,  A. Luenser,  P. Manohar,  E. Mansoor,  S. F. Manzer,  
 Shan-Ping Mao,  Yuezhi Mao,  N. Mardirossian,  A. V. Marenich,  
 T. Markovich,  L. A. Martinez-Martinez,  S. A. Maurer,  N. J. Mayhall,  
 S. C. McKenzie,  J.-M. Mewes,  P. Morgante,  A. F. Morrison,  
 J. W. Mullinax,  K. Nanda,  T. S. Nguyen-Beck,  R. Olivares-Amaya,  
 J. A. Parkhill,  Zheng Pei,  T. M. Perrine,  F. Plasser,  P. Pokhilko,  
 S. Prager,  A. Prociuk,  E. Ramos,  D. R. Rehn,  F. Rob,  M. Scheurer,  
 M. Schneider,  N. Sergueev,  S. M. Sharada,  S. Sharma,  D. W. Small,  
 T. Stauch,  T. Stein,  Yu-Chuan Su,  A. J. W. Thom,  A. Tkatchenko,  
 T. Tsuchimochi,  N. M. Tubman,  L. Vogt,  M. L. Vidal,  O. Vydrov,  
 M. A. Watson,  J. Wenzel,  M. de Wergifosse,  T. A. Wesolowski,  A. White,  
 J. Witte,  A. Yamada,  Jun Yang,  K. Yao,  S. Yeganeh,  S. R. Yost,  
 Zhi-Qiang You,  A. Zech,  Igor Ying Zhang,  Xing Zhang,  Yan Zhao,  
 Ying Zhu,  B. R. Brooks,  G. K. L. Chan,  C. J. Cramer,  M. S. Gordon,  
 W. J. Hehre,  A. Klamt,  M. W. Schmidt,  C. D. Sherrill,  D. G. Truhlar,  
 A. Aspuru-Guzik,  R. Baer,  A. T. Bell,  N. A. Besley,  Jeng-Da Chai,  
 A. E. DePrince, III,  R. A. DiStasio Jr.,  A. Dreuw,  B. D. Dunietz,  
 T. R. Furlani,  Chao-Ping Hsu,  Yousung Jung,  Jing Kong,  D. S. Lambrecht,  
 WanZhen Liang,  C. Ochsenfeld,  V. A. Rassolov,  L. V. Slipchenko,  
 J. E. Subotnik,  T. Van Voorhis,  J. M. Herbert,  A. I. Krylov,  
 P. M. W. Gill,  M. Head-Gordon

 Contributors to earlier versions of Q-Chem not listed above: 
 R. D. Adamson,  B. Austin,  J. Baker,  G. J. O. Beran,  K. Brandhorst,  
 S. T. Brown,  E. F. C. Byrd,  A. K. Chakraborty,  C.-L. Cheng,  
 Siu Hung Chien,  D. M. Chipman,  D. L. Crittenden,  H. Dachsel,  
 R. J. Doerksen,  A. D. Dutoi,  L. Fusti-Molnar,  W. A. Goddard III,  
 A. Golubeva-Zadorozhnaya,  S. R. Gwaltney,  G. Hawkins,  A. Heyden,  
 S. Hirata,  G. Kedziora,  F. J. Keil,  C. Kelley,  Jihan Kim,  R. A. King,  
 R. Z. Khaliullin,  P. P. Korambath,  W. Kurlancheek,  A. M. Lee,  M. S. Lee,  
 S. V. Levchenko,  Ching Yeh Lin,  D. Liotard,  R. C. Lochan,  I. Lotan,  
 P. E. Maslen,  N. Nair,  D. P. O'Neill,  D. Neuhauser,  E. Neuscamman,  
 C. M. Oana,  R. Olson,  B. Peters,  R. Peverati,  P. A. Pieniazek,  
 Y. M. Rhee,  J. Ritchie,  M. A. Rohrdanz,  E. Rosta,  N. J. Russ,  
 H. F. Schaefer III,  N. E. Schultz,  N. Shenvi,  A. C. Simmonett,  A. Sodt,  
 D. Stuck,  K. S. Thanthiriwatte,  V. Vanovschi,  Tao Wang,  A. Warshel,  
 C. F. Williams,  Q. Wu,  X. Xu,  W. Zhang

 Please cite Q-Chem as follows:
 Y. Shao et al., Mol. Phys. 113, 184-215 (2015)
 DOI: 10.1080/00268976.2014.952696

 Q-Chem 5.2.0 for Intel X86 EM64T Linux

 Parts of Q-Chem use Armadillo 8.300.2 (Tropical Shenanigans).
 http://arma.sourceforge.net/

 Q-Chem begins on Sun Sep 26 15:01:16 2021  

Host: cori01
0

     Scratch files written to /tmp/qchem11684//Frg2//
 May1019 |scratch|qcdevops|jenkins|workspace|build_RNUM -1
Processing $rem in /global/common/cori/software/qchem/5.2/config/preferences:
	 MEM_TOTAL  96000 
NAlpha2: 32
NElect   32
Mult     1
Symmetry turned off for PCM/SM12/SMD calculation

Checking the input file for inconsistencies... 	...done.

--------------------------------------------------------------
User input:
--------------------------------------------------------------
$molecule
0 1
 6	2.3785060439	-1.6624213966	-0.5495484554
 6	2.0415060439	-0.3294213966	-1.1085484554
 8	2.8785060439	0.3475786034	-1.7145484554
 7	0.8155060439	0.0755786034	-0.9555484554
 1	0.6085060439	0.9775786034	-1.3705484554
 1	0.1295060439	-0.6104213966	-0.6935484554
 1	3.4495060439	-1.8304213966	-0.6835484554
 1	1.8605060439	-2.4044213966	-1.1395484554
 1	2.1211460439	-1.7614613966	0.5153245446
$end
$rem
EDA2		1
METHOD		WB97X-V
BASIS		DEF2-TZVPD
XC_GRID		000099000590
NL_GRID		1
UNRESTRICTED		FALSE
MAX_SCF_CYCLES		200
SYMMETRY		FALSE
SYM_IGNORE		TRUE
BASIS_LIN_DEP_THRESH		6
THRESH		14
SCF_CONVERGENCE		8
SCF_PRINT_FRGM		TRUE
SOLVENT_METHOD		PCM
!required keywords
JOBTYPE		SP
SYM_IGNORE		TRUE
SUBSYSTEM		TRUE
GEN_SCFMAN		TRUE
CHILD_INSTRUCTION		2
SYM_IGNORE		TRUE
SCFMI		0
RI_K 0		
PARI_K 0		
MIN_PARI_K 0		
IARI_K 0		
OCC_RI_K 0		
PURECART		1111
MEM_STATIC		2000
MEM_TOTAL		96000
GUI		0
CHILD_MP		1
CHILD_MP_ORDERS		232
FRZ_RELAX		0
FRZ_RELAX_METHOD		0
EDA_CLS_ELEC		1
EDA_CLS_DISP		0
FRZ_ORTHO_DECOMP		1
EDA2		FALSE
FRGM_METHOD		FALSE
CIS_N_ROOTS  0
LOCAL_CIS    0
CIS_RLX_DNS  1
$end
$pcm
THEORY                  CPCM
METHOD                  SWIG
SOLVER                  INVERSION
RADII                   UFF
HPOINTS                 302
HEAVYPOINTS             302
PRINTLEVEL              0
$end
$solvent
DIELECTRIC              78.390000 ! water
$end
--------------------------------------------------------------
 ----------------------------------------------------------------
             Standard Nuclear Orientation (Angstroms)
    I     Atom           X                Y                Z
 ----------------------------------------------------------------
    1      C       2.3785060439    -1.6624213966    -0.5495484554
    2      C       2.0415060439    -0.3294213966    -1.1085484554
    3      O       2.8785060439     0.3475786034    -1.7145484554
    4      N       0.8155060439     0.0755786034    -0.9555484554
    5      H       0.6085060439     0.9775786034    -1.3705484554
    6      H       0.1295060439    -0.6104213966    -0.6935484554
    7      H       3.4495060439    -1.8304213966    -0.6835484554
    8      H       1.8605060439    -2.4044213966    -1.1395484554
    9      H       2.1211460439    -1.7614613966     0.5153245446
 ----------------------------------------------------------------
 Nuclear Repulsion Energy =         123.64170242 hartrees
 There are       16 alpha and       16 beta electrons
 Requested basis set is def2-TZVPD
 There are 78 shells and 196 basis functions

 Total QAlloc Memory Limit  96000 MB
 Mega-Array Size      1956 MB
 MEM_STATIC part      2000 MB
 Discretize the solute cavity surface with Lebedev spheres
	Using 302 Lebedev grid points for each H atom
	Using 302 Lebedev grid points for other atoms
	Atomic van der Waals radii will be scaled by 1.20
 Remove points where switching function is < 1.0e-08
 Keep 1209 surface tesserae and discard 1509 interior tesserae
 Molecular Surface Area = 127.463 Angst**2

                       Distance Matrix (Angstroms)
             C (  1)   C (  2)   O (  3)   N (  4)   H (  5)   H (  6)
   C (  2)  1.484230
   O (  3)  2.376410  1.235368
   N (  4)  2.372435  1.300196  2.214957
   H (  5)  3.282764  1.957136  2.380785  1.014238
   H (  6)  2.487055  1.976596  3.084997  1.004906  1.791512
   H (  7)  1.092347  2.101449  2.476426  3.262633  4.053161  3.537075
   H (  8)  1.080272  2.083110  2.990059  2.697458  3.613695  2.532531
   H (  9)  1.099999  2.166574  3.161325  2.691260  3.653346  2.598634
             H (  7)   H (  8)
   H (  8)  1.749952
   H (  9)  1.790696  1.794418
 
 A cutoff of  1.0D-14 yielded   3056 shell pairs
 There are     19546 function pairs (     24704 Cartesian)
 Smallest overlap matrix eigenvalue = 8.47E-06

 Scale SEOQF with 1.000000e-01/1.000000e-01/1.000000e-01

 Standard Electronic Orientation quadrupole field applied
 Nucleus-field energy     =     0.0000000030 hartrees
 Guess from superposition of atomic densities
 Warning:  Energy on first SCF cycle will be non-variational
 SAD guess density has 31.604610 electrons

 -----------------------------------------------------------------------
  General SCF calculation program by
  Eric Jon Sundstrom, Paul Horn, Yuezhi Mao, Dmitri Zuev, Alec White,
  David Stuck, Shaama M.S., Shane Yost, Joonho Lee, David Small,
  Daniel Levine, Susi Lehtola, Hugh Burton, Evgeny Epifanovsky
 -----------------------------------------------------------------------
 Exchange:     0.1670 Hartree-Fock + 1.0000 wB97X-V + LR-HF
 Correlation:  1.0000 wB97X-V
 Using Euler-Maclaurin-Lebedev (99,590) quadrature formula
 Nonlocal Correlation:  VV10 with C = 0.0100 and b = 6.00 and scale = 1.00000
 Grid used for NLC:  SG-1 standard quadrature
Energy prior to optimization (guess energy) = -208.698767490371
Begin Timing: Total SCF Calculation
begin iterations for algorithm: DIIS         
the SCF tolerance is set to 1.00e-08
    1    -208.6987674904      1.26e-02     00000 
    2    -208.2902139012      1.56e-02     00000 
    3    -209.2171988286      2.56e-03     00000 
    4    -209.2383159042      8.40e-04     00000 
    5    -209.2411095420      1.21e-04     00000 
    6    -209.2412064294      4.90e-05     00000 
    7    -209.2412233084      1.17e-05     00000 
    8    -209.2412245214      2.17e-06     00000 
    9    -209.2412246158      8.50e-07     00000 
   10    -209.2412246219      3.37e-07     00000 
   11    -209.2412246230      7.09e-08     00000 
   12    -209.2412246231      1.77e-08     00000 
   13    -209.2412246231      4.61e-09     00000 Convergence criterion met
Timing for Total SCF: 375.00s (wall), 740.67s (cpu)

************** Final PCM Free Energy Summary **************
 G_electrostatic  =      -0.01227540 hartree =      -7.70292873 kcal/mol
 G_cavitation     =       0.00000000 hartree =       0.00000000 kcal/mol
 G_dispersion     =       0.00000000 hartree =       0.00000000 kcal/mol
 G_repulsion      =       0.00000000 hartree =       0.00000000 kcal/mol
 --------------------------------------------------
 Non-electrostatic Free Energy =       0.00000000 hartree =       0.00000000 kcal/mol
 Total                         =      -0.01227540 hartree =      -7.70292873 kcal/mol
 --------------------------------------------------
 SCF Energy (H0 + V/2)                       =    -209.24122462 
 Solute Internal Energy (H0)                 =    -209.22894922 
 Total Free Energy (H0 + V/2 + non-elec)     =    -209.24122462 hartree
                                             = -131300.85017461 kcal/mol
***********************************************************

E_pcm = -0.0122753984
Multipole orders to be included
        2
        3
computing dipole RHS
computing quadrupole RHS
total number of RHS in solve_reponses: 8
RHS batch sizes
        8
Beginning Block Conjugate Gradient Iterations. Batch Number: 0
computing hessian-vector products by finite difference
              1      5.94e-01     00000 Conjugate Gradient Iteration
computing hessian-vector products by finite difference
              2      2.04e-01     00000 Conjugate Gradient Iteration
computing hessian-vector products by finite difference
              3      5.42e-02     00000 Conjugate Gradient Iteration
computing hessian-vector products by finite difference
              4      1.38e-02     00000 Conjugate Gradient Iteration
computing hessian-vector products by finite difference
              5      2.12e-03     00000 Conjugate Gradient Iteration
computing hessian-vector products by finite difference
              6      4.72e-04     00000 Conjugate Gradient Iteration
computing hessian-vector products by finite difference
              7      7.27e-05     00000 Conjugate Gradient Iteration
computing hessian-vector products by finite difference
              8      9.23e-06     00000 Conjugate Gradient Iteration
computing hessian-vector products by finite difference
              9      1.37e-06     00000 Conjugate Gradient Iteration
computing hessian-vector products by finite difference
             10      1.52e-07     00000 Conjugate Gradient Iteration
computing hessian-vector products by finite difference
             11      2.38e-08     00000 Conjugate Gradient Iteration
computing hessian-vector products by finite difference
             12      3.96e-09     00000 CG Converged
batch 0 complete
Done Calculating Responses
TESTING ORTHOGONALIZATION OF MULTIPOLE BASIS
Multipole virts passed orthogonality test
Virts Per Order
        48
        80
 
 --------------------------------------------------------------
 
                    Orbital Energies (a.u.)
 --------------------------------------------------------------
 
 Alpha MOs
 -- Occupied --
-19.1751 -14.4326 -10.3700 -10.2686  -1.1722  -1.0522  -0.8769  -0.7106
 -0.6705  -0.5897  -0.5754  -0.5164  -0.5047  -0.4829  -0.3837  -0.3659
 -- Virtual --
  0.0588   0.0910   0.0935   0.0986   0.1264   0.1289   0.1340   0.1417
  0.1666   0.1825   0.1976   0.2085   0.2292   0.2390   0.2435   0.2514
  0.2562   0.2743   0.3093   0.3115   0.3239   0.3311   0.3420   0.3515
  0.3561   0.3717   0.3763   0.3822   0.3927   0.4047   0.4139   0.4219
  0.4257   0.4508   0.4587   0.4724   0.4801   0.4869   0.4933   0.4997
  0.5266   0.5343   0.5493   0.5635   0.5765   0.5895   0.6315   0.6445
  0.6493   0.6563   0.6746   0.6816   0.6998   0.7153   0.7358   0.7617
  0.7754   0.7867   0.8019   0.8032   0.8155   0.8312   0.8570   0.8650
  0.9149   0.9575   0.9631   0.9817   1.0102   1.0348   1.0428   1.1130
  1.1304   1.1879   1.2214   1.2594   1.2929   1.3002   1.3350   1.3949
  1.4909   1.4937   1.5186   1.6174   1.6807   1.7142   1.7528   1.7929
  1.8174   1.8838   1.8992   1.9063   1.9304   1.9547   2.0051   2.0255
  2.0451   2.1101   2.1407   2.1942   2.2557   2.2781   2.2959   2.3561
  2.3728   2.3778   2.4390   2.4998   2.5396   2.5706   2.6122   2.6243
  2.6575   2.7222   2.7658   2.8135   2.8601   2.9354   2.9520   2.9873
  3.0392   3.1314   3.1507   3.1569   3.2066   3.2398   3.2776   3.2934
  3.3053   3.3442   3.3612   3.4062   3.4793   3.5278   3.5663   3.6014
  3.6212   3.6521   3.7092   3.7740   3.8831   3.9378   3.9883   4.0553
  4.1155   4.1947   4.2821   4.4646   4.5822   4.6003   4.6309   4.6602
  4.8490   4.9031   4.9172   4.9574   5.1530   5.1990   5.2591   5.3177
  5.3876   5.4059   5.4485   5.5209   5.5603   5.7858   5.9336   6.1125
  6.2697   6.5227   6.6444   6.7488   6.8600   6.9884   7.2500   7.3251
 22.6415  23.6745  32.4300  44.3023
 --------------------------------------------------------------
 
          Ground-State Mulliken Net Atomic Charges

     Atom                 Charge (a.u.)
  ----------------------------------------
      1 C                    -0.652043
      2 C                     0.410278
      3 O                    -0.596557
      4 N                    -0.263839
      5 H                     0.226675
      6 H                     0.210282
      7 H                     0.180862
      8 H                     0.236146
      9 H                     0.248197
  ----------------------------------------
  Sum of atomic charges =     0.000000

 -----------------------------------------------------------------
                    Cartesian Multipole Moments
 -----------------------------------------------------------------
    Charge (ESU x 10^10)
                -0.0000
    Dipole Moment (Debye)
         X      -4.2643      Y      -2.2962      Z       1.8552
       Tot       5.1864
    Quadrupole Moments (Debye-Ang)
        XX     -39.8671     XY      -5.9770     YY     -21.5588
        XZ      10.2605     YZ       1.9442     ZZ     -29.9124
    Octopole Moments (Debye-Ang^2)
       XXX    -200.0832    XXY      -5.4865    XYY     -46.7943
       YYY      32.7179    XXZ      59.8406    XYZ       7.4639
       YYZ      22.4834    XZZ     -70.2910    YZZ       8.2945
       ZZZ      89.9913
    Hexadecapole Moments (Debye-Ang^3)
      XXXX    -894.3676   XXXY      32.4795   XXYY    -145.6865
      XYYY      75.8833   YYYY    -170.3866   XXXZ     271.7639
      XXYZ      18.0958   XYYZ      53.0737   YYYZ      -8.0362
      XXZZ    -225.8193   XYZZ      14.8435   YYZZ     -61.9086
      XZZZ     206.0119   YZZZ      -7.2772   ZZZZ    -248.9375
 -----------------------------------------------------------------
Archival summary:
1\1\nid00510\SP\ProcedureUnspecified\BasisUnspecified\1125\meili\SunSep2616:53:402021SunSep2616:53:402021\0\\#,ProcedureUnspecified,BasisUnspecified,\\0,1\C\O,1,1.23537\N,1,1.3002,2,121.728\H,3,1.00491,1,117.499,2,163.053,0\H,3,1.01424,1,114.918,2,0.12491,0\C,1,1.48423,2,121.54,3,178.389,0\H,6,1.08027,1,107.596,2,-109.804,0\H,6,1.09235,1,108.333,2,5.91011,0\H,6,1.1,1,113.1,2,127.525,0\\\@

 Total job time:  6745.79s(wall), 13252.58s(cpu) 
 Sun Sep 26 16:53:41 2021

        *************************************************************
        *                                                           *
        *  Thank you very much for using Q-Chem.  Have a nice day.  *
        *                                                           *
        *************************************************************


Done Job For Fragment 1
calling putenv with: QCSCRATCH=/global/cscratch1/sd/meili 
calling putenv with: QCLOCALSCR=/tmp 
calling putenv with: QCTHREADS=32 
Doing General SCFMI
 Exchange:     0.1670 Hartree-Fock + 1.0000 wB97X-V + LR-HF
 Correlation:  1.0000 wB97X-V
 Using Euler-Maclaurin-Lebedev (99,590) quadrature formula
 Nonlocal Correlation:  VV10 with C = 0.0100 and b = 6.00 and scale = 1.00000
 Grid used for NLC:  SG-1 standard quadrature
performing fock build before subrot guess so that all methods have access
Printing subrot_rss_gen Method Specification:
Occupied Subspace Method is 0
Virtual Subspace Method is 0
Energy of the unrelaxed supersystem initial determinant -418.440458824577
performing fock build before subrot guess so that all methods have access
Printing subrot_rss_gen Method Specification:
Occupied Subspace Method is 0
Virtual Subspace Method is 0
Energy of the unrelaxed supersystem initial determinant w/ solvent -418.465289553765
write pseudocanon occs and virts to disk
write pseudocanon orbital energies to disk
Tolerance of ortho_decomp_scf: 1.00e-06
GDM subspace size: 20
Beginning the Orthogonal Decomposition of the Initial Supersystem Wavefunction
    1    -418.3981677055      7.61e-02     ortho_decomp Preconditoned Steepest Descent
    2    -418.4060394478      1.84e-03     ortho_decomp BFGS Step
    3    -418.4060628095      1.42e-04     ortho_decomp BFGS Step
    4    -418.4060628629      6.60e-06     ortho_decomp BFGS Step
    5    -418.4060628632      2.99e-07     ortho_decomp 00000 Convergence criterion met
 Hartree-Fock
 Hartree-Fock
 Hartree-Fock
Doing General SCFMI
 Exchange:     0.1670 Hartree-Fock + 1.0000 wB97X-V + LR-HF
 Correlation:  1.0000 wB97X-V
 Using Euler-Maclaurin-Lebedev (99,590) quadrature formula
 Nonlocal Correlation:  VV10 with C = 0.0100 and b = 6.00 and scale = 1.00000
 Grid used for NLC:  SG-1 standard quadrature
performing fock build at end of subrot_r(subrot) constructor so that all methods have access
<S^2> of initial wavefunction before polarization iterations 0.0000000000
Beginning iterations for the determination of the polarized wavefunction
Energy prior to optimization (guess energy) = -418.465289553765
Begin Timing: Total SCF Calculation
begin iterations for algorithm: DIIS         
the SCF tolerance is set to 1.00e-08
    1    -418.4652895538      3.05e-04     00000 
    2    -418.4688784074      1.18e-04     00000 
    3    -418.4691598567      6.01e-05     00000 
    4    -418.4692324882      3.17e-05     00000 
    5    -418.4692533622      9.74e-06     00000 
    6    -418.4692573288      4.99e-06     00000 
    7    -418.4692586465      2.13e-06     00000 
    8    -418.4692588853      1.11e-06     00000 
    9    -418.4692589271      4.67e-07     00000 
   10    -418.4692589342      1.94e-07     00000 
   11    -418.4692589350      1.03e-07     00000 
   12    -418.4692589352      6.13e-08     00000 
   13    -418.4692589353      3.08e-08     00000 
   14    -418.4692589353      1.28e-08     00000 
   15    -418.4692589353      4.87e-09     00000 Convergence criterion met
write pseudocanon occs and virts to disk
write pseudocanon orbital energies to disk
Timing for Total SCF: 2618.00s (wall), 5191.05s (cpu)
<S^2> of polarized wavefunction after polarization iterations 0.0000000000
relaxing scfmi constraint to allow all rotations in the entire AO span
Doing General SCFMI
 Exchange:     0.1670 Hartree-Fock + 1.0000 wB97X-V + LR-HF
 Correlation:  1.0000 wB97X-V
 Using Euler-Maclaurin-Lebedev (99,590) quadrature formula
 Nonlocal Correlation:  VV10 with C = 0.0100 and b = 6.00 and scale = 1.00000
 Grid used for NLC:  SG-1 standard quadrature
performing fock build at end of subrot_r(subrot) constructor so that all methods have access
<S^2> of polarized wavefunction before ct-allowed iterations 0.0000000000
Beginning iterations for the determination of the CT-Allowed wavefunction
Energy prior to optimization (guess energy) = -418.469258935344
Begin Timing: Total SCF Calculation
begin iterations for algorithm: DIIS         
the SCF tolerance is set to 1.00e-08
    1    -418.4692589353      2.65e-04     00000 
    2    -418.4757865690      3.91e-05     00000 
    3    -418.4760341571      8.97e-06     00000 
    4    -418.4760412450      6.60e-06     00000 
    5    -418.4760441339      1.42e-06     00000 
    6    -418.4760442888      6.47e-07     00000 
    7    -418.4760443328      1.93e-07     00000 
    8    -418.4760443371      5.68e-08     00000 
    9    -418.4760443378      1.86e-08     00000 
   10    -418.4760443378      5.24e-09     00000 Convergence criterion met
write pseudocanon occs and virts to disk
write pseudocanon orbital energies to disk
Timing for Total SCF: 1669.00s (wall), 3315.83s (cpu)
<S^2> of ct_allowed wavefunction after ct-allowed iterations 0.0000000000

================================
        Results of EDA2         
================================
Basic EDA Quantities
--------------------
Fragment Energies (Ha):
1 -209.2458459711
2 -209.2412246231
--------------------
  E_prp (kJ/mol) = -0.0000
  E_sol (kJ/mol) = -1.0498
  E_frz (kJ/mol) = 58.2366
  E_pol (kJ/mol) = -10.4217
  E_vct (kJ/mol) = -17.8153
  E_int (kJ/mol) = 28.9498
--------------------


Initial Wavefunction Decomposition
--------------------
  --------------------
  Orthogonal Fragment Subspace Decomposition:
  --------------------
     E_elec   (ELEC)   (kJ/mol) = -45.2159
     E_pauli  (PAULI)  (kJ/mol) = 122.6455
     E_disp   (DISP)   (kJ/mol) = -19.1930
     --------------------
     Terms summing to E_pauli:
     --------------------
        E_kep_pauli       (kJ/mol) = 148.5443
        E_disp_free_pauli (kJ/mol) = -25.8988
  --------------------
  Classical Frozen Decomposition:
  --------------------
     E_cls_elec  (CLS ELEC)  (kJ/mol) = -13.6643
     E_cls_pauli (CLS PAULI) (kJ/mol) = 71.9009
    [E_mod_pauli (MOD PAULI) (kJ/mol) = 91.0939 (CLS PAULI - DISP from orthogonal decomposition) ]
  --------------------
--------------------

Simplified EDA Summary (kJ/mol)
--------------------
 PREPARATION     -0.0000
 SOLVATION       -1.0498
 FROZEN          77.4296      (does not include dispersion)
[PAULI           122.6455]     (if this is negligible, then frozen describes electrostatics)
 DISPERSION      -19.1930
 POLARIZATION    -10.4217
 CHARGE TRANSFER -17.8153
 TOTAL           28.9498     (PRP + SOL + FRZ + DISP + POL + CT)
--------------------
 
 --------------------------------------------------------------
 
                    Orbital Energies (a.u.)
 --------------------------------------------------------------
 
 Alpha MOs
 -- Occupied --
-19.1845 -19.1785 -14.4470 -14.4304 -10.3803 -10.3797 -10.2807 -10.2734
 -1.1828  -1.1742  -1.0714  -1.0452  -0.8843  -0.8806  -0.7427  -0.7127
 -0.6901  -0.6600  -0.5982  -0.5942  -0.5828  -0.5738  -0.5293  -0.5218
 -0.5129  -0.5086  -0.4897  -0.4866  -0.3989  -0.3826  -0.3738  -0.3688
 -- Virtual --
  0.0513   0.0682   0.0783   0.0832   0.0930   0.0967   0.1008   0.1171
  0.1211   0.1227   0.1278   0.1309   0.1343   0.1403   0.1522   0.1677
  0.1774   0.1825   0.1875   0.2012   0.2119   0.2152   0.2196   0.2270
  0.2342   0.2398   0.2464   0.2499   0.2588   0.2646   0.2735   0.2796
  0.2874   0.2918   0.3014   0.3108   0.3191   0.3203   0.3236   0.3335
  0.3394   0.3415   0.3472   0.3535   0.3580   0.3648   0.3710   0.3739
  0.3770   0.3785   0.3906   0.3987   0.4000   0.4042   0.4168   0.4201
  0.4239   0.4323   0.4361   0.4437   0.4500   0.4630   0.4646   0.4717
  0.4743   0.4794   0.4825   0.4898   0.4936   0.4975   0.5064   0.5153
  0.5234   0.5266   0.5321   0.5421   0.5456   0.5540   0.5671   0.5698
  0.5845   0.5914   0.5930   0.6036   0.6065   0.6084   0.6235   0.6264
  0.6377   0.6428   0.6552   0.6618   0.6725   0.6750   0.6862   0.6917
  0.6942   0.7013   0.7093   0.7154   0.7216   0.7272   0.7349   0.7381
  0.7482   0.7616   0.7638   0.7682   0.7739   0.7845   0.7955   0.7992
  0.8051   0.8110   0.8163   0.8248   0.8324   0.8549   0.8594   0.8650
  0.8808   0.8997   0.9135   0.9230   0.9249   0.9419   0.9538   0.9719
  0.9782   0.9978   1.0138   1.0272   1.0429   1.0528   1.0602   1.0680
  1.0783   1.0894   1.1076   1.1099   1.1125   1.1308   1.1495   1.1769
  1.1881   1.2086   1.2256   1.2318   1.2693   1.2951   1.3007   1.3115
  1.3215   1.3311   1.3400   1.3766   1.3890   1.3981   1.4372   1.4644
  1.4852   1.5136   1.5195   1.5449   1.5526   1.5710   1.6270   1.6532
  1.7064   1.7296   1.7555   1.7580   1.7836   1.8172   1.8495   1.8681
  1.8872   1.8997   1.9060   1.9107   1.9198   1.9276   1.9353   1.9547
  1.9564   1.9822   1.9917   2.0157   2.0188   2.0430   2.0571   2.0717
  2.0931   2.0972   2.1226   2.1498   2.1571   2.1980   2.2039   2.2469
  2.2618   2.2795   2.2974   2.3102   2.3650   2.3738   2.3821   2.4004
  2.4126   2.4516   2.4612   2.4764   2.4912   2.5143   2.5265   2.5626
  2.5878   2.5931   2.6269   2.6436   2.6498   2.6540   2.6667   2.6909
  2.7226   2.7491   2.7735   2.7968   2.8007   2.8201   2.8416   2.8617
  2.8826   2.8975   2.9379   2.9590   2.9928   3.0119   3.0228   3.0396
  3.0941   3.1144   3.1265   3.1548   3.1710   3.1859   3.2033   3.2265
  3.2296   3.2477   3.2650   3.2892   3.3086   3.3222   3.3283   3.3367
  3.3429   3.3514   3.3621   3.3847   3.3991   3.4049   3.4244   3.4285
  3.4815   3.5041   3.5206   3.5459   3.5638   3.6034   3.6291   3.6366
  3.6385   3.6576   3.6670   3.6748   3.7145   3.7328   3.7806   3.8505
  3.8953   3.9108   3.9636   3.9764   4.0248   4.0305   4.0604   4.0779
  4.0919   4.1276   4.2047   4.2291   4.2983   4.3166   4.4291   4.4747
  4.5246   4.5937   4.5995   4.6288   4.6364   4.6546   4.6742   4.6965
  4.7888   4.8587   4.8961   4.9185   4.9456   4.9518   4.9608   5.0055
  5.1662   5.1880   5.1927   5.2491   5.2694   5.2849   5.3301   5.3740
  5.3957   5.4156   5.4255   5.4460   5.5039   5.5103   5.5328   5.5631
  5.5688   5.6241   5.7791   5.7871   5.9284   5.9574   6.1386   6.2081
  6.2629   6.2671   6.5193   6.5407   6.6487   6.6685   6.7558   6.7564
  6.8375   6.8588   6.9919   6.9971   7.2378   7.2504   7.3346   7.3371
 22.6324  22.6906  23.6148  23.7142  32.5019  32.6054  44.3771  44.3982
 --------------------------------------------------------------
 
          Ground-State Mulliken Net Atomic Charges

     Atom                 Charge (a.u.)
  ----------------------------------------
      1 C                    -0.434056
      2 C                     0.424782
      3 O                    -0.575720
      4 N                    -0.101405
      5 H                     0.213182
      6 H                     0.263545
      7 H                     0.168637
      8 H                     0.179177
      9 H                     0.207475
     10 C                    -0.674812
     11 C                     0.342029
     12 O                    -0.583455
     13 N                    -0.269168
     14 H                     0.206417
     15 H                    -0.074578
     16 H                     0.175856
     17 H                     0.264423
     18 H                     0.267672
  ----------------------------------------
  Sum of atomic charges =     0.000000

 -----------------------------------------------------------------
                    Cartesian Multipole Moments
 -----------------------------------------------------------------
    Charge (ESU x 10^10)
                -0.0000
    Dipole Moment (Debye)
         X       0.2872      Y      -2.6873      Z      -1.4154
       Tot       3.0508
    Quadrupole Moments (Debye-Ang)
        XX     -77.0448     XY      -1.1602     YY     -44.6530
        XZ      22.9341     YZ       1.4913     ZZ     -61.1656
    Octopole Moments (Debye-Ang^2)
       XXX       1.4465    XXY     -29.5264    XYY       5.3989
       YYY       7.3881    XXZ     -10.9665    XYZ      16.6810
       YYZ       0.1740    XZZ      10.7644    YZZ      -0.2971
       ZZZ      -2.8022
    Hexadecapole Moments (Debye-Ang^3)
      XXXX   -1757.5942   XXXY     106.6971   XXYY    -284.2932
      XYYY     111.5259   YYYY    -272.3674   XXXZ     556.6928
      XXYZ     -31.2103   XYYZ     107.8861   YYYZ     -56.8192
      XXZZ    -481.6516   XYZZ      42.5430   YYZZ    -118.4198
      XZZZ     424.0939   YZZZ     -63.8795   ZZZZ    -557.5422
 -----------------------------------------------------------------
Archival summary:
1\1\nid00510\SP\ProcedureUnspecified\BasisUnspecified\22410\meili\SunSep2618:48:532021SunSep2618:48:532021\0\\#,ProcedureUnspecified,BasisUnspecified,\\0,1\N\H,1,1.00491\H,1,1.01424,2,125.062\C,1,1.3002,2,117.499,3,-161.018,0\O,4,1.23537,1,121.728,2,163.053,0\C,4,1.48423,1,116.714,2,-15.4104,0\H,6,1.08027,4,107.596,1,68.6622,0\H,6,1.09235,4,108.333,1,-175.624,0\H,6,1.1,4,113.1,1,-54.0084,0\H,2,1.60796,1,144.561,3,-11.9154,0\C,10,1.07859,2,145.822,1,-49.3557,0\H,11,1.09177,10,107.705,2,97.3844,0\H,11,1.1,10,107.701,2,-145.203,0\C,11,1.51023,10,111.327,2,-20.4564,0\O,14,1.22706,11,120.647,10,-159.04,0\N,14,1.32469,11,117.61,10,21.7041,0\H,16,1.00232,14,123.385,11,-4.74525,0\H,16,1.01818,14,117.928,11,-176.075,0\\\@

 Total job time:  20186.84s(wall), 13738.23s(cpu) 
 Sun Sep 26 18:48:55 2021

        *************************************************************
        *                                                           *
        *  Thank you very much for using Q-Chem.  Have a nice day.  *
        *                                                           *
        *************************************************************


