
Running Job 1 of 1 SSI-060ASP-165ASP-1_PCM_TZVPD.in
qchem SSI-060ASP-165ASP-1_PCM_TZVPD.in_41169.0 /tmp/qchem41169/ 0
/global/common/cori/software/qchem/5.2/exe/qcprog.exe_s SSI-060ASP-165ASP-1_PCM_TZVPD.in_41169.0 /tmp/qchem41169/
                  Welcome to Q-Chem
     A Quantum Leap Into The Future Of Chemistry


 Q-Chem 5.2, Q-Chem, Inc., Pleasanton, CA (2019)

 License issued to: National Energy Research Scientific Computing Center

 Yihan Shao,  Zhengting Gan,  E. Epifanovsky,  A. T. B. Gilbert,  M. Wormit,  
 J. Kussmann,  A. W. Lange,  A. Behn,  Jia Deng,  Xintian Feng,  D. Ghosh,  
 M. Goldey,  P. R. Horn,  L. D. Jacobson,  I. Kaliman,  T. Kus,  A. Landau,  
 Jie Liu,  E. I. Proynov,  R. M. Richard,  R. P. Steele,  E. J. Sundstrom,  
 H. L. Woodcock III,  P. M. Zimmerman,  D. Zuev,  B. Albrecht,  E. Alguire,  
 S. A. Baeppler,  D. Barton,  Z. Benda,  Y. A. Bernard,  E. J. Berquist,  
 K. B. Bravaya,  H. Burton,  D. Casanova,  Chun-Min Chang,  Yunqing Chen,  
 A. Chien,  K. D. Closser,  M. P. Coons,  S. Coriani,  S. Dasgupta,  
 A. L. Dempwolff,  M. Diedenhofen,  Hainam Do,  R. G. Edgar,  Po-Tung Fang,  
 S. Faraji,  S. Fatehi,  Qingguo Feng,  K. D. Fenk,  J. Fosso-Tande,  
 J. Gayvert,  Qinghui Ge,  A. Ghysels,  G. Gidofalvi,  J. Gomes,  
 J. Gonthier,  A. Gunina,  D. Hait,  M. W. D. Hanson-Heine,  
 P. H. P. Harbach,  A. W. Hauser,  M. F. Herbst,  J. E. Herr,  
 E. G. Hohenstein,  Z. C. Holden,  Kerwin Hui,  B. C. Huynh,  T.-C. Jagau,  
 Hyunjun Ji,  B. Kaduk,  K. Khistyaev,  Jaehoon Kim,  P. Klunzinger,  K. Koh,  
 D. Kosenkov,  L. Koulias,  T. Kowalczyk,  C. M. Krauter,  A. Kunitsa,  
 Ka Un Lao,  A. Laurent,  K. V. Lawler,  Joonho Lee,  D. Lefrancois,  
 S. Lehtola,  D. S. Levine,  Yi-Pei Li,  You-Sheng Lin,  Fenglai Liu,  
 E. Livshits,  A. Luenser,  P. Manohar,  E. Mansoor,  S. F. Manzer,  
 Shan-Ping Mao,  Yuezhi Mao,  N. Mardirossian,  A. V. Marenich,  
 T. Markovich,  L. A. Martinez-Martinez,  S. A. Maurer,  N. J. Mayhall,  
 S. C. McKenzie,  J.-M. Mewes,  P. Morgante,  A. F. Morrison,  
 J. W. Mullinax,  K. Nanda,  T. S. Nguyen-Beck,  R. Olivares-Amaya,  
 J. A. Parkhill,  Zheng Pei,  T. M. Perrine,  F. Plasser,  P. Pokhilko,  
 S. Prager,  A. Prociuk,  E. Ramos,  D. R. Rehn,  F. Rob,  M. Scheurer,  
 M. Schneider,  N. Sergueev,  S. M. Sharada,  S. Sharma,  D. W. Small,  
 T. Stauch,  T. Stein,  Yu-Chuan Su,  A. J. W. Thom,  A. Tkatchenko,  
 T. Tsuchimochi,  N. M. Tubman,  L. Vogt,  M. L. Vidal,  O. Vydrov,  
 M. A. Watson,  J. Wenzel,  M. de Wergifosse,  T. A. Wesolowski,  A. White,  
 J. Witte,  A. Yamada,  Jun Yang,  K. Yao,  S. Yeganeh,  S. R. Yost,  
 Zhi-Qiang You,  A. Zech,  Igor Ying Zhang,  Xing Zhang,  Yan Zhao,  
 Ying Zhu,  B. R. Brooks,  G. K. L. Chan,  C. J. Cramer,  M. S. Gordon,  
 W. J. Hehre,  A. Klamt,  M. W. Schmidt,  C. D. Sherrill,  D. G. Truhlar,  
 A. Aspuru-Guzik,  R. Baer,  A. T. Bell,  N. A. Besley,  Jeng-Da Chai,  
 A. E. DePrince, III,  R. A. DiStasio Jr.,  A. Dreuw,  B. D. Dunietz,  
 T. R. Furlani,  Chao-Ping Hsu,  Yousung Jung,  Jing Kong,  D. S. Lambrecht,  
 WanZhen Liang,  C. Ochsenfeld,  V. A. Rassolov,  L. V. Slipchenko,  
 J. E. Subotnik,  T. Van Voorhis,  J. M. Herbert,  A. I. Krylov,  
 P. M. W. Gill,  M. Head-Gordon

 Contributors to earlier versions of Q-Chem not listed above: 
 R. D. Adamson,  B. Austin,  J. Baker,  G. J. O. Beran,  K. Brandhorst,  
 S. T. Brown,  E. F. C. Byrd,  A. K. Chakraborty,  C.-L. Cheng,  
 Siu Hung Chien,  D. M. Chipman,  D. L. Crittenden,  H. Dachsel,  
 R. J. Doerksen,  A. D. Dutoi,  L. Fusti-Molnar,  W. A. Goddard III,  
 A. Golubeva-Zadorozhnaya,  S. R. Gwaltney,  G. Hawkins,  A. Heyden,  
 S. Hirata,  G. Kedziora,  F. J. Keil,  C. Kelley,  Jihan Kim,  R. A. King,  
 R. Z. Khaliullin,  P. P. Korambath,  W. Kurlancheek,  A. M. Lee,  M. S. Lee,  
 S. V. Levchenko,  Ching Yeh Lin,  D. Liotard,  R. C. Lochan,  I. Lotan,  
 P. E. Maslen,  N. Nair,  D. P. O'Neill,  D. Neuhauser,  E. Neuscamman,  
 C. M. Oana,  R. Olson,  B. Peters,  R. Peverati,  P. A. Pieniazek,  
 Y. M. Rhee,  J. Ritchie,  M. A. Rohrdanz,  E. Rosta,  N. J. Russ,  
 H. F. Schaefer III,  N. E. Schultz,  N. Shenvi,  A. C. Simmonett,  A. Sodt,  
 D. Stuck,  K. S. Thanthiriwatte,  V. Vanovschi,  Tao Wang,  A. Warshel,  
 C. F. Williams,  Q. Wu,  X. Xu,  W. Zhang

 Please cite Q-Chem as follows:
 Y. Shao et al., Mol. Phys. 113, 184-215 (2015)
 DOI: 10.1080/00268976.2014.952696

 Q-Chem 5.2.0 for Intel X86 EM64T Linux

 Parts of Q-Chem use Armadillo 8.300.2 (Tropical Shenanigans).
 http://arma.sourceforge.net/

 Q-Chem begins on Sun Sep 26 09:16:34 2021  

Host: cori01
0

     Scratch files written to /tmp/qchem41169//
 May1019 |scratch|qcdevops|jenkins|workspace|build_RNUM -1
Processing $rem in /global/common/cori/software/qchem/5.2/config/preferences:
	 MEM_TOTAL  96000 
NAlpha2: 72
NElect   72
Mult     1
Symmetry turned off for PCM/SM12/SMD calculation

 Q-Chem warning in module libgen/rem_setup.C, line 2803:

 Neither GIA nor STOLL is specified by user. Use STOLL as the default


Checking the input file for inconsistencies... 	...done.

--------------------------------------------------------------
User input:
--------------------------------------------------------------
$comment
SSI-060ASP-165ASP-1.pdb
$end

$molecule
-2 1
--
-1 1
C   -1.731903123444   -0.855243855217   -0.871390900793
C   -0.910903123444   -0.694243855217   -2.138390900793
C   -1.946903123444    0.472756144783   -0.132390900793
O   -3.107903123444    0.901756144783   -0.054390900793
O   -0.983903123444    1.079756144783    0.399609099207
H   -2.698903123444   -1.288243855217   -1.128390900793
H   -1.254903123444   -1.577243855217   -0.209390900793
H    0.074096876556   -0.322243855217   -1.894390900793
H   -1.373943123444    0.044369144783   -2.809240900793
H   -0.781303123444   -1.686123855217   -2.595960900793
--
-1 1
C    2.421096876556   -0.860243855217    1.879609099207
C    2.147096876556   -0.194243855217    0.613609099207
O    1.054096876556   -0.506243855217    0.123609099207
O    2.966096876556    0.629756144783    0.153609099207
H    3.465096876556   -0.798243855217    2.110609099207
H    2.235096876556   -1.929243855217    1.733609099207
H    1.727486876556   -0.475230855217    2.641629099207
$end

$rem
JOBTYPE			EDA
EDA2			1
method			wB97X-V
BASIS			def2-TZVPD
XC_GRID			000099000590
NL_GRID			1
UNRESTRICTED		FALSE
MAX_SCF_CYCLES		200
SYMMETRY		FALSE
SYM_IGNORE		TRUE
MEM_STATIC		2000
BASIS_LIN_DEP_THRESH 	6
THRESH 			14
SCF_CONVERGENCE 	8
SCF_PRINT_FRGM 		TRUE
SOLVENT_METHOD          PCM
$end

$PCM
THEORY                  CPCM
METHOD                  SWIG
SOLVER                  INVERSION
RADII                   UFF
HPOINTS                 302
HEAVYPOINTS             302
PRINTLEVEL              0
$END

$SOLVENT
DIELECTRIC              78.390000 ! water
$END
--------------------------------------------------------------
 ----------------------------------------------------------------
             Standard Nuclear Orientation (Angstroms)
    I     Atom           X                Y                Z
 ----------------------------------------------------------------
    1      C      -1.7319031234    -0.8552438552    -0.8713909008
    2      C      -0.9109031234    -0.6942438552    -2.1383909008
    3      C      -1.9469031234     0.4727561448    -0.1323909008
    4      O      -3.1079031234     0.9017561448    -0.0543909008
    5      O      -0.9839031234     1.0797561448     0.3996090992
    6      H      -2.6989031234    -1.2882438552    -1.1283909008
    7      H      -1.2549031234    -1.5772438552    -0.2093909008
    8      H       0.0740968766    -0.3222438552    -1.8943909008
    9      H      -1.3739431234     0.0443691448    -2.8092409008
   10      H      -0.7813031234    -1.6861238552    -2.5959609008
   11      C       2.4210968766    -0.8602438552     1.8796090992
   12      C       2.1470968766    -0.1942438552     0.6136090992
   13      O       1.0540968766    -0.5062438552     0.1236090992
   14      O       2.9660968766     0.6297561448     0.1536090992
   15      H       3.4650968766    -0.7982438552     2.1106090992
   16      H       2.2350968766    -1.9292438552     1.7336090992
   17      H       1.7274868766    -0.4752308552     2.6416290992
 ----------------------------------------------------------------
 Nuclear Repulsion Energy =         436.10525712 hartrees
 There are       36 alpha and       36 beta electrons
 Requested basis set is def2-TZVPD
 There are 161 shells and 417 basis functions

 Total QAlloc Memory Limit  96000 MB
 Mega-Array Size      1956 MB
 MEM_STATIC part      2000 MB
 Discretize the solute cavity surface with Lebedev spheres
	Using 302 Lebedev grid points for each H atom
	Using 302 Lebedev grid points for other atoms
	Atomic van der Waals radii will be scaled by 1.20
 Remove points where switching function is < 1.0e-08
 Keep 2074 surface tesserae and discard 3060 interior tesserae
 Molecular Surface Area = 225.036 Angst**2
 A cutoff of  1.0D-14 yielded  11794 shell pairs
 There are     79792 function pairs (    101350 Cartesian)
 Smallest overlap matrix eigenvalue = 5.66E-06

 Scale SEOQF with 1.000000e-01/1.000000e-01/1.000000e-01

 Standard Electronic Orientation quadrupole field applied
 Nucleus-field energy     =     0.0000000044 hartrees

 -----------------------------------------------------------------------
  General SCF calculation program by
  Eric Jon Sundstrom, Paul Horn, Yuezhi Mao, Dmitri Zuev, Alec White,
  David Stuck, Shaama M.S., Shane Yost, Joonho Lee, David Small,
  Daniel Levine, Susi Lehtola, Hugh Burton, Evgeny Epifanovsky
 -----------------------------------------------------------------------
================================================================
                 ALMO-EDA with the EDA2 driver                  
================================================================
 The second-generation ALMO-EDA (for DFT):                      
 P. R. Horn, Y. Mao and M. Head-Gordon, PCCP, 18, 23067 (2016)  
 Decomposition of the frozen energy:                            
 P. R. Horn, Y. Mao and M. Head-Gordon, JCP, 144, 114107 (2016) 
 FERF model for polarization:                                   
 P. R. Horn and M. Head-Gordon, JCP, 143, 114111 (2015)         
Using eda2 option set 1
Option set summary: Frozen orbital wavefunction, initial wavefunction decomposition, and nDQ polarization.
--------------------------------
Printing EDA Options
--------------------------------
eda_child_super_basis      0
fragmo_guess_mode          0
child_mp                   1
child_mp_orders            232
cls_elec                   1
cls_disp                   0
scfmi_mode                 1
scfmi_occs                 0
scfmi_virts                0
frz_relax                  0
frz_relax_method           0
dc_pen_start               0
dc_pen_conv                0
dc_pen_increment           0
dc_pen_steps               0
dc_pen_thresh_factor       0
dc_pen_pre_newton_thresh   0
frz_ortho_decomp           1
frz_ortho_decomp_conv      6
frgm_method                2
scfmi_freeze_ss            0
separate_rehyb             0
plot_diff_den              0
eda_nocv                   0
eda_vct_relax              1
disp_free_x                0
disp_free_c                0
eda_bsse                   0
eda_pct_a                  0
eda_covp                   0
--------------------------------
Attempting to make child job directory: /tmp/qchem41169//Frg1/
Attempting to make child job directory: /tmp/qchem41169//Frg2/
Creating input file /tmp/qchem41169/Frg1.input
using default PutDataFrgm: nothing
calling putenv with: QCSCRATCH=/tmp/qchem41169/ 
calling putenv with: QCLOCALSCR=/tmp/qchem41169/ 
Spawning Job For Fragment 0
                  Welcome to Q-Chem
     A Quantum Leap Into The Future Of Chemistry


 Q-Chem 5.2, Q-Chem, Inc., Pleasanton, CA (2019)

 License issued to: National Energy Research Scientific Computing Center

 Yihan Shao,  Zhengting Gan,  E. Epifanovsky,  A. T. B. Gilbert,  M. Wormit,  
 J. Kussmann,  A. W. Lange,  A. Behn,  Jia Deng,  Xintian Feng,  D. Ghosh,  
 M. Goldey,  P. R. Horn,  L. D. Jacobson,  I. Kaliman,  T. Kus,  A. Landau,  
 Jie Liu,  E. I. Proynov,  R. M. Richard,  R. P. Steele,  E. J. Sundstrom,  
 H. L. Woodcock III,  P. M. Zimmerman,  D. Zuev,  B. Albrecht,  E. Alguire,  
 S. A. Baeppler,  D. Barton,  Z. Benda,  Y. A. Bernard,  E. J. Berquist,  
 K. B. Bravaya,  H. Burton,  D. Casanova,  Chun-Min Chang,  Yunqing Chen,  
 A. Chien,  K. D. Closser,  M. P. Coons,  S. Coriani,  S. Dasgupta,  
 A. L. Dempwolff,  M. Diedenhofen,  Hainam Do,  R. G. Edgar,  Po-Tung Fang,  
 S. Faraji,  S. Fatehi,  Qingguo Feng,  K. D. Fenk,  J. Fosso-Tande,  
 J. Gayvert,  Qinghui Ge,  A. Ghysels,  G. Gidofalvi,  J. Gomes,  
 J. Gonthier,  A. Gunina,  D. Hait,  M. W. D. Hanson-Heine,  
 P. H. P. Harbach,  A. W. Hauser,  M. F. Herbst,  J. E. Herr,  
 E. G. Hohenstein,  Z. C. Holden,  Kerwin Hui,  B. C. Huynh,  T.-C. Jagau,  
 Hyunjun Ji,  B. Kaduk,  K. Khistyaev,  Jaehoon Kim,  P. Klunzinger,  K. Koh,  
 D. Kosenkov,  L. Koulias,  T. Kowalczyk,  C. M. Krauter,  A. Kunitsa,  
 Ka Un Lao,  A. Laurent,  K. V. Lawler,  Joonho Lee,  D. Lefrancois,  
 S. Lehtola,  D. S. Levine,  Yi-Pei Li,  You-Sheng Lin,  Fenglai Liu,  
 E. Livshits,  A. Luenser,  P. Manohar,  E. Mansoor,  S. F. Manzer,  
 Shan-Ping Mao,  Yuezhi Mao,  N. Mardirossian,  A. V. Marenich,  
 T. Markovich,  L. A. Martinez-Martinez,  S. A. Maurer,  N. J. Mayhall,  
 S. C. McKenzie,  J.-M. Mewes,  P. Morgante,  A. F. Morrison,  
 J. W. Mullinax,  K. Nanda,  T. S. Nguyen-Beck,  R. Olivares-Amaya,  
 J. A. Parkhill,  Zheng Pei,  T. M. Perrine,  F. Plasser,  P. Pokhilko,  
 S. Prager,  A. Prociuk,  E. Ramos,  D. R. Rehn,  F. Rob,  M. Scheurer,  
 M. Schneider,  N. Sergueev,  S. M. Sharada,  S. Sharma,  D. W. Small,  
 T. Stauch,  T. Stein,  Yu-Chuan Su,  A. J. W. Thom,  A. Tkatchenko,  
 T. Tsuchimochi,  N. M. Tubman,  L. Vogt,  M. L. Vidal,  O. Vydrov,  
 M. A. Watson,  J. Wenzel,  M. de Wergifosse,  T. A. Wesolowski,  A. White,  
 J. Witte,  A. Yamada,  Jun Yang,  K. Yao,  S. Yeganeh,  S. R. Yost,  
 Zhi-Qiang You,  A. Zech,  Igor Ying Zhang,  Xing Zhang,  Yan Zhao,  
 Ying Zhu,  B. R. Brooks,  G. K. L. Chan,  C. J. Cramer,  M. S. Gordon,  
 W. J. Hehre,  A. Klamt,  M. W. Schmidt,  C. D. Sherrill,  D. G. Truhlar,  
 A. Aspuru-Guzik,  R. Baer,  A. T. Bell,  N. A. Besley,  Jeng-Da Chai,  
 A. E. DePrince, III,  R. A. DiStasio Jr.,  A. Dreuw,  B. D. Dunietz,  
 T. R. Furlani,  Chao-Ping Hsu,  Yousung Jung,  Jing Kong,  D. S. Lambrecht,  
 WanZhen Liang,  C. Ochsenfeld,  V. A. Rassolov,  L. V. Slipchenko,  
 J. E. Subotnik,  T. Van Voorhis,  J. M. Herbert,  A. I. Krylov,  
 P. M. W. Gill,  M. Head-Gordon

 Contributors to earlier versions of Q-Chem not listed above: 
 R. D. Adamson,  B. Austin,  J. Baker,  G. J. O. Beran,  K. Brandhorst,  
 S. T. Brown,  E. F. C. Byrd,  A. K. Chakraborty,  C.-L. Cheng,  
 Siu Hung Chien,  D. M. Chipman,  D. L. Crittenden,  H. Dachsel,  
 R. J. Doerksen,  A. D. Dutoi,  L. Fusti-Molnar,  W. A. Goddard III,  
 A. Golubeva-Zadorozhnaya,  S. R. Gwaltney,  G. Hawkins,  A. Heyden,  
 S. Hirata,  G. Kedziora,  F. J. Keil,  C. Kelley,  Jihan Kim,  R. A. King,  
 R. Z. Khaliullin,  P. P. Korambath,  W. Kurlancheek,  A. M. Lee,  M. S. Lee,  
 S. V. Levchenko,  Ching Yeh Lin,  D. Liotard,  R. C. Lochan,  I. Lotan,  
 P. E. Maslen,  N. Nair,  D. P. O'Neill,  D. Neuhauser,  E. Neuscamman,  
 C. M. Oana,  R. Olson,  B. Peters,  R. Peverati,  P. A. Pieniazek,  
 Y. M. Rhee,  J. Ritchie,  M. A. Rohrdanz,  E. Rosta,  N. J. Russ,  
 H. F. Schaefer III,  N. E. Schultz,  N. Shenvi,  A. C. Simmonett,  A. Sodt,  
 D. Stuck,  K. S. Thanthiriwatte,  V. Vanovschi,  Tao Wang,  A. Warshel,  
 C. F. Williams,  Q. Wu,  X. Xu,  W. Zhang

 Please cite Q-Chem as follows:
 Y. Shao et al., Mol. Phys. 113, 184-215 (2015)
 DOI: 10.1080/00268976.2014.952696

 Q-Chem 5.2.0 for Intel X86 EM64T Linux

 Parts of Q-Chem use Armadillo 8.300.2 (Tropical Shenanigans).
 http://arma.sourceforge.net/

 Q-Chem begins on Sun Sep 26 09:16:37 2021  

Host: cori01
0

     Scratch files written to /tmp/qchem41169//Frg1//
 May1019 |scratch|qcdevops|jenkins|workspace|build_RNUM -1
Processing $rem in /global/common/cori/software/qchem/5.2/config/preferences:
	 MEM_TOTAL  96000 
NAlpha2: 40
NElect   40
Mult     1
Symmetry turned off for PCM/SM12/SMD calculation

Checking the input file for inconsistencies... 	...done.

--------------------------------------------------------------
User input:
--------------------------------------------------------------
$molecule
-1 1
 6	-1.7319031234	-0.8552438552	-0.8713909008
 6	-0.9109031234	-0.6942438552	-2.1383909008
 6	-1.9469031234	0.4727561448	-0.1323909008
 8	-3.1079031234	0.9017561448	-0.0543909008
 8	-0.9839031234	1.0797561448	0.3996090992
 1	-2.6989031234	-1.2882438552	-1.1283909008
 1	-1.2549031234	-1.5772438552	-0.2093909008
 1	0.0740968766	-0.3222438552	-1.8943909008
 1	-1.3739431234	0.0443691448	-2.8092409008
 1	-0.7813031234	-1.6861238552	-2.5959609008
$end
$rem
EDA2		1
METHOD		WB97X-V
BASIS		DEF2-TZVPD
XC_GRID		000099000590
NL_GRID		1
UNRESTRICTED		FALSE
MAX_SCF_CYCLES		200
SYMMETRY		FALSE
SYM_IGNORE		TRUE
BASIS_LIN_DEP_THRESH		6
THRESH		14
SCF_CONVERGENCE		8
SCF_PRINT_FRGM		TRUE
SOLVENT_METHOD		PCM
!required keywords
JOBTYPE		SP
SYM_IGNORE		TRUE
SUBSYSTEM		TRUE
GEN_SCFMAN		TRUE
CHILD_INSTRUCTION		2
SYM_IGNORE		TRUE
SCFMI		0
RI_K 0		
PARI_K 0		
MIN_PARI_K 0		
IARI_K 0		
OCC_RI_K 0		
PURECART		1111
MEM_STATIC		2000
MEM_TOTAL		96000
GUI		0
CHILD_MP		1
CHILD_MP_ORDERS		232
FRZ_RELAX		0
FRZ_RELAX_METHOD		0
EDA_CLS_ELEC		1
EDA_CLS_DISP		0
FRZ_ORTHO_DECOMP		1
EDA2		FALSE
FRGM_METHOD		FALSE
CIS_N_ROOTS  0
LOCAL_CIS    0
CIS_RLX_DNS  1
$end
$pcm
THEORY                  CPCM
METHOD                  SWIG
SOLVER                  INVERSION
RADII                   UFF
HPOINTS                 302
HEAVYPOINTS             302
PRINTLEVEL              0
$end
$solvent
DIELECTRIC              78.390000 ! water
$end
--------------------------------------------------------------
 ----------------------------------------------------------------
             Standard Nuclear Orientation (Angstroms)
    I     Atom           X                Y                Z
 ----------------------------------------------------------------
    1      C      -1.7319031234    -0.8552438552    -0.8713909008
    2      C      -0.9109031234    -0.6942438552    -2.1383909008
    3      C      -1.9469031234     0.4727561448    -0.1323909008
    4      O      -3.1079031234     0.9017561448    -0.0543909008
    5      O      -0.9839031234     1.0797561448     0.3996090992
    6      H      -2.6989031234    -1.2882438552    -1.1283909008
    7      H      -1.2549031234    -1.5772438552    -0.2093909008
    8      H       0.0740968766    -0.3222438552    -1.8943909008
    9      H      -1.3739431234     0.0443691448    -2.8092409008
   10      H      -0.7813031234    -1.6861238552    -2.5959609008
 ----------------------------------------------------------------
 Nuclear Repulsion Energy =         168.89274508 hartrees
 There are       20 alpha and       20 beta electrons
 Requested basis set is def2-TZVPD
 There are 92 shells and 236 basis functions

 Total QAlloc Memory Limit  96000 MB
 Mega-Array Size      1956 MB
 MEM_STATIC part      2000 MB
 Discretize the solute cavity surface with Lebedev spheres
	Using 302 Lebedev grid points for each H atom
	Using 302 Lebedev grid points for other atoms
	Atomic van der Waals radii will be scaled by 1.20
 Remove points where switching function is < 1.0e-08
 Keep 1311 surface tesserae and discard 1709 interior tesserae
 Molecular Surface Area = 144.593 Angst**2

                       Distance Matrix (Angstroms)
             C (  1)   C (  2)   C (  3)   O (  4)   O (  5)   H (  6)
   C (  2)  1.518305
   C (  3)  1.534904  2.541500
   O (  4)  2.376534  3.423022  1.240180
   O (  5)  2.432934  3.097394  1.256520  2.179260
   H (  6)  1.090242  2.137728  2.158389  2.473228  3.299005
   H (  7)  1.089521  2.149201  2.165016  3.098883  2.739338  1.735862
   H (  8)  2.142955  1.080808  2.796625  3.874132  2.889187  3.034706
   H (  9)  2.166264  1.099998  2.770799  3.366144  3.394242  2.521236
   H ( 10)  2.137322  1.099997  3.476861  4.309265  4.082227  2.447296
             H (  7)   H (  8)   H (  9)
   H (  8)  2.486059
   H (  9)  3.066434  1.751621
   H ( 10)  2.435543  1.756154  1.841553
 
 A cutoff of  1.0D-14 yielded   4193 shell pairs
 There are     28043 function pairs (     35736 Cartesian)
 Smallest overlap matrix eigenvalue = 1.12E-05

 Scale SEOQF with 1.000000e-01/1.000000e-01/1.000000e-01

 Standard Electronic Orientation quadrupole field applied
 Nucleus-field energy     =     0.0000000017 hartrees
 Guess from superposition of atomic densities
 Warning:  Energy on first SCF cycle will be non-variational
 SAD guess density has 38.612942 electrons

 -----------------------------------------------------------------------
  General SCF calculation program by
  Eric Jon Sundstrom, Paul Horn, Yuezhi Mao, Dmitri Zuev, Alec White,
  David Stuck, Shaama M.S., Shane Yost, Joonho Lee, David Small,
  Daniel Levine, Susi Lehtola, Hugh Burton, Evgeny Epifanovsky
 -----------------------------------------------------------------------
 Exchange:     0.1670 Hartree-Fock + 1.0000 wB97X-V + LR-HF
 Correlation:  1.0000 wB97X-V
 Using Euler-Maclaurin-Lebedev (99,590) quadrature formula
 Nonlocal Correlation:  VV10 with C = 0.0100 and b = 6.00 and scale = 1.00000
 Grid used for NLC:  SG-1 standard quadrature
Energy prior to optimization (guess energy) = -267.071594512608
Begin Timing: Total SCF Calculation
begin iterations for algorithm: DIIS         
the SCF tolerance is set to 1.00e-08
    1    -267.0715945126      1.27e-02     00000 
    2    -263.0705842131      2.09e-02     00000 
    3    -267.7920287363      5.02e-03     00000 
    4    -267.9271179622      2.19e-03     00000 
    5    -267.9542226415      3.51e-04     00000 
    6    -267.9552945709      2.02e-04     00000 
    7    -267.9554758866      7.00e-05     00000 
    8    -267.9555023450      1.68e-05     00000 
    9    -267.9555044490      6.37e-06     00000 
   10    -267.9555047796      2.20e-06     00000 
   11    -267.9555048438      3.40e-07     00000 
   12    -267.9555048473      1.12e-07     00000 
   13    -267.9555048476      4.80e-08     00000 
   14    -267.9555048476      1.33e-08     00000 
   15    -267.9555048476      2.17e-09     00000 Convergence criterion met
Timing for Total SCF: 631.00s (wall), 1248.76s (cpu)

************** Final PCM Free Energy Summary **************
 G_electrostatic  =      -0.10148597 hartree =     -63.68340571 kcal/mol
 G_cavitation     =       0.00000000 hartree =       0.00000000 kcal/mol
 G_dispersion     =       0.00000000 hartree =       0.00000000 kcal/mol
 G_repulsion      =       0.00000000 hartree =       0.00000000 kcal/mol
 --------------------------------------------------
 Non-electrostatic Free Energy =       0.00000000 hartree =       0.00000000 kcal/mol
 Total                         =      -0.10148597 hartree =     -63.68340571 kcal/mol
 --------------------------------------------------
 SCF Energy (H0 + V/2)                       =    -267.95550485 
 Solute Internal Energy (H0)                 =    -267.85401888 
 Total Free Energy (H0 + V/2 + non-elec)     =    -267.95550485 hartree
                                             = -168144.61709845 kcal/mol
***********************************************************

E_pcm = -0.1014859674
Multipole orders to be included
        2
        3
computing dipole RHS
computing quadrupole RHS
total number of RHS in solve_reponses: 8
RHS batch sizes
        8
Beginning Block Conjugate Gradient Iterations. Batch Number: 0
computing hessian-vector products by finite difference
              1      6.76e-01     00000 Conjugate Gradient Iteration
computing hessian-vector products by finite difference
              2      2.38e-01     00000 Conjugate Gradient Iteration
computing hessian-vector products by finite difference
              3      6.38e-02     00000 Conjugate Gradient Iteration
computing hessian-vector products by finite difference
              4      1.74e-02     00000 Conjugate Gradient Iteration
computing hessian-vector products by finite difference
              5      3.14e-03     00000 Conjugate Gradient Iteration
computing hessian-vector products by finite difference
              6      6.89e-04     00000 Conjugate Gradient Iteration
computing hessian-vector products by finite difference
              7      1.16e-04     00000 Conjugate Gradient Iteration
computing hessian-vector products by finite difference
              8      1.82e-05     00000 Conjugate Gradient Iteration
computing hessian-vector products by finite difference
              9      2.81e-06     00000 Conjugate Gradient Iteration
computing hessian-vector products by finite difference
             10      4.08e-07     00000 Conjugate Gradient Iteration
computing hessian-vector products by finite difference
             11      8.01e-08     00000 Conjugate Gradient Iteration
computing hessian-vector products by finite difference
             12      1.70e-08     00000 Conjugate Gradient Iteration
computing hessian-vector products by finite difference
             13      2.71e-09     00000 CG Converged
batch 0 complete
Done Calculating Responses
TESTING ORTHOGONALIZATION OF MULTIPOLE BASIS
Multipole virts passed orthogonality test
Virts Per Order
           60
          100
 
 --------------------------------------------------------------
 
                    Orbital Energies (a.u.)
 --------------------------------------------------------------
 
 Alpha MOs
 -- Occupied --
-19.1203 -19.1197 -10.3205 -10.2471 -10.2426  -1.1334  -1.0291  -0.8849
 -0.7424  -0.5993  -0.5485  -0.5331  -0.5039  -0.4844  -0.4703  -0.4394
 -0.4268  -0.3271  -0.3224  -0.3057
 -- Virtual --
  0.0636   0.0871   0.0922   0.0963   0.1225   0.1300   0.1381   0.1437
  0.1459   0.1729   0.1848   0.1922   0.1976   0.2040   0.2219   0.2312
  0.2499   0.2637   0.2745   0.2915   0.2998   0.3011   0.3201   0.3294
  0.3409   0.3495   0.3562   0.3645   0.3682   0.3745   0.3787   0.3874
  0.4081   0.4100   0.4205   0.4255   0.4309   0.4507   0.4620   0.4668
  0.4789   0.4929   0.4991   0.5088   0.5175   0.5277   0.5378   0.5448
  0.5480   0.5581   0.5698   0.5924   0.6180   0.6211   0.6411   0.6577
  0.6585   0.6846   0.6868   0.7025   0.7143   0.7301   0.7423   0.7435
  0.7636   0.7735   0.7776   0.7908   0.7990   0.8069   0.8181   0.8225
  0.8508   0.8638   0.8831   0.8881   0.9089   0.9243   0.9876   1.0013
  1.0229   1.0539   1.0721   1.0932   1.1255   1.1585   1.1960   1.2164
  1.2337   1.2778   1.2963   1.3243   1.3285   1.3578   1.4230   1.4301
  1.4393   1.4867   1.5255   1.6162   1.6470   1.7615   1.8609   1.8736
  1.9045   1.9125   1.9297   1.9413   1.9622   1.9692   1.9907   1.9964
  2.0470   2.0615   2.0726   2.1266   2.1727   2.1891   2.2090   2.2532
  2.2937   2.3525   2.3825   2.4115   2.4717   2.4929   2.5037   2.5421
  2.5596   2.5856   2.6204   2.6449   2.6836   2.7029   2.7475   2.8025
  2.8382   2.8581   2.8912   2.9207   2.9369   2.9823   3.0515   3.0797
  3.1370   3.1457   3.2312   3.2538   3.2746   3.3047   3.3216   3.3593
  3.3762   3.3846   3.4529   3.4680   3.5144   3.5215   3.5684   3.6023
  3.6058   3.6262   3.6539   3.6839   3.6934   3.7290   3.7376   3.7860
  3.8368   3.8667   3.9776   4.0379   4.1016   4.1228   4.1970   4.2475
  4.2721   4.4386   4.5348   4.6087   4.6934   4.7530   4.7739   4.8322
  4.8916   5.0257   5.1106   5.3399   5.3648   5.3805   5.3849   5.5036
  5.7236   5.8025   5.8366   6.0507   6.2414   6.3656   6.3751   6.6303
  6.6424   6.7425   6.7666   6.7843   6.9797   7.0027   7.0617   7.2712
  7.3445   7.4108   7.4297  22.6443  22.7662  23.7778  44.2636  44.4126
 --------------------------------------------------------------
 
          Ground-State Mulliken Net Atomic Charges

     Atom                 Charge (a.u.)
  ----------------------------------------
      1 C                     0.142742
      2 C                    -0.758934
      3 C                     0.140779
      4 O                    -0.666843
      5 O                    -0.699560
      6 H                     0.122077
      7 H                     0.146655
      8 H                     0.177731
      9 H                     0.209323
     10 H                     0.186029
  ----------------------------------------
  Sum of atomic charges =    -1.000000

 -----------------------------------------------------------------
                    Cartesian Multipole Moments
 -----------------------------------------------------------------
    Charge (ESU x 10^10)
                -4.8032
    Dipole Moment (Debye)
         X       9.9978      Y      -6.2353      Z      -1.5769
       Tot      11.8879
    Quadrupole Moments (Debye-Ang)
        XX     -63.2533     XY      12.0732     YY     -39.7746
        XZ       1.5548     YZ      -2.2429     ZZ     -34.0818
    Octopole Moments (Debye-Ang^2)
       XXX     268.7302    XXY     -36.2378    XYY      69.1562
       YYY     -21.6232    XXZ      20.4595    XYZ       2.4109
       YYZ      17.7691    XZZ      55.9896    YZZ      -3.8117
       ZZZ      65.6800
    Hexadecapole Moments (Debye-Ang^3)
      XXXX   -1093.6539   XXXY     143.5055   XXYY    -193.1621
      XYYY      60.4284   YYYY    -207.8998   XXXZ     -79.0669
      XXYZ     -21.6469   XYYZ     -20.6835   YYYZ     -59.8978
      XXZZ    -177.7004   XYZZ      14.3923   YYZZ     -83.4658
      XZZZ     -74.6196   YZZZ     -63.5452   ZZZZ    -321.0366
 -----------------------------------------------------------------
Archival summary:
1\1\nid00540\SP\ProcedureUnspecified\BasisUnspecified\235(1-,1)\meili\SunSep2612:05:292021SunSep2612:05:292021\0\\#,ProcedureUnspecified,BasisUnspecified,\\-1,1\C\O,1,1.24018\O,1,1.25652,2,121.583\C,1,1.5349,2,117.432,3,178.257,0\H,4,1.08952,1,110.007,2,-122.106,0\H,4,1.09024,1,109.443,2,-6.54915,0\C,4,1.51831,1,112.692,2,114.863,0\H,7,1.08081,4,109.932,1,61.7638,0\H,7,1.1,4,108.374,1,178.714,0\H,7,1.1,4,110.641,1,-56.0413,0\\\@

 Total job time:  10133.92s(wall), 20068.22s(cpu) 
 Sun Sep 26 12:05:31 2021

        *************************************************************
        *                                                           *
        *  Thank you very much for using Q-Chem.  Have a nice day.  *
        *                                                           *
        *************************************************************


Done Job For Fragment 0
calling putenv with: QCSCRATCH=/global/cscratch1/sd/meili 
calling putenv with: QCLOCALSCR=/tmp 
calling putenv with: QCTHREADS=32 
Creating input file /tmp/qchem41169/Frg2.input
using default PutDataFrgm: nothing
calling putenv with: QCSCRATCH=/tmp/qchem41169/ 
calling putenv with: QCLOCALSCR=/tmp/qchem41169/ 
Spawning Job For Fragment 1
                  Welcome to Q-Chem
     A Quantum Leap Into The Future Of Chemistry


 Q-Chem 5.2, Q-Chem, Inc., Pleasanton, CA (2019)

 License issued to: National Energy Research Scientific Computing Center

 Yihan Shao,  Zhengting Gan,  E. Epifanovsky,  A. T. B. Gilbert,  M. Wormit,  
 J. Kussmann,  A. W. Lange,  A. Behn,  Jia Deng,  Xintian Feng,  D. Ghosh,  
 M. Goldey,  P. R. Horn,  L. D. Jacobson,  I. Kaliman,  T. Kus,  A. Landau,  
 Jie Liu,  E. I. Proynov,  R. M. Richard,  R. P. Steele,  E. J. Sundstrom,  
 H. L. Woodcock III,  P. M. Zimmerman,  D. Zuev,  B. Albrecht,  E. Alguire,  
 S. A. Baeppler,  D. Barton,  Z. Benda,  Y. A. Bernard,  E. J. Berquist,  
 K. B. Bravaya,  H. Burton,  D. Casanova,  Chun-Min Chang,  Yunqing Chen,  
 A. Chien,  K. D. Closser,  M. P. Coons,  S. Coriani,  S. Dasgupta,  
 A. L. Dempwolff,  M. Diedenhofen,  Hainam Do,  R. G. Edgar,  Po-Tung Fang,  
 S. Faraji,  S. Fatehi,  Qingguo Feng,  K. D. Fenk,  J. Fosso-Tande,  
 J. Gayvert,  Qinghui Ge,  A. Ghysels,  G. Gidofalvi,  J. Gomes,  
 J. Gonthier,  A. Gunina,  D. Hait,  M. W. D. Hanson-Heine,  
 P. H. P. Harbach,  A. W. Hauser,  M. F. Herbst,  J. E. Herr,  
 E. G. Hohenstein,  Z. C. Holden,  Kerwin Hui,  B. C. Huynh,  T.-C. Jagau,  
 Hyunjun Ji,  B. Kaduk,  K. Khistyaev,  Jaehoon Kim,  P. Klunzinger,  K. Koh,  
 D. Kosenkov,  L. Koulias,  T. Kowalczyk,  C. M. Krauter,  A. Kunitsa,  
 Ka Un Lao,  A. Laurent,  K. V. Lawler,  Joonho Lee,  D. Lefrancois,  
 S. Lehtola,  D. S. Levine,  Yi-Pei Li,  You-Sheng Lin,  Fenglai Liu,  
 E. Livshits,  A. Luenser,  P. Manohar,  E. Mansoor,  S. F. Manzer,  
 Shan-Ping Mao,  Yuezhi Mao,  N. Mardirossian,  A. V. Marenich,  
 T. Markovich,  L. A. Martinez-Martinez,  S. A. Maurer,  N. J. Mayhall,  
 S. C. McKenzie,  J.-M. Mewes,  P. Morgante,  A. F. Morrison,  
 J. W. Mullinax,  K. Nanda,  T. S. Nguyen-Beck,  R. Olivares-Amaya,  
 J. A. Parkhill,  Zheng Pei,  T. M. Perrine,  F. Plasser,  P. Pokhilko,  
 S. Prager,  A. Prociuk,  E. Ramos,  D. R. Rehn,  F. Rob,  M. Scheurer,  
 M. Schneider,  N. Sergueev,  S. M. Sharada,  S. Sharma,  D. W. Small,  
 T. Stauch,  T. Stein,  Yu-Chuan Su,  A. J. W. Thom,  A. Tkatchenko,  
 T. Tsuchimochi,  N. M. Tubman,  L. Vogt,  M. L. Vidal,  O. Vydrov,  
 M. A. Watson,  J. Wenzel,  M. de Wergifosse,  T. A. Wesolowski,  A. White,  
 J. Witte,  A. Yamada,  Jun Yang,  K. Yao,  S. Yeganeh,  S. R. Yost,  
 Zhi-Qiang You,  A. Zech,  Igor Ying Zhang,  Xing Zhang,  Yan Zhao,  
 Ying Zhu,  B. R. Brooks,  G. K. L. Chan,  C. J. Cramer,  M. S. Gordon,  
 W. J. Hehre,  A. Klamt,  M. W. Schmidt,  C. D. Sherrill,  D. G. Truhlar,  
 A. Aspuru-Guzik,  R. Baer,  A. T. Bell,  N. A. Besley,  Jeng-Da Chai,  
 A. E. DePrince, III,  R. A. DiStasio Jr.,  A. Dreuw,  B. D. Dunietz,  
 T. R. Furlani,  Chao-Ping Hsu,  Yousung Jung,  Jing Kong,  D. S. Lambrecht,  
 WanZhen Liang,  C. Ochsenfeld,  V. A. Rassolov,  L. V. Slipchenko,  
 J. E. Subotnik,  T. Van Voorhis,  J. M. Herbert,  A. I. Krylov,  
 P. M. W. Gill,  M. Head-Gordon

 Contributors to earlier versions of Q-Chem not listed above: 
 R. D. Adamson,  B. Austin,  J. Baker,  G. J. O. Beran,  K. Brandhorst,  
 S. T. Brown,  E. F. C. Byrd,  A. K. Chakraborty,  C.-L. Cheng,  
 Siu Hung Chien,  D. M. Chipman,  D. L. Crittenden,  H. Dachsel,  
 R. J. Doerksen,  A. D. Dutoi,  L. Fusti-Molnar,  W. A. Goddard III,  
 A. Golubeva-Zadorozhnaya,  S. R. Gwaltney,  G. Hawkins,  A. Heyden,  
 S. Hirata,  G. Kedziora,  F. J. Keil,  C. Kelley,  Jihan Kim,  R. A. King,  
 R. Z. Khaliullin,  P. P. Korambath,  W. Kurlancheek,  A. M. Lee,  M. S. Lee,  
 S. V. Levchenko,  Ching Yeh Lin,  D. Liotard,  R. C. Lochan,  I. Lotan,  
 P. E. Maslen,  N. Nair,  D. P. O'Neill,  D. Neuhauser,  E. Neuscamman,  
 C. M. Oana,  R. Olson,  B. Peters,  R. Peverati,  P. A. Pieniazek,  
 Y. M. Rhee,  J. Ritchie,  M. A. Rohrdanz,  E. Rosta,  N. J. Russ,  
 H. F. Schaefer III,  N. E. Schultz,  N. Shenvi,  A. C. Simmonett,  A. Sodt,  
 D. Stuck,  K. S. Thanthiriwatte,  V. Vanovschi,  Tao Wang,  A. Warshel,  
 C. F. Williams,  Q. Wu,  X. Xu,  W. Zhang

 Please cite Q-Chem as follows:
 Y. Shao et al., Mol. Phys. 113, 184-215 (2015)
 DOI: 10.1080/00268976.2014.952696

 Q-Chem 5.2.0 for Intel X86 EM64T Linux

 Parts of Q-Chem use Armadillo 8.300.2 (Tropical Shenanigans).
 http://arma.sourceforge.net/

 Q-Chem begins on Sun Sep 26 12:05:34 2021  

Host: cori01
0

     Scratch files written to /tmp/qchem41169//Frg2//
 May1019 |scratch|qcdevops|jenkins|workspace|build_RNUM -1
Processing $rem in /global/common/cori/software/qchem/5.2/config/preferences:
	 MEM_TOTAL  96000 
NAlpha2: 32
NElect   32
Mult     1
Symmetry turned off for PCM/SM12/SMD calculation

Checking the input file for inconsistencies... 	...done.

--------------------------------------------------------------
User input:
--------------------------------------------------------------
$molecule
-1 1
 6	2.4210968766	-0.8602438552	1.8796090992
 6	2.1470968766	-0.1942438552	0.6136090992
 8	1.0540968766	-0.5062438552	0.1236090992
 8	2.9660968766	0.6297561448	0.1536090992
 1	3.4650968766	-0.7982438552	2.1106090992
 1	2.2350968766	-1.9292438552	1.7336090992
 1	1.7274868766	-0.4752308552	2.6416290992
$end
$rem
EDA2		1
METHOD		WB97X-V
BASIS		DEF2-TZVPD
XC_GRID		000099000590
NL_GRID		1
UNRESTRICTED		FALSE
MAX_SCF_CYCLES		200
SYMMETRY		FALSE
SYM_IGNORE		TRUE
BASIS_LIN_DEP_THRESH		6
THRESH		14
SCF_CONVERGENCE		8
SCF_PRINT_FRGM		TRUE
SOLVENT_METHOD		PCM
!required keywords
JOBTYPE		SP
SYM_IGNORE		TRUE
SUBSYSTEM		TRUE
GEN_SCFMAN		TRUE
CHILD_INSTRUCTION		2
SYM_IGNORE		TRUE
SCFMI		0
RI_K 0		
PARI_K 0		
MIN_PARI_K 0		
IARI_K 0		
OCC_RI_K 0		
PURECART		1111
MEM_STATIC		2000
MEM_TOTAL		96000
GUI		0
CHILD_MP		1
CHILD_MP_ORDERS		232
FRZ_RELAX		0
FRZ_RELAX_METHOD		0
EDA_CLS_ELEC		1
EDA_CLS_DISP		0
FRZ_ORTHO_DECOMP		1
EDA2		FALSE
FRGM_METHOD		FALSE
CIS_N_ROOTS  0
LOCAL_CIS    0
CIS_RLX_DNS  1
$end
$pcm
THEORY                  CPCM
METHOD                  SWIG
SOLVER                  INVERSION
RADII                   UFF
HPOINTS                 302
HEAVYPOINTS             302
PRINTLEVEL              0
$end
$solvent
DIELECTRIC              78.390000 ! water
$end
--------------------------------------------------------------
 ----------------------------------------------------------------
             Standard Nuclear Orientation (Angstroms)
    I     Atom           X                Y                Z
 ----------------------------------------------------------------
    1      C       2.4210968766    -0.8602438552     1.8796090992
    2      C       2.1470968766    -0.1942438552     0.6136090992
    3      O       1.0540968766    -0.5062438552     0.1236090992
    4      O       2.9660968766     0.6297561448     0.1536090992
    5      H       3.4650968766    -0.7982438552     2.1106090992
    6      H       2.2350968766    -1.9292438552     1.7336090992
    7      H       1.7274868766    -0.4752308552     2.6416290992
 ----------------------------------------------------------------
 Nuclear Repulsion Energy =         114.67815754 hartrees
 There are       16 alpha and       16 beta electrons
 Requested basis set is def2-TZVPD
 There are 69 shells and 181 basis functions

 Total QAlloc Memory Limit  96000 MB
 Mega-Array Size      1956 MB
 MEM_STATIC part      2000 MB
 Discretize the solute cavity surface with Lebedev spheres
	Using 302 Lebedev grid points for each H atom
	Using 302 Lebedev grid points for other atoms
	Atomic van der Waals radii will be scaled by 1.20
 Remove points where switching function is < 1.0e-08
 Keep 992 surface tesserae and discard 1122 interior tesserae
 Molecular Surface Area = 118.293 Angst**2

                       Distance Matrix (Angstroms)
             C (  1)   C (  2)   O (  3)   O (  4)   H (  5)   H (  6)
   C (  2)  1.456499
   O (  3)  2.253340  1.237777
   O (  4)  2.344398  1.249535  2.224217
   H (  5)  1.071047  2.083974  3.137890  2.473466
   H (  6)  1.094839  2.066971  2.451895  3.095035  1.712948
   H (  7)  1.100002  2.089950  2.606692  2.990885  1.845429  1.787826

 
 A cutoff of  1.0D-14 yielded   2392 shell pairs
 There are     16696 function pairs (     21492 Cartesian)
 Smallest overlap matrix eigenvalue = 1.34E-05

 Scale SEOQF with 1.000000e-01/1.000000e-01/1.000000e-01

 Standard Electronic Orientation quadrupole field applied
 Nucleus-field energy     =     0.0000000027 hartrees
 Guess from superposition of atomic densities
 Warning:  Energy on first SCF cycle will be non-variational
 SAD guess density has 30.625312 electrons

 -----------------------------------------------------------------------
  General SCF calculation program by
  Eric Jon Sundstrom, Paul Horn, Yuezhi Mao, Dmitri Zuev, Alec White,
  David Stuck, Shaama M.S., Shane Yost, Joonho Lee, David Small,
  Daniel Levine, Susi Lehtola, Hugh Burton, Evgeny Epifanovsky
 -----------------------------------------------------------------------
 Exchange:     0.1670 Hartree-Fock + 1.0000 wB97X-V + LR-HF
 Correlation:  1.0000 wB97X-V
 Using Euler-Maclaurin-Lebedev (99,590) quadrature formula
 Nonlocal Correlation:  VV10 with C = 0.0100 and b = 6.00 and scale = 1.00000
 Grid used for NLC:  SG-1 standard quadrature
Energy prior to optimization (guess energy) = -227.768264642323
Begin Timing: Total SCF Calculation
begin iterations for algorithm: DIIS         
the SCF tolerance is set to 1.00e-08
    1    -227.7682646423      1.65e-02     00000 
    2    -225.6062740732      2.52e-02     00000 
    3    -228.5706682433      4.13e-03     00000 
    4    -228.6300025086      1.34e-03     00000 
    5    -228.6358313098      2.04e-04     00000 
    6    -228.6360589657      1.20e-04     00000 
    7    -228.6360975430      5.56e-05     00000 
    8    -228.6361089602      1.38e-05     00000 
    9    -228.6361102474      3.71e-06     00000 
   10    -228.6361103860      1.27e-06     00000 
   11    -228.6361104033      2.52e-07     00000 
   12    -228.6361104044      6.22e-08     00000 
   13    -228.6361104044      1.59e-08     00000 
   14    -228.6361104044      2.78e-09     00000 Convergence criterion met
Timing for Total SCF: 311.00s (wall), 614.15s (cpu)

************** Final PCM Free Energy Summary **************
 G_electrostatic  =      -0.10096527 hartree =     -63.35666449 kcal/mol
 G_cavitation     =       0.00000000 hartree =       0.00000000 kcal/mol
 G_dispersion     =       0.00000000 hartree =       0.00000000 kcal/mol
 G_repulsion      =       0.00000000 hartree =       0.00000000 kcal/mol
 --------------------------------------------------
 Non-electrostatic Free Energy =       0.00000000 hartree =       0.00000000 kcal/mol
 Total                         =      -0.10096527 hartree =     -63.35666449 kcal/mol
 --------------------------------------------------
 SCF Energy (H0 + V/2)                       =    -228.63611040 
 Solute Internal Energy (H0)                 =    -228.53514513 
 Total Free Energy (H0 + V/2 + non-elec)     =    -228.63611040 hartree
                                             = -143471.32469139 kcal/mol
***********************************************************

E_pcm = -0.1009652721
Multipole orders to be included
        2
        3
computing dipole RHS
computing quadrupole RHS
total number of RHS in solve_reponses: 8
RHS batch sizes
        8
Beginning Block Conjugate Gradient Iterations. Batch Number: 0
computing hessian-vector products by finite difference
              1      6.84e-01     00000 Conjugate Gradient Iteration
computing hessian-vector products by finite difference
              2      2.40e-01     00000 Conjugate Gradient Iteration
computing hessian-vector products by finite difference
              3      6.20e-02     00000 Conjugate Gradient Iteration
computing hessian-vector products by finite difference
              4      1.62e-02     00000 Conjugate Gradient Iteration
computing hessian-vector products by finite difference
              5      2.97e-03     00000 Conjugate Gradient Iteration
computing hessian-vector products by finite difference
              6      7.43e-04     00000 Conjugate Gradient Iteration
computing hessian-vector products by finite difference
              7      1.21e-04     00000 Conjugate Gradient Iteration
computing hessian-vector products by finite difference
              8      1.55e-05     00000 Conjugate Gradient Iteration
computing hessian-vector products by finite difference
              9      3.04e-06     00000 Conjugate Gradient Iteration
computing hessian-vector products by finite difference
             10      4.15e-07     00000 Conjugate Gradient Iteration
computing hessian-vector products by finite difference
             11      7.93e-08     00000 Conjugate Gradient Iteration
computing hessian-vector products by finite difference
             12      1.08e-08     00000 Conjugate Gradient Iteration
computing hessian-vector products by finite difference
             13      1.51e-09     00000 CG Converged
batch 0 complete
Done Calculating Responses
TESTING ORTHOGONALIZATION OF MULTIPOLE BASIS
Multipole virts passed orthogonality test
Virts Per Order
        48
        80
 
 --------------------------------------------------------------
 
                    Orbital Energies (a.u.)
 --------------------------------------------------------------
 
 Alpha MOs
 -- Occupied --
-19.1222 -19.1178 -10.3153 -10.2282  -1.1354  -1.0386  -0.8353  -0.5907
 -0.5413  -0.5204  -0.5164  -0.4612  -0.4377  -0.3311  -0.3214  -0.3105
 -- Virtual --
  0.0631   0.0951   0.0972   0.1041   0.1312   0.1412   0.1417   0.1441
  0.1717   0.1948   0.2031   0.2276   0.2301   0.2393   0.2617   0.2703
  0.3005   0.3160   0.3349   0.3443   0.3567   0.3637   0.3828   0.3850
  0.3977   0.4131   0.4223   0.4297   0.4409   0.4684   0.4744   0.4761
  0.4916   0.5028   0.5050   0.5203   0.5664   0.5869   0.6058   0.6208
  0.6242   0.6446   0.6557   0.6602   0.6754   0.6972   0.6999   0.7211
  0.7333   0.7465   0.7730   0.8046   0.8113   0.8179   0.8527   0.8725
  0.8800   0.9775   0.9910   1.0005   1.0128   1.0541   1.0712   1.1316
  1.1881   1.2295   1.2751   1.2810   1.2935   1.3233   1.3703   1.3849
  1.4597   1.5792   1.6274   1.7576   1.8425   1.8731   1.8802   1.9167
  1.9368   1.9579   1.9752   2.0028   2.0266   2.1372   2.1644   2.2058
  2.2337   2.2538   2.3490   2.3683   2.4143   2.4418   2.4808   2.5209
  2.5501   2.6114   2.6537   2.6884   2.8227   2.8485   2.8964   2.9098
  2.9808   3.0182   3.0619   3.1950   3.2334   3.2648   3.2839   3.3090
  3.3413   3.3687   3.4077   3.4480   3.5033   3.5669   3.5842   3.6047
  3.6350   3.6918   3.7184   3.7667   3.8204   3.9427   3.9945   4.1132
  4.1545   4.2396   4.4390   4.5555   4.6947   4.7373   4.7985   4.8826
  4.9781   5.3369   5.3666   5.3783   5.3993   5.5559   5.7434   5.7636
  5.8213   6.0679   6.3186   6.3399   6.3810   6.6405   6.6864   6.6955
  6.7576   6.7601   6.9735   7.0047   7.0690   7.2448   7.3862   7.4411
  7.4694  22.6789  23.8868  44.2223  44.4002
 --------------------------------------------------------------
 
          Ground-State Mulliken Net Atomic Charges

     Atom                 Charge (a.u.)
  ----------------------------------------
      1 C                    -0.351336
      2 C                     0.255229
      3 O                    -0.672584
      4 O                    -0.685876
      5 H                     0.172342
      6 H                     0.149914
      7 H                     0.132311
  ----------------------------------------
  Sum of atomic charges =    -1.000000

 -----------------------------------------------------------------
                    Cartesian Multipole Moments
 -----------------------------------------------------------------
    Charge (ESU x 10^10)
                -4.8032
    Dipole Moment (Debye)
         X      -9.3593      Y      -1.0844      Z       0.6614
       Tot       9.4451
    Quadrupole Moments (Debye-Ang)
        XX     -51.6575     XY      -6.8943     YY     -28.4433
        XZ       0.6612     YZ       0.2212     ZZ     -26.1641
    Octopole Moments (Debye-Ang^2)
       XXX    -248.4764    XXY     -16.7397    XYY     -61.3246
       YYY      20.0156    XXZ     -20.7789    XYZ      -0.5819
       YYZ     -20.6187    XZZ     -58.3870    YZZ       8.4924
       ZZZ     -60.9115
    Hexadecapole Moments (Debye-Ang^3)
      XXXX   -1099.9209   XXXY     -44.2650   XXYY    -172.1550
      XYYY      25.2134   YYYY    -101.5766   XXXZ    -147.9578
      XXYZ      10.7781   XYYZ     -48.9058   YYYZ      42.5319
      XXZZ    -186.8948   XYZZ      12.6565   YYZZ     -57.7785
      XZZZ    -150.2159   YZZZ      48.2710   ZZZZ    -233.3234
 -----------------------------------------------------------------
Archival summary:
1\1\nid00540\SP\ProcedureUnspecified\BasisUnspecified\223(1-,1)\meili\SunSep2613:29:542021SunSep2613:29:542021\0\\#,ProcedureUnspecified,BasisUnspecified,\\-1,1\C\O,1,1.23778\O,1,1.24953,2,126.817\C,1,1.4565,2,113.263,3,177.765,0\H,4,1.07105,1,110.143,2,162.972,0\H,4,1.09484,1,107.373,2,49.7208,0\H,4,1.1,1,108.873,2,-68.2525,0\\\@

 Total job time:  5062.27s(wall), 9943.12s(cpu) 
 Sun Sep 26 13:29:57 2021

        *************************************************************
        *                                                           *
        *  Thank you very much for using Q-Chem.  Have a nice day.  *
        *                                                           *
        *************************************************************


Done Job For Fragment 1
calling putenv with: QCSCRATCH=/global/cscratch1/sd/meili 
calling putenv with: QCLOCALSCR=/tmp 
calling putenv with: QCTHREADS=32 
Doing General SCFMI
 Exchange:     0.1670 Hartree-Fock + 1.0000 wB97X-V + LR-HF
 Correlation:  1.0000 wB97X-V
 Using Euler-Maclaurin-Lebedev (99,590) quadrature formula
 Nonlocal Correlation:  VV10 with C = 0.0100 and b = 6.00 and scale = 1.00000
 Grid used for NLC:  SG-1 standard quadrature
performing fock build before subrot guess so that all methods have access
Printing subrot_rss_gen Method Specification:
Occupied Subspace Method is 0
Virtual Subspace Method is 0
Energy of the unrelaxed supersystem initial determinant -496.244478752534
performing fock build before subrot guess so that all methods have access
Printing subrot_rss_gen Method Specification:
Occupied Subspace Method is 0
Virtual Subspace Method is 0
Energy of the unrelaxed supersystem initial determinant w/ solvent -496.554654900775
write pseudocanon occs and virts to disk
write pseudocanon orbital energies to disk
Tolerance of ortho_decomp_scf: 1.00e-06
GDM subspace size: 20
Beginning the Orthogonal Decomposition of the Initial Supersystem Wavefunction
    1    -496.2787214457      1.28e-01     ortho_decomp Preconditoned Steepest Descent
    2    -496.3025015303      3.23e-03     ortho_decomp BFGS Step
    3    -496.3025957635      3.05e-04     ortho_decomp BFGS Step
    4    -496.3025959939      1.39e-05     ortho_decomp BFGS Step
    5    -496.3025959949      5.60e-07     ortho_decomp 00000 Convergence criterion met
 Hartree-Fock
 Hartree-Fock
 Hartree-Fock
Doing General SCFMI
 Exchange:     0.1670 Hartree-Fock + 1.0000 wB97X-V + LR-HF
 Correlation:  1.0000 wB97X-V
 Using Euler-Maclaurin-Lebedev (99,590) quadrature formula
 Nonlocal Correlation:  VV10 with C = 0.0100 and b = 6.00 and scale = 1.00000
 Grid used for NLC:  SG-1 standard quadrature
performing fock build at end of subrot_r(subrot) constructor so that all methods have access
<S^2> of initial wavefunction before polarization iterations 0.0000000000
Beginning iterations for the determination of the polarized wavefunction
Energy prior to optimization (guess energy) = -496.554654900776
Begin Timing: Total SCF Calculation
begin iterations for algorithm: DIIS         
the SCF tolerance is set to 1.00e-08
    1    -496.5546549008      4.05e-04     00000 
    2    -496.5586216671      4.25e-04     00000 
    3    -496.5620231458      9.50e-05     00000 
    4    -496.5623528987      3.82e-05     00000 
    5    -496.5624587001      2.05e-05     00000 
    6    -496.5624867798      9.13e-06     00000 
    7    -496.5624924042      3.13e-06     00000 
    8    -496.5624933364      1.14e-06     00000 
    9    -496.5624935224      4.08e-07     00000 
   10    -496.5624935442      2.44e-07     00000 
   11    -496.5624935481      1.02e-07     00000 
   12    -496.5624935490      4.56e-08     00000 
   13    -496.5624935491      2.09e-08     00000 
   14    -496.5624935491      1.07e-08     00000 
   15    -496.5624935491      4.04e-09     00000 Convergence criterion met
write pseudocanon occs and virts to disk
write pseudocanon orbital energies to disk
Timing for Total SCF: 3000.00s (wall), 5964.16s (cpu)
<S^2> of polarized wavefunction after polarization iterations 0.0000000000
relaxing scfmi constraint to allow all rotations in the entire AO span
Doing General SCFMI
 Exchange:     0.1670 Hartree-Fock + 1.0000 wB97X-V + LR-HF
 Correlation:  1.0000 wB97X-V
 Using Euler-Maclaurin-Lebedev (99,590) quadrature formula
 Nonlocal Correlation:  VV10 with C = 0.0100 and b = 6.00 and scale = 1.00000
 Grid used for NLC:  SG-1 standard quadrature
performing fock build at end of subrot_r(subrot) constructor so that all methods have access
<S^2> of polarized wavefunction before ct-allowed iterations 0.0000000000
Beginning iterations for the determination of the CT-Allowed wavefunction
Energy prior to optimization (guess energy) = -496.562493549087
Begin Timing: Total SCF Calculation
begin iterations for algorithm: DIIS         
the SCF tolerance is set to 1.00e-08
    1    -496.5624935491      1.44e-04     00000 
    2    -496.5644830099      1.92e-05     00000 
    3    -496.5645668483      8.83e-06     00000 
    4    -496.5645719615      6.27e-06     00000 
    5    -496.5645747983      9.44e-07     00000 
    6    -496.5645748764      4.19e-07     00000 
    7    -496.5645748960      1.17e-07     00000 
    8    -496.5645748976      3.23e-08     00000 
    9    -496.5645748979      1.32e-08     00000 
   10    -496.5645748979      8.61e-09     00000 Convergence criterion met
write pseudocanon occs and virts to disk
write pseudocanon orbital energies to disk
Timing for Total SCF: 1953.00s (wall), 3880.62s (cpu)
<S^2> of ct_allowed wavefunction after ct-allowed iterations 0.0000000000

================================
        Results of EDA2         
================================
Basic EDA Quantities
--------------------
Fragment Energies (Ha):
1 -267.9555048476
2 -228.6361104044
--------------------
  E_prp (kJ/mol) = 0.0000
  E_sol (kJ/mol) = -282.8351
  E_frz (kJ/mol) = 379.8757
  E_pol (kJ/mol) = -20.5806
  E_vct (kJ/mol) = -5.4646
  E_int (kJ/mol) = 70.9953
--------------------


Initial Wavefunction Decomposition
--------------------
  --------------------
  Orthogonal Fragment Subspace Decomposition:
  --------------------
     E_elec   (ELEC)   (kJ/mol) = 221.9259
     E_pauli  (PAULI)  (kJ/mol) = 187.1107
     E_disp   (DISP)   (kJ/mol) = -29.1609
     --------------------
     Terms summing to E_pauli:
     --------------------
        E_kep_pauli       (kJ/mol) = 227.2870
        E_disp_free_pauli (kJ/mol) = -40.1764
  --------------------
  Classical Frozen Decomposition:
  --------------------
     E_cls_elec  (CLS ELEC)  (kJ/mol) = 320.5943
     E_cls_pauli (CLS PAULI) (kJ/mol) = 59.2814
    [E_mod_pauli (MOD PAULI) (kJ/mol) = 88.4422 (CLS PAULI - DISP from orthogonal decomposition) ]
  --------------------
--------------------

Simplified EDA Summary (kJ/mol)
--------------------
 PREPARATION     0.0000
 SOLVATION       -282.8351
 FROZEN          409.0365      (does not include dispersion)
[PAULI           187.1107]     (if this is negligible, then frozen describes electrostatics)
 DISPERSION      -29.1609
 POLARIZATION    -20.5806
 CHARGE TRANSFER -5.4646
 TOTAL           70.9953     (PRP + SOL + FRZ + DISP + POL + CT)
--------------------
 
 --------------------------------------------------------------
 
                    Orbital Energies (a.u.)
 --------------------------------------------------------------
 
 Alpha MOs
 -- Occupied --
-19.1094 -19.1074 -19.0948 -19.0928 -10.3033 -10.2969 -10.2257 -10.2248
-10.2204  -1.1186  -1.1159  -1.0216  -1.0097  -0.8655  -0.8256  -0.7241
 -0.5822  -0.5799  -0.5341  -0.5296  -0.5193  -0.5072  -0.4949  -0.4856
 -0.4668  -0.4545  -0.4424  -0.4261  -0.4204  -0.4074  -0.3181  -0.3113
 -0.3070  -0.3038  -0.2899  -0.2730
 -- Virtual --
  0.0622   0.0753   0.0863   0.0865   0.1036   0.1080   0.1135   0.1220
  0.1274   0.1396   0.1409   0.1459   0.1546   0.1642   0.1775   0.1843
  0.1869   0.1895   0.2027   0.2044   0.2117   0.2177   0.2288   0.2355
  0.2386   0.2540   0.2568   0.2642   0.2690   0.2722   0.2850   0.2876
  0.2942   0.3032   0.3164   0.3187   0.3224   0.3283   0.3341   0.3452
  0.3531   0.3582   0.3636   0.3651   0.3704   0.3819   0.3836   0.3867
  0.3954   0.3997   0.4027   0.4078   0.4098   0.4168   0.4172   0.4257
  0.4340   0.4431   0.4467   0.4516   0.4553   0.4632   0.4673   0.4767
  0.4800   0.4836   0.4949   0.4989   0.5037   0.5150   0.5157   0.5241
  0.5289   0.5349   0.5436   0.5496   0.5541   0.5593   0.5694   0.5745
  0.5822   0.5944   0.6019   0.6043   0.6110   0.6199   0.6234   0.6349
  0.6424   0.6599   0.6619   0.6659   0.6760   0.6825   0.6917   0.6983
  0.7030   0.7066   0.7115   0.7232   0.7304   0.7341   0.7385   0.7543
  0.7608   0.7626   0.7679   0.7800   0.7857   0.7937   0.7982   0.8012
  0.8046   0.8125   0.8206   0.8246   0.8311   0.8435   0.8475   0.8634
  0.8683   0.8753   0.8802   0.8848   0.8969   0.8988   0.9092   0.9239
  0.9378   0.9546   0.9802   0.9999   1.0151   1.0206   1.0375   1.0463
  1.0587   1.0741   1.0858   1.1049   1.1070   1.1120   1.1178   1.1475
  1.1566   1.1821   1.1909   1.2190   1.2467   1.2579   1.2641   1.2713
  1.2865   1.2997   1.3147   1.3301   1.3510   1.3705   1.3792   1.3871
  1.4031   1.4044   1.4293   1.4434   1.4525   1.4602   1.4852   1.4994
  1.5268   1.5469   1.5550   1.5759   1.6512   1.6607   1.6922   1.7435
  1.7828   1.8408   1.8956   1.9079   1.9143   1.9210   1.9448   1.9530
  1.9798   1.9821   1.9836   1.9935   2.0022   2.0114   2.0238   2.0324
  2.0372   2.0524   2.0551   2.0830   2.0935   2.0987   2.1172   2.1463
  2.1894   2.2004   2.2422   2.2434   2.2608   2.2734   2.2932   2.3082
  2.3170   2.3310   2.3685   2.3941   2.4038   2.4285   2.4547   2.4779
  2.4967   2.5098   2.5234   2.5499   2.5531   2.5712   2.5883   2.5986
  2.6048   2.6279   2.6539   2.6764   2.6803   2.7045   2.7205   2.7254
  2.7605   2.8010   2.8236   2.8515   2.8753   2.8948   2.9052   2.9262
  2.9304   2.9549   2.9749   2.9798   2.9996   3.0312   3.0527   3.0731
  3.0942   3.1287   3.1658   3.1890   3.1943   3.2477   3.2694   3.2926
  3.3189   3.3324   3.3503   3.3588   3.3611   3.3711   3.3818   3.3986
  3.4123   3.4281   3.4432   3.4476   3.4617   3.4919   3.5092   3.5307
  3.5583   3.5687   3.5804   3.6057   3.6197   3.6304   3.6413   3.6511
  3.6741   3.7078   3.7136   3.7207   3.7232   3.7397   3.7568   3.7644
  3.7780   3.8119   3.8325   3.8601   3.8931   3.9032   3.9484   3.9838
  4.0250   4.0512   4.0908   4.1395   4.1437   4.1738   4.1943   4.2470
  4.2710   4.2800   4.3134   4.4759   4.5015   4.5742   4.5798   4.6519
  4.7228   4.7336   4.7802   4.8014   4.8134   4.8822   4.9008   4.9438
  4.9747   5.0298   5.0667   5.1526   5.3564   5.3587   5.3884   5.3977
  5.4063   5.4092   5.4225   5.4473   5.5227   5.5825   5.7477   5.7752
  5.7894   5.8233   5.8515   5.8583   6.0793   6.1236   6.2667   6.3718
  6.3953   6.4181   6.4254   6.4367   6.6559   6.6732   6.6965   6.7599
  6.7852   6.7958   6.8017   6.8079   6.8254   6.8449   7.0191   7.0267
  7.0341   7.0665   7.0908   7.1177   7.2930   7.3183   7.3788   7.4252
  7.4655   7.4940   7.5000   7.5572  22.7015  22.7209  22.8923  23.8409
 23.9702  44.3450  44.3821  44.4887  44.4997
 --------------------------------------------------------------
 
          Ground-State Mulliken Net Atomic Charges

     Atom                 Charge (a.u.)
  ----------------------------------------
      1 C                     0.389342
      2 C                    -0.741526
      3 C                     0.000605
      4 O                    -0.705218
      5 O                    -0.611152
      6 H                     0.115069
      7 H                     0.077602
      8 H                     0.112827
      9 H                     0.211223
     10 H                     0.150449
     11 C                    -0.432393
     12 C                     0.231944
     13 O                    -0.513988
     14 O                    -0.738878
     15 H                     0.175015
     16 H                     0.158552
     17 H                     0.120527
  ----------------------------------------
  Sum of atomic charges =    -2.000000

 -----------------------------------------------------------------
                    Cartesian Multipole Moments
 -----------------------------------------------------------------
    Charge (ESU x 10^10)
                -9.6064
    Dipole Moment (Debye)
         X       1.0508      Y      -7.3593      Z      -0.7306
       Tot       7.4697
    Quadrupole Moments (Debye-Ang)
        XX    -121.1387     XY       5.6699     YY     -70.0470
        XZ       0.6373     YZ      -2.3971     ZZ     -62.7908
    Octopole Moments (Debye-Ang^2)
       XXX      22.1464    XXY     -54.0592    XYY       9.2559
       YYY      -1.9635    XXZ      -0.4571    XYZ       3.4722
       YYZ      -2.5902    XZZ      -0.9244    YZZ       6.2162
       ZZZ       8.2527
    Hexadecapole Moments (Debye-Ang^3)
      XXXX   -2274.3546   XXXY     102.0289   XXYY    -378.1270
      XYYY      87.8858   YYYY    -321.2908   XXXZ    -239.7252
      XXYZ     -11.5349   XYYZ     -72.4228   YYYZ     -19.6674
      XXZZ    -379.4934   XYZZ      27.5168   YYZZ    -147.4196
      XZZZ    -238.0827   YZZZ     -18.3815   ZZZZ    -582.6601
 -----------------------------------------------------------------
Archival summary:
1\1\nid00540\SP\ProcedureUnspecified\BasisUnspecified\458(2-,1)\meili\SunSep2615:43:482021SunSep2615:43:482021\0\\#,ProcedureUnspecified,BasisUnspecified,\\-2,1\O\C,1,1.23778\O,2,1.24953,1,126.817\C,2,1.4565,1,113.263,3,177.765,0\H,4,1.07105,2,110.143,1,162.972,0\H,4,1.09484,2,107.373,1,49.7208,0\H,4,1.1,2,108.873,1,-68.2525,0\H,1,2.25091,2,135.952,3,18.0111,0\C,8,1.08081,1,124.823,2,178.114,0\H,9,1.1,8,107.271,1,-95.7389,0\H,9,1.1,8,106.87,1,142.018,0\C,9,1.51831,8,109.932,1,21.8988,0\H,12,1.08952,9,109.912,8,-61.3207,0\H,12,1.09024,9,108.966,8,-176.553,0\C,12,1.5349,9,112.692,8,61.7638,0\O,15,1.24018,12,117.432,9,114.863,0\O,15,1.25652,12,120.961,9,-66.8684,0\\\@

 Total job time:  23237.01s(wall), 15982.87s(cpu) 
 Sun Sep 26 15:43:51 2021

        *************************************************************
        *                                                           *
        *  Thank you very much for using Q-Chem.  Have a nice day.  *
        *                                                           *
        *************************************************************


