
Running Job 1 of 1 SSI-123ARG-127GLN-1_SMD_TZVPD.in
qchem SSI-123ARG-127GLN-1_SMD_TZVPD.in_32431.0 /tmp/qchem32431/ 0
/global/common/cori/software/qchem/5.2/exe/qcprog.exe_s SSI-123ARG-127GLN-1_SMD_TZVPD.in_32431.0 /tmp/qchem32431/
                  Welcome to Q-Chem
     A Quantum Leap Into The Future Of Chemistry


 Q-Chem 5.2, Q-Chem, Inc., Pleasanton, CA (2019)

 License issued to: National Energy Research Scientific Computing Center

 Yihan Shao,  Zhengting Gan,  E. Epifanovsky,  A. T. B. Gilbert,  M. Wormit,  
 J. Kussmann,  A. W. Lange,  A. Behn,  Jia Deng,  Xintian Feng,  D. Ghosh,  
 M. Goldey,  P. R. Horn,  L. D. Jacobson,  I. Kaliman,  T. Kus,  A. Landau,  
 Jie Liu,  E. I. Proynov,  R. M. Richard,  R. P. Steele,  E. J. Sundstrom,  
 H. L. Woodcock III,  P. M. Zimmerman,  D. Zuev,  B. Albrecht,  E. Alguire,  
 S. A. Baeppler,  D. Barton,  Z. Benda,  Y. A. Bernard,  E. J. Berquist,  
 K. B. Bravaya,  H. Burton,  D. Casanova,  Chun-Min Chang,  Yunqing Chen,  
 A. Chien,  K. D. Closser,  M. P. Coons,  S. Coriani,  S. Dasgupta,  
 A. L. Dempwolff,  M. Diedenhofen,  Hainam Do,  R. G. Edgar,  Po-Tung Fang,  
 S. Faraji,  S. Fatehi,  Qingguo Feng,  K. D. Fenk,  J. Fosso-Tande,  
 J. Gayvert,  Qinghui Ge,  A. Ghysels,  G. Gidofalvi,  J. Gomes,  
 J. Gonthier,  A. Gunina,  D. Hait,  M. W. D. Hanson-Heine,  
 P. H. P. Harbach,  A. W. Hauser,  M. F. Herbst,  J. E. Herr,  
 E. G. Hohenstein,  Z. C. Holden,  Kerwin Hui,  B. C. Huynh,  T.-C. Jagau,  
 Hyunjun Ji,  B. Kaduk,  K. Khistyaev,  Jaehoon Kim,  P. Klunzinger,  K. Koh,  
 D. Kosenkov,  L. Koulias,  T. Kowalczyk,  C. M. Krauter,  A. Kunitsa,  
 Ka Un Lao,  A. Laurent,  K. V. Lawler,  Joonho Lee,  D. Lefrancois,  
 S. Lehtola,  D. S. Levine,  Yi-Pei Li,  You-Sheng Lin,  Fenglai Liu,  
 E. Livshits,  A. Luenser,  P. Manohar,  E. Mansoor,  S. F. Manzer,  
 Shan-Ping Mao,  Yuezhi Mao,  N. Mardirossian,  A. V. Marenich,  
 T. Markovich,  L. A. Martinez-Martinez,  S. A. Maurer,  N. J. Mayhall,  
 S. C. McKenzie,  J.-M. Mewes,  P. Morgante,  A. F. Morrison,  
 J. W. Mullinax,  K. Nanda,  T. S. Nguyen-Beck,  R. Olivares-Amaya,  
 J. A. Parkhill,  Zheng Pei,  T. M. Perrine,  F. Plasser,  P. Pokhilko,  
 S. Prager,  A. Prociuk,  E. Ramos,  D. R. Rehn,  F. Rob,  M. Scheurer,  
 M. Schneider,  N. Sergueev,  S. M. Sharada,  S. Sharma,  D. W. Small,  
 T. Stauch,  T. Stein,  Yu-Chuan Su,  A. J. W. Thom,  A. Tkatchenko,  
 T. Tsuchimochi,  N. M. Tubman,  L. Vogt,  M. L. Vidal,  O. Vydrov,  
 M. A. Watson,  J. Wenzel,  M. de Wergifosse,  T. A. Wesolowski,  A. White,  
 J. Witte,  A. Yamada,  Jun Yang,  K. Yao,  S. Yeganeh,  S. R. Yost,  
 Zhi-Qiang You,  A. Zech,  Igor Ying Zhang,  Xing Zhang,  Yan Zhao,  
 Ying Zhu,  B. R. Brooks,  G. K. L. Chan,  C. J. Cramer,  M. S. Gordon,  
 W. J. Hehre,  A. Klamt,  M. W. Schmidt,  C. D. Sherrill,  D. G. Truhlar,  
 A. Aspuru-Guzik,  R. Baer,  A. T. Bell,  N. A. Besley,  Jeng-Da Chai,  
 A. E. DePrince, III,  R. A. DiStasio Jr.,  A. Dreuw,  B. D. Dunietz,  
 T. R. Furlani,  Chao-Ping Hsu,  Yousung Jung,  Jing Kong,  D. S. Lambrecht,  
 WanZhen Liang,  C. Ochsenfeld,  V. A. Rassolov,  L. V. Slipchenko,  
 J. E. Subotnik,  T. Van Voorhis,  J. M. Herbert,  A. I. Krylov,  
 P. M. W. Gill,  M. Head-Gordon

 Contributors to earlier versions of Q-Chem not listed above: 
 R. D. Adamson,  B. Austin,  J. Baker,  G. J. O. Beran,  K. Brandhorst,  
 S. T. Brown,  E. F. C. Byrd,  A. K. Chakraborty,  C.-L. Cheng,  
 Siu Hung Chien,  D. M. Chipman,  D. L. Crittenden,  H. Dachsel,  
 R. J. Doerksen,  A. D. Dutoi,  L. Fusti-Molnar,  W. A. Goddard III,  
 A. Golubeva-Zadorozhnaya,  S. R. Gwaltney,  G. Hawkins,  A. Heyden,  
 S. Hirata,  G. Kedziora,  F. J. Keil,  C. Kelley,  Jihan Kim,  R. A. King,  
 R. Z. Khaliullin,  P. P. Korambath,  W. Kurlancheek,  A. M. Lee,  M. S. Lee,  
 S. V. Levchenko,  Ching Yeh Lin,  D. Liotard,  R. C. Lochan,  I. Lotan,  
 P. E. Maslen,  N. Nair,  D. P. O'Neill,  D. Neuhauser,  E. Neuscamman,  
 C. M. Oana,  R. Olson,  B. Peters,  R. Peverati,  P. A. Pieniazek,  
 Y. M. Rhee,  J. Ritchie,  M. A. Rohrdanz,  E. Rosta,  N. J. Russ,  
 H. F. Schaefer III,  N. E. Schultz,  N. Shenvi,  A. C. Simmonett,  A. Sodt,  
 D. Stuck,  K. S. Thanthiriwatte,  V. Vanovschi,  Tao Wang,  A. Warshel,  
 C. F. Williams,  Q. Wu,  X. Xu,  W. Zhang

 Please cite Q-Chem as follows:
 Y. Shao et al., Mol. Phys. 113, 184-215 (2015)
 DOI: 10.1080/00268976.2014.952696

 Q-Chem 5.2.0 for Intel X86 EM64T Linux

 Parts of Q-Chem use Armadillo 8.300.2 (Tropical Shenanigans).
 http://arma.sourceforge.net/

 Q-Chem begins on Sun Sep 26 14:09:36 2021  

Host: cori01
0

     Scratch files written to /tmp/qchem32431//
 May1019 |scratch|qcdevops|jenkins|workspace|build_RNUM -1
Processing $rem in /global/common/cori/software/qchem/5.2/config/preferences:
	 MEM_TOTAL  96000 
NAlpha2: 88
NElect   88
Mult     1
Symmetry turned off for PCM/SM12/SMD calculation

 Q-Chem warning in module libgen/rem_setup.C, line 2803:

 Neither GIA nor STOLL is specified by user. Use STOLL as the default


Checking the input file for inconsistencies... 	...done.

--------------------------------------------------------------
User input:
--------------------------------------------------------------
$comment
SSI-123ARG-127GLN-1.pdb
$end

$molecule
1 1
--
1 1
C    1.158688233338    1.462214944230    0.130302276052
C    2.139688233338    1.618214944230   -1.055697723948
C    0.998688233338   -0.012785055770    2.082302276052
N    1.738688233338    0.659214944230    1.198302276052
N   -0.324311766662    0.029214944230    2.038302276052
N    1.587688233338   -0.736785055770    3.020302276052
H    0.874688233338    2.446214944230    0.499302276052
H    0.305688233338    0.946214944230   -0.276697723948
H    3.005688233338    2.162214944230   -0.676697723948
H    1.666688233338    2.229214944230   -1.825697723948
H    2.752688233338    0.626214944230    1.289302276052
H   -0.791311766662    0.732214944230    1.495302276052
H   -0.867311766662   -0.537785055770    2.675302276052
H    2.593688233338   -0.824785055770    3.028302276052
H    1.043688233338   -1.283785055770    3.671302276052
H    2.459828233338    0.662064944230   -1.495357723948
--
0 1
C   -1.945311766662    0.366214944230   -1.294697723948
C   -1.627311766662    1.059214944230   -2.613697723948
C   -1.362311766662   -1.035785055770   -1.246697723948
O   -0.401311766662   -1.354785055770   -1.941697723948
N   -1.952311766662   -1.891785055770   -0.427697723948
H   -1.683311766662    0.976214944230   -0.436697723948
H   -3.028311766662    0.238214944230   -1.233697723948
H   -1.407311766662    0.283214944230   -3.346697723948
H   -0.681311766662    1.574214944230   -2.578697723948
H   -1.596311766662   -2.836785055770   -0.388697723948
H   -2.765311766662   -1.630785055770    0.111302276052
H   -2.503661766662    1.530764944230   -3.082377723948
$end

$rem
JOBTYPE			EDA
EDA2			1
method			wB97X-V
BASIS			def2-TZVPD
XC_GRID			000099000590
NL_GRID			1
UNRESTRICTED		FALSE
MAX_SCF_CYCLES		200
SYMMETRY		FALSE
SYM_IGNORE		TRUE
MEM_STATIC		2000
BASIS_LIN_DEP_THRESH 	6
THRESH 			14
SCF_CONVERGENCE 	8
SCF_PRINT_FRGM 		TRUE
SOLVENT_METHOD          SMD
$end

$SMX
SOLVENT			WATER
$END
--------------------------------------------------------------
 ----------------------------------------------------------------
             Standard Nuclear Orientation (Angstroms)
    I     Atom           X                Y                Z
 ----------------------------------------------------------------
    1      C       1.1586882333     1.4622149442     0.1303022761
    2      C       2.1396882333     1.6182149442    -1.0556977239
    3      C       0.9986882333    -0.0127850558     2.0823022761
    4      N       1.7386882333     0.6592149442     1.1983022761
    5      N      -0.3243117667     0.0292149442     2.0383022761
    6      N       1.5876882333    -0.7367850558     3.0203022761
    7      H       0.8746882333     2.4462149442     0.4993022761
    8      H       0.3056882333     0.9462149442    -0.2766977239
    9      H       3.0056882333     2.1622149442    -0.6766977239
   10      H       1.6666882333     2.2292149442    -1.8256977239
   11      H       2.7526882333     0.6262149442     1.2893022761
   12      H      -0.7913117667     0.7322149442     1.4953022761
   13      H      -0.8673117667    -0.5377850558     2.6753022761
   14      H       2.5936882333    -0.8247850558     3.0283022761
   15      H       1.0436882333    -1.2837850558     3.6713022761
   16      H       2.4598282333     0.6620649442    -1.4953577239
   17      C      -1.9453117667     0.3662149442    -1.2946977239
   18      C      -1.6273117667     1.0592149442    -2.6136977239
   19      C      -1.3623117667    -1.0357850558    -1.2466977239
   20      O      -0.4013117667    -1.3547850558    -1.9416977239
   21      N      -1.9523117667    -1.8917850558    -0.4276977239
   22      H      -1.6833117667     0.9762149442    -0.4366977239
   23      H      -3.0283117667     0.2382149442    -1.2336977239
   24      H      -1.4073117667     0.2832149442    -3.3466977239
   25      H      -0.6813117667     1.5742149442    -2.5786977239
   26      H      -1.5963117667    -2.8367850558    -0.3886977239
   27      H      -2.7653117667    -1.6307850558     0.1113022761
   28      H      -2.5036617667     1.5307649442    -3.0823777239
 ----------------------------------------------------------------
 Nuclear Repulsion Energy =         667.39178341 hartrees
 There are       44 alpha and       44 beta electrons
 Requested basis set is def2-TZVPD
 There are 229 shells and 563 basis functions

 Total QAlloc Memory Limit  96000 MB
 Mega-Array Size      1956 MB
 MEM_STATIC part      2000 MB
 
 Citation of the SMD model:
 Marenich, A.V.; Cramer, C.J.; Truhlar, D.G.
 J. Phys. Chem. B 2009, 113, 6378-6396.
 iSolventCode=           1
 Solvent: water                                                           
 
 vradii
            1           2           3           4           5           6
    1   1.8500000   1.8500000   1.8500000   1.8900000   1.8900000   1.8900000
            7           8           9          10          11          12
    1   1.2000000   1.2000000   1.2000000   1.2000000   1.2000000   1.2000000
           13          14          15          16          17          18
    1   1.2000000   1.2000000   1.2000000   1.2000000   1.8500000   1.8500000
           19          20          21          22          23          24
    1   1.8500000   1.5200000   1.8900000   1.2000000   1.2000000   1.2000000
           25          26          27          28
    1   1.2000000   1.2000000   1.2000000   1.2000000
 Changing PCM_VDW_RADII to SMD_RADIUS
 Discretize the solute cavity surface with Lebedev spheres
	Using 110 Lebedev grid points for each H atom
	Using 194 Lebedev grid points for other atoms
	Atomic van der Waals radii will be scaled by 1.20
 Remove points where switching function is < 1.0e-08
 Keep 1993 surface tesserae and discard 2011 interior tesserae
 Molecular Surface Area = 230.565 Angst**2
 A cutoff of  1.0D-14 yielded  23613 shell pairs
 There are    144019 function pairs (    179129 Cartesian)
 Smallest overlap matrix eigenvalue = 7.77E-07
 Linear dependence detected in AO basis
 Tighter screening thresholds may be required for diffuse basis sets
 Use S2THRESH > 14 and THRESH = 14 in case of SCF convergence issues
 Number of orthogonalized atomic orbitals = 562
 Maximum deviation from orthogonality = 8.281E-11

 Scale SEOQF with 1.000000e-01/1.000000e-01/1.000000e-01

 Standard Electronic Orientation quadrupole field applied
 Nucleus-field energy     =    -0.0000000148 hartrees

 -----------------------------------------------------------------------
  General SCF calculation program by
  Eric Jon Sundstrom, Paul Horn, Yuezhi Mao, Dmitri Zuev, Alec White,
  David Stuck, Shaama M.S., Shane Yost, Joonho Lee, David Small,
  Daniel Levine, Susi Lehtola, Hugh Burton, Evgeny Epifanovsky
 -----------------------------------------------------------------------
================================================================
                 ALMO-EDA with the EDA2 driver                  
================================================================
 The second-generation ALMO-EDA (for DFT):                      
 P. R. Horn, Y. Mao and M. Head-Gordon, PCCP, 18, 23067 (2016)  
 Decomposition of the frozen energy:                            
 P. R. Horn, Y. Mao and M. Head-Gordon, JCP, 144, 114107 (2016) 
 FERF model for polarization:                                   
 P. R. Horn and M. Head-Gordon, JCP, 143, 114111 (2015)         
Using eda2 option set 1
Option set summary: Frozen orbital wavefunction, initial wavefunction decomposition, and nDQ polarization.
--------------------------------
Printing EDA Options
--------------------------------
eda_child_super_basis      0
fragmo_guess_mode          0
child_mp                   1
child_mp_orders            232
cls_elec                   1
cls_disp                   0
scfmi_mode                 1
scfmi_occs                 0
scfmi_virts                0
frz_relax                  0
frz_relax_method           0
dc_pen_start               0
dc_pen_conv                0
dc_pen_increment           0
dc_pen_steps               0
dc_pen_thresh_factor       0
dc_pen_pre_newton_thresh   0
frz_ortho_decomp           1
frz_ortho_decomp_conv      6
frgm_method                2
scfmi_freeze_ss            0
separate_rehyb             0
plot_diff_den              0
eda_nocv                   0
eda_vct_relax              1
disp_free_x                0
disp_free_c                0
eda_bsse                   0
eda_pct_a                  0
eda_covp                   0
--------------------------------
Attempting to make child job directory: /tmp/qchem32431//Frg1/
Attempting to make child job directory: /tmp/qchem32431//Frg2/
Creating input file /tmp/qchem32431/Frg1.input
using default PutDataFrgm: nothing
calling putenv with: QCSCRATCH=/tmp/qchem32431/ 
calling putenv with: QCLOCALSCR=/tmp/qchem32431/ 
Spawning Job For Fragment 0
                  Welcome to Q-Chem
     A Quantum Leap Into The Future Of Chemistry


 Q-Chem 5.2, Q-Chem, Inc., Pleasanton, CA (2019)

 License issued to: National Energy Research Scientific Computing Center

 Yihan Shao,  Zhengting Gan,  E. Epifanovsky,  A. T. B. Gilbert,  M. Wormit,  
 J. Kussmann,  A. W. Lange,  A. Behn,  Jia Deng,  Xintian Feng,  D. Ghosh,  
 M. Goldey,  P. R. Horn,  L. D. Jacobson,  I. Kaliman,  T. Kus,  A. Landau,  
 Jie Liu,  E. I. Proynov,  R. M. Richard,  R. P. Steele,  E. J. Sundstrom,  
 H. L. Woodcock III,  P. M. Zimmerman,  D. Zuev,  B. Albrecht,  E. Alguire,  
 S. A. Baeppler,  D. Barton,  Z. Benda,  Y. A. Bernard,  E. J. Berquist,  
 K. B. Bravaya,  H. Burton,  D. Casanova,  Chun-Min Chang,  Yunqing Chen,  
 A. Chien,  K. D. Closser,  M. P. Coons,  S. Coriani,  S. Dasgupta,  
 A. L. Dempwolff,  M. Diedenhofen,  Hainam Do,  R. G. Edgar,  Po-Tung Fang,  
 S. Faraji,  S. Fatehi,  Qingguo Feng,  K. D. Fenk,  J. Fosso-Tande,  
 J. Gayvert,  Qinghui Ge,  A. Ghysels,  G. Gidofalvi,  J. Gomes,  
 J. Gonthier,  A. Gunina,  D. Hait,  M. W. D. Hanson-Heine,  
 P. H. P. Harbach,  A. W. Hauser,  M. F. Herbst,  J. E. Herr,  
 E. G. Hohenstein,  Z. C. Holden,  Kerwin Hui,  B. C. Huynh,  T.-C. Jagau,  
 Hyunjun Ji,  B. Kaduk,  K. Khistyaev,  Jaehoon Kim,  P. Klunzinger,  K. Koh,  
 D. Kosenkov,  L. Koulias,  T. Kowalczyk,  C. M. Krauter,  A. Kunitsa,  
 Ka Un Lao,  A. Laurent,  K. V. Lawler,  Joonho Lee,  D. Lefrancois,  
 S. Lehtola,  D. S. Levine,  Yi-Pei Li,  You-Sheng Lin,  Fenglai Liu,  
 E. Livshits,  A. Luenser,  P. Manohar,  E. Mansoor,  S. F. Manzer,  
 Shan-Ping Mao,  Yuezhi Mao,  N. Mardirossian,  A. V. Marenich,  
 T. Markovich,  L. A. Martinez-Martinez,  S. A. Maurer,  N. J. Mayhall,  
 S. C. McKenzie,  J.-M. Mewes,  P. Morgante,  A. F. Morrison,  
 J. W. Mullinax,  K. Nanda,  T. S. Nguyen-Beck,  R. Olivares-Amaya,  
 J. A. Parkhill,  Zheng Pei,  T. M. Perrine,  F. Plasser,  P. Pokhilko,  
 S. Prager,  A. Prociuk,  E. Ramos,  D. R. Rehn,  F. Rob,  M. Scheurer,  
 M. Schneider,  N. Sergueev,  S. M. Sharada,  S. Sharma,  D. W. Small,  
 T. Stauch,  T. Stein,  Yu-Chuan Su,  A. J. W. Thom,  A. Tkatchenko,  
 T. Tsuchimochi,  N. M. Tubman,  L. Vogt,  M. L. Vidal,  O. Vydrov,  
 M. A. Watson,  J. Wenzel,  M. de Wergifosse,  T. A. Wesolowski,  A. White,  
 J. Witte,  A. Yamada,  Jun Yang,  K. Yao,  S. Yeganeh,  S. R. Yost,  
 Zhi-Qiang You,  A. Zech,  Igor Ying Zhang,  Xing Zhang,  Yan Zhao,  
 Ying Zhu,  B. R. Brooks,  G. K. L. Chan,  C. J. Cramer,  M. S. Gordon,  
 W. J. Hehre,  A. Klamt,  M. W. Schmidt,  C. D. Sherrill,  D. G. Truhlar,  
 A. Aspuru-Guzik,  R. Baer,  A. T. Bell,  N. A. Besley,  Jeng-Da Chai,  
 A. E. DePrince, III,  R. A. DiStasio Jr.,  A. Dreuw,  B. D. Dunietz,  
 T. R. Furlani,  Chao-Ping Hsu,  Yousung Jung,  Jing Kong,  D. S. Lambrecht,  
 WanZhen Liang,  C. Ochsenfeld,  V. A. Rassolov,  L. V. Slipchenko,  
 J. E. Subotnik,  T. Van Voorhis,  J. M. Herbert,  A. I. Krylov,  
 P. M. W. Gill,  M. Head-Gordon

 Contributors to earlier versions of Q-Chem not listed above: 
 R. D. Adamson,  B. Austin,  J. Baker,  G. J. O. Beran,  K. Brandhorst,  
 S. T. Brown,  E. F. C. Byrd,  A. K. Chakraborty,  C.-L. Cheng,  
 Siu Hung Chien,  D. M. Chipman,  D. L. Crittenden,  H. Dachsel,  
 R. J. Doerksen,  A. D. Dutoi,  L. Fusti-Molnar,  W. A. Goddard III,  
 A. Golubeva-Zadorozhnaya,  S. R. Gwaltney,  G. Hawkins,  A. Heyden,  
 S. Hirata,  G. Kedziora,  F. J. Keil,  C. Kelley,  Jihan Kim,  R. A. King,  
 R. Z. Khaliullin,  P. P. Korambath,  W. Kurlancheek,  A. M. Lee,  M. S. Lee,  
 S. V. Levchenko,  Ching Yeh Lin,  D. Liotard,  R. C. Lochan,  I. Lotan,  
 P. E. Maslen,  N. Nair,  D. P. O'Neill,  D. Neuhauser,  E. Neuscamman,  
 C. M. Oana,  R. Olson,  B. Peters,  R. Peverati,  P. A. Pieniazek,  
 Y. M. Rhee,  J. Ritchie,  M. A. Rohrdanz,  E. Rosta,  N. J. Russ,  
 H. F. Schaefer III,  N. E. Schultz,  N. Shenvi,  A. C. Simmonett,  A. Sodt,  
 D. Stuck,  K. S. Thanthiriwatte,  V. Vanovschi,  Tao Wang,  A. Warshel,  
 C. F. Williams,  Q. Wu,  X. Xu,  W. Zhang

 Please cite Q-Chem as follows:
 Y. Shao et al., Mol. Phys. 113, 184-215 (2015)
 DOI: 10.1080/00268976.2014.952696

 Q-Chem 5.2.0 for Intel X86 EM64T Linux

 Parts of Q-Chem use Armadillo 8.300.2 (Tropical Shenanigans).
 http://arma.sourceforge.net/

 Q-Chem begins on Sun Sep 26 14:09:40 2021  

Host: cori01
0

     Scratch files written to /tmp/qchem32431//Frg1//
 May1019 |scratch|qcdevops|jenkins|workspace|build_RNUM -1
Processing $rem in /global/common/cori/software/qchem/5.2/config/preferences:
	 MEM_TOTAL  96000 
NAlpha2: 48
NElect   48
Mult     1
Symmetry turned off for PCM/SM12/SMD calculation

Checking the input file for inconsistencies... 	...done.

--------------------------------------------------------------
User input:
--------------------------------------------------------------
$molecule
1 1
 6	1.1586882333	1.4622149442	0.1303022761
 6	2.1396882333	1.6182149442	-1.0556977239
 6	0.9986882333	-0.0127850558	2.0823022761
 7	1.7386882333	0.6592149442	1.1983022761
 7	-0.3243117667	0.0292149442	2.0383022761
 7	1.5876882333	-0.7367850558	3.0203022761
 1	0.8746882333	2.4462149442	0.4993022761
 1	0.3056882333	0.9462149442	-0.2766977239
 1	3.0056882333	2.1622149442	-0.6766977239
 1	1.6666882333	2.2292149442	-1.8256977239
 1	2.7526882333	0.6262149442	1.2893022761
 1	-0.7913117667	0.7322149442	1.4953022761
 1	-0.8673117667	-0.5377850558	2.6753022761
 1	2.5936882333	-0.8247850558	3.0283022761
 1	1.0436882333	-1.2837850558	3.6713022761
 1	2.4598282333	0.6620649442	-1.4953577239
$end
$rem
EDA2		1
METHOD		WB97X-V
BASIS		DEF2-TZVPD
XC_GRID		000099000590
NL_GRID		1
UNRESTRICTED		FALSE
MAX_SCF_CYCLES		200
SYMMETRY		FALSE
SYM_IGNORE		TRUE
BASIS_LIN_DEP_THRESH		6
THRESH		14
SCF_CONVERGENCE		8
SCF_PRINT_FRGM		TRUE
SOLVENT_METHOD		SMD
!required keywords
JOBTYPE		SP
SYM_IGNORE		TRUE
SUBSYSTEM		TRUE
GEN_SCFMAN		TRUE
CHILD_INSTRUCTION		2
SYM_IGNORE		TRUE
SCFMI		0
RI_K 0		
PARI_K 0		
MIN_PARI_K 0		
IARI_K 0		
OCC_RI_K 0		
PURECART		1111
MEM_STATIC		2000
MEM_TOTAL		96000
GUI		0
CHILD_MP		1
CHILD_MP_ORDERS		232
FRZ_RELAX		0
FRZ_RELAX_METHOD		0
EDA_CLS_ELEC		1
EDA_CLS_DISP		0
FRZ_ORTHO_DECOMP		1
EDA2		FALSE
FRGM_METHOD		FALSE
CIS_N_ROOTS  0
LOCAL_CIS    0
CIS_RLX_DNS  1
$end
$smx
SOLVENT			WATER
$end
--------------------------------------------------------------
 ----------------------------------------------------------------
             Standard Nuclear Orientation (Angstroms)
    I     Atom           X                Y                Z
 ----------------------------------------------------------------
    1      C       1.1586882333     1.4622149442     0.1303022761
    2      C       2.1396882333     1.6182149442    -1.0556977239
    3      C       0.9986882333    -0.0127850558     2.0823022761
    4      N       1.7386882333     0.6592149442     1.1983022761
    5      N      -0.3243117667     0.0292149442     2.0383022761
    6      N       1.5876882333    -0.7367850558     3.0203022761
    7      H       0.8746882333     2.4462149442     0.4993022761
    8      H       0.3056882333     0.9462149442    -0.2766977239
    9      H       3.0056882333     2.1622149442    -0.6766977239
   10      H       1.6666882333     2.2292149442    -1.8256977239
   11      H       2.7526882333     0.6262149442     1.2893022761
   12      H      -0.7913117667     0.7322149442     1.4953022761
   13      H      -0.8673117667    -0.5377850558     2.6753022761
   14      H       2.5936882333    -0.8247850558     3.0283022761
   15      H       1.0436882333    -1.2837850558     3.6713022761
   16      H       2.4598282333     0.6620649442    -1.4953577239
 ----------------------------------------------------------------
 Nuclear Repulsion Energy =         256.13588169 hartrees
 There are       24 alpha and       24 beta electrons
 Requested basis set is def2-TZVPD
 There are 128 shells and 312 basis functions

 Total QAlloc Memory Limit  96000 MB
 Mega-Array Size      1956 MB
 MEM_STATIC part      2000 MB
 
 Citation of the SMD model:
 Marenich, A.V.; Cramer, C.J.; Truhlar, D.G.
 J. Phys. Chem. B 2009, 113, 6378-6396.
 iSolventCode=           1
 Solvent: water                                                           
 
 vradii
            1           2           3           4           5           6
    1   1.8500000   1.8500000   1.8500000   1.8900000   1.8900000   1.8900000
            7           8           9          10          11          12
    1   1.2000000   1.2000000   1.2000000   1.2000000   1.2000000   1.2000000
           13          14          15          16
    1   1.2000000   1.2000000   1.2000000   1.2000000
 Changing PCM_VDW_RADII to SMD_RADIUS
 Discretize the solute cavity surface with Lebedev spheres
	Using 110 Lebedev grid points for each H atom
	Using 194 Lebedev grid points for other atoms
	Atomic van der Waals radii will be scaled by 1.20
 Remove points where switching function is < 1.0e-08
 Keep 1110 surface tesserae and discard 1154 interior tesserae
 Molecular Surface Area = 133.838 Angst**2
 A cutoff of  1.0D-14 yielded   7892 shell pairs
 There are     47548 function pairs (     59255 Cartesian)
 Smallest overlap matrix eigenvalue = 9.74E-06

 Scale SEOQF with 1.000000e-01/1.000000e-01/1.000000e-01

 Standard Electronic Orientation quadrupole field applied
 Nucleus-field energy     =    -0.0000000107 hartrees
 Guess from superposition of atomic densities
 Warning:  Energy on first SCF cycle will be non-variational
 SAD guess density has 48.375862 electrons

 -----------------------------------------------------------------------
  General SCF calculation program by
  Eric Jon Sundstrom, Paul Horn, Yuezhi Mao, Dmitri Zuev, Alec White,
  David Stuck, Shaama M.S., Shane Yost, Joonho Lee, David Small,
  Daniel Levine, Susi Lehtola, Hugh Burton, Evgeny Epifanovsky
 -----------------------------------------------------------------------
 Exchange:     0.1670 Hartree-Fock + 1.0000 wB97X-V + LR-HF
 Correlation:  1.0000 wB97X-V
 Using Euler-Maclaurin-Lebedev (99,590) quadrature formula
 Nonlocal Correlation:  VV10 with C = 0.0100 and b = 6.00 and scale = 1.00000
 Grid used for NLC:  SG-1 standard quadrature
Energy prior to optimization (guess energy) = -284.036050464589
Begin Timing: Total SCF Calculation
begin iterations for algorithm: DIIS         
the SCF tolerance is set to 1.00e-08
    1    -284.0360504646      6.60e-03     00000 
    2    -284.2771615453      5.20e-03     00000 
    3    -284.5234185033      3.15e-04     00000 
    4    -284.5247496576      1.62e-04     00000 
    5    -284.5250799330      4.60e-05     00000 
    6    -284.5251085822      1.93e-05     00000 
    7    -284.5251135324      3.49e-06     00000 
    8    -284.5251138803      1.00e-06     00000 
    9    -284.5251139063      4.53e-07     00000 
   10    -284.5251139116      1.10e-07     00000 
   11    -284.5251139121      3.84e-08     00000 
   12    -284.5251139122      1.74e-08     00000 
   13    -284.5251139122      2.52e-09     00000 Convergence criterion met
Timing for Total SCF: 1201.00s (wall), 2386.93s (cpu)
(3)  G-ENP(liq) elect-nuc-pol free energy of system     -284.525113912 a.u.
(4)  G-CDS(liq) cavity-dispersion-solvent structure 
     free energy                                                2.8896 kcal/mol
(6)  G-S(liq) free energy of system                     -284.520509002 a.u.
E_pcm = -0.1067974480
E_cds = 0.0046049105
Multipole orders to be included
        2
        3
computing dipole RHS
computing quadrupole RHS
total number of RHS in solve_reponses: 8
RHS batch sizes
        8
Beginning Block Conjugate Gradient Iterations. Batch Number: 0
computing hessian-vector products by finite difference
              1      4.86e-01     00000 Conjugate Gradient Iteration
computing hessian-vector products by finite difference
              2      1.87e-01     00000 Conjugate Gradient Iteration
computing hessian-vector products by finite difference
              3      5.02e-02     00000 Conjugate Gradient Iteration
computing hessian-vector products by finite difference
              4      1.34e-02     00000 Conjugate Gradient Iteration
computing hessian-vector products by finite difference
              5      1.82e-03     00000 Conjugate Gradient Iteration
computing hessian-vector products by finite difference
              6      2.96e-04     00000 Conjugate Gradient Iteration
computing hessian-vector products by finite difference
              7      4.61e-05     00000 Conjugate Gradient Iteration
computing hessian-vector products by finite difference
              8      6.82e-06     00000 Conjugate Gradient Iteration
computing hessian-vector products by finite difference
              9      1.10e-06     00000 Conjugate Gradient Iteration
computing hessian-vector products by finite difference
             10      1.54e-07     00000 Conjugate Gradient Iteration
computing hessian-vector products by finite difference
             11      1.84e-08     00000 Conjugate Gradient Iteration
computing hessian-vector products by finite difference
             12      2.69e-09     00000 CG Converged
batch 0 complete
Done Calculating Responses
TESTING ORTHOGONALIZATION OF MULTIPOLE BASIS
Multipole virts passed orthogonality test
Virts Per Order
           72
          120
 
 --------------------------------------------------------------
 
                    Orbital Energies (a.u.)
 --------------------------------------------------------------
 
 Alpha MOs
 -- Occupied --
-14.4542 -14.4480 -14.4460 -10.4244 -10.3080 -10.2609  -1.1708  -1.0571
 -1.0411  -0.8938  -0.7834  -0.7570  -0.7188  -0.6814  -0.6192  -0.6122
 -0.5991  -0.5750  -0.5492  -0.4939  -0.4788  -0.4575  -0.3996  -0.3754
 -- Virtual --
  0.0599   0.0827   0.0886   0.0997   0.1109   0.1215   0.1276   0.1343
  0.1552   0.1647   0.1700   0.1862   0.1926   0.1982   0.2073   0.2145
  0.2181   0.2281   0.2330   0.2435   0.2587   0.2611   0.2643   0.2736
  0.2777   0.2856   0.2950   0.3009   0.3035   0.3210   0.3275   0.3306
  0.3363   0.3470   0.3499   0.3520   0.3576   0.3651   0.3670   0.3750
  0.3821   0.3882   0.3946   0.4034   0.4056   0.4113   0.4218   0.4256
  0.4361   0.4406   0.4583   0.4651   0.4655   0.4731   0.4773   0.4845
  0.4940   0.5019   0.5089   0.5165   0.5203   0.5288   0.5309   0.5399
  0.5436   0.5533   0.5590   0.5677   0.5762   0.5791   0.5827   0.5958
  0.6107   0.6219   0.6304   0.6421   0.6507   0.6664   0.6680   0.6823
  0.6990   0.7024   0.7231   0.7390   0.7425   0.7651   0.7740   0.7842
  0.7893   0.7934   0.7997   0.8152   0.8240   0.8295   0.8423   0.8467
  0.8547   0.8783   0.8843   0.8997   0.9146   0.9209   0.9348   0.9447
  0.9570   0.9755   0.9968   1.0097   1.0331   1.0376   1.0774   1.0845
  1.1004   1.1028   1.1236   1.1437   1.1641   1.1716   1.1797   1.2087
  1.2099   1.2667   1.2808   1.3018   1.3431   1.3698   1.3826   1.4137
  1.4438   1.4641   1.4731   1.4952   1.5188   1.5393   1.5749   1.6164
  1.6601   1.6844   1.7130   1.7276   1.7559   1.8121   1.8473   1.8761
  1.8809   1.8960   1.9196   1.9258   1.9344   1.9559   1.9668   1.9870
  1.9996   2.0191   2.0357   2.0463   2.0748   2.0935   2.1167   2.1419
  2.2021   2.2149   2.2262   2.2462   2.2595   2.2750   2.2958   2.3700
  2.3962   2.4044   2.4333   2.4585   2.4627   2.5044   2.5216   2.5402
  2.5690   2.5943   2.6354   2.6486   2.6532   2.6768   2.6867   2.6916
  2.7222   2.7389   2.7742   2.8207   2.8403   2.8483   2.8966   2.9012
  2.9125   2.9241   2.9550   2.9698   2.9971   3.0485   3.0991   3.1338
  3.1512   3.1684   3.1776   3.1983   3.2131   3.2562   3.2774   3.2909
  3.3204   3.3367   3.3458   3.3609   3.3825   3.3967   3.4148   3.4325
  3.4661   3.4983   3.5312   3.5628   3.5829   3.6054   3.6144   3.6467
  3.6491   3.7320   3.7546   3.8091   3.8752   3.9186   3.9434   3.9627
  4.0237   4.0826   4.0898   4.1109   4.1747   4.2109   4.2540   4.3144
  4.3526   4.3849   4.4231   4.4834   4.5255   4.5829   4.6177   4.6324
  4.6956   4.8006   4.8557   4.8824   4.8828   4.9446   4.9778   5.0080
  5.0400   5.0754   5.1225   5.1394   5.1532   5.1961   5.2243   5.2344
  5.3081   5.3710   5.3879   5.4082   5.4630   5.4773   5.5018   5.5360
  5.6064   5.6614   5.7136   5.8057   5.8385   5.9181   6.1589   6.1936
  6.3904   6.4579  22.6091  22.8532  23.6263  32.3406  32.4994  32.8971
 --------------------------------------------------------------
 
          Ground-State Mulliken Net Atomic Charges

     Atom                 Charge (a.u.)
  ----------------------------------------
      1 C                    -0.338977
      2 C                    -1.025319
      3 C                     0.386759
      4 N                    -0.083685
      5 N                    -0.289900
      6 N                    -0.296710
      7 H                     0.255732
      8 H                     0.309212
      9 H                     0.254782
     10 H                     0.275517
     11 H                     0.293722
     12 H                     0.227196
     13 H                     0.243199
     14 H                     0.250793
     15 H                     0.247599
     16 H                     0.290079
  ----------------------------------------
  Sum of atomic charges =     1.000000

 -----------------------------------------------------------------
                    Cartesian Multipole Moments
 -----------------------------------------------------------------
    Charge (ESU x 10^10)
                 4.8032
    Dipole Moment (Debye)
         X       4.9179      Y       0.3632      Z       9.5317
       Tot      10.7318
    Quadrupole Moments (Debye-Ang)
        XX     -17.9846     XY       0.1920     YY     -31.0492
        XZ       8.8723     YZ      -8.3875     ZZ      -8.5284
    Octopole Moments (Debye-Ang^2)
       XXX     -89.7791    XXY     -20.0509    XYY     -40.3682
       YYY     -57.0750    XXZ      -3.9069    XYZ      -8.2995
       YYZ     -32.5154    XZZ     -20.1799    YZZ     -53.4438
       ZZZ     -40.1344
    Hexadecapole Moments (Debye-Ang^3)
      XXXX    -407.4843   XXXY    -104.9614   XXYY    -128.5790
      XYYY    -100.9205   YYYY    -279.0967   XXXZ       2.9083
      XXYZ       5.0059   XYYZ     -23.5613   YYYZ      57.8259
      XXZZ    -131.8346   XYZZ     -68.7129   YYZZ    -142.4473
      XZZZ     -18.7634   YZZZ     -59.9686   ZZZZ    -515.7260
 -----------------------------------------------------------------
Archival summary:
1\1\nid00554\SP\ProcedureUnspecified\BasisUnspecified\3310(1+,1)\meili\SunSep2620:20:222021SunSep2620:20:222021\0\\#,ProcedureUnspecified,BasisUnspecified,\\1,1\N\H,1,1.01861\C,1,1.33441,2,118.46\N,3,1.32323,1,119.888,2,-2.27833,0\H,4,1.00943,3,120.915,1,-177.263,0\H,4,1.00987,3,119.782,1,-3.83357,0\N,3,1.3244,1,121.064,2,177.813,0\H,7,1.00357,3,120.334,1,-15.1144,0\H,7,1.01099,3,119.855,1,175.698,0\C,1,1.45665,2,118.668,3,178.552,0\H,10,1.07681,1,109.17,2,141.576,0\H,10,1.08861,1,110.71,2,-96.229,0\C,10,1.54703,1,111.419,2,25.9143,0\H,13,1.09066,10,106.702,1,-63.2792,0\H,13,1.09085,10,108.824,1,-179.668,0\H,13,1.10001,10,113.785,1,58.1686,0\\\@

 Total job time:  22244.43s(wall), 44138.65s(cpu) 
 Sun Sep 26 20:20:25 2021

        *************************************************************
        *                                                           *
        *  Thank you very much for using Q-Chem.  Have a nice day.  *
        *                                                           *
        *************************************************************


Done Job For Fragment 0
calling putenv with: QCSCRATCH=/global/cscratch1/sd/meili 
calling putenv with: QCLOCALSCR=/tmp 
calling putenv with: QCTHREADS=32 
Creating input file /tmp/qchem32431/Frg2.input
using default PutDataFrgm: nothing
calling putenv with: QCSCRATCH=/tmp/qchem32431/ 
calling putenv with: QCLOCALSCR=/tmp/qchem32431/ 
Spawning Job For Fragment 1
                  Welcome to Q-Chem
     A Quantum Leap Into The Future Of Chemistry


 Q-Chem 5.2, Q-Chem, Inc., Pleasanton, CA (2019)

 License issued to: National Energy Research Scientific Computing Center

 Yihan Shao,  Zhengting Gan,  E. Epifanovsky,  A. T. B. Gilbert,  M. Wormit,  
 J. Kussmann,  A. W. Lange,  A. Behn,  Jia Deng,  Xintian Feng,  D. Ghosh,  
 M. Goldey,  P. R. Horn,  L. D. Jacobson,  I. Kaliman,  T. Kus,  A. Landau,  
 Jie Liu,  E. I. Proynov,  R. M. Richard,  R. P. Steele,  E. J. Sundstrom,  
 H. L. Woodcock III,  P. M. Zimmerman,  D. Zuev,  B. Albrecht,  E. Alguire,  
 S. A. Baeppler,  D. Barton,  Z. Benda,  Y. A. Bernard,  E. J. Berquist,  
 K. B. Bravaya,  H. Burton,  D. Casanova,  Chun-Min Chang,  Yunqing Chen,  
 A. Chien,  K. D. Closser,  M. P. Coons,  S. Coriani,  S. Dasgupta,  
 A. L. Dempwolff,  M. Diedenhofen,  Hainam Do,  R. G. Edgar,  Po-Tung Fang,  
 S. Faraji,  S. Fatehi,  Qingguo Feng,  K. D. Fenk,  J. Fosso-Tande,  
 J. Gayvert,  Qinghui Ge,  A. Ghysels,  G. Gidofalvi,  J. Gomes,  
 J. Gonthier,  A. Gunina,  D. Hait,  M. W. D. Hanson-Heine,  
 P. H. P. Harbach,  A. W. Hauser,  M. F. Herbst,  J. E. Herr,  
 E. G. Hohenstein,  Z. C. Holden,  Kerwin Hui,  B. C. Huynh,  T.-C. Jagau,  
 Hyunjun Ji,  B. Kaduk,  K. Khistyaev,  Jaehoon Kim,  P. Klunzinger,  K. Koh,  
 D. Kosenkov,  L. Koulias,  T. Kowalczyk,  C. M. Krauter,  A. Kunitsa,  
 Ka Un Lao,  A. Laurent,  K. V. Lawler,  Joonho Lee,  D. Lefrancois,  
 S. Lehtola,  D. S. Levine,  Yi-Pei Li,  You-Sheng Lin,  Fenglai Liu,  
 E. Livshits,  A. Luenser,  P. Manohar,  E. Mansoor,  S. F. Manzer,  
 Shan-Ping Mao,  Yuezhi Mao,  N. Mardirossian,  A. V. Marenich,  
 T. Markovich,  L. A. Martinez-Martinez,  S. A. Maurer,  N. J. Mayhall,  
 S. C. McKenzie,  J.-M. Mewes,  P. Morgante,  A. F. Morrison,  
 J. W. Mullinax,  K. Nanda,  T. S. Nguyen-Beck,  R. Olivares-Amaya,  
 J. A. Parkhill,  Zheng Pei,  T. M. Perrine,  F. Plasser,  P. Pokhilko,  
 S. Prager,  A. Prociuk,  E. Ramos,  D. R. Rehn,  F. Rob,  M. Scheurer,  
 M. Schneider,  N. Sergueev,  S. M. Sharada,  S. Sharma,  D. W. Small,  
 T. Stauch,  T. Stein,  Yu-Chuan Su,  A. J. W. Thom,  A. Tkatchenko,  
 T. Tsuchimochi,  N. M. Tubman,  L. Vogt,  M. L. Vidal,  O. Vydrov,  
 M. A. Watson,  J. Wenzel,  M. de Wergifosse,  T. A. Wesolowski,  A. White,  
 J. Witte,  A. Yamada,  Jun Yang,  K. Yao,  S. Yeganeh,  S. R. Yost,  
 Zhi-Qiang You,  A. Zech,  Igor Ying Zhang,  Xing Zhang,  Yan Zhao,  
 Ying Zhu,  B. R. Brooks,  G. K. L. Chan,  C. J. Cramer,  M. S. Gordon,  
 W. J. Hehre,  A. Klamt,  M. W. Schmidt,  C. D. Sherrill,  D. G. Truhlar,  
 A. Aspuru-Guzik,  R. Baer,  A. T. Bell,  N. A. Besley,  Jeng-Da Chai,  
 A. E. DePrince, III,  R. A. DiStasio Jr.,  A. Dreuw,  B. D. Dunietz,  
 T. R. Furlani,  Chao-Ping Hsu,  Yousung Jung,  Jing Kong,  D. S. Lambrecht,  
 WanZhen Liang,  C. Ochsenfeld,  V. A. Rassolov,  L. V. Slipchenko,  
 J. E. Subotnik,  T. Van Voorhis,  J. M. Herbert,  A. I. Krylov,  
 P. M. W. Gill,  M. Head-Gordon

 Contributors to earlier versions of Q-Chem not listed above: 
 R. D. Adamson,  B. Austin,  J. Baker,  G. J. O. Beran,  K. Brandhorst,  
 S. T. Brown,  E. F. C. Byrd,  A. K. Chakraborty,  C.-L. Cheng,  
 Siu Hung Chien,  D. M. Chipman,  D. L. Crittenden,  H. Dachsel,  
 R. J. Doerksen,  A. D. Dutoi,  L. Fusti-Molnar,  W. A. Goddard III,  
 A. Golubeva-Zadorozhnaya,  S. R. Gwaltney,  G. Hawkins,  A. Heyden,  
 S. Hirata,  G. Kedziora,  F. J. Keil,  C. Kelley,  Jihan Kim,  R. A. King,  
 R. Z. Khaliullin,  P. P. Korambath,  W. Kurlancheek,  A. M. Lee,  M. S. Lee,  
 S. V. Levchenko,  Ching Yeh Lin,  D. Liotard,  R. C. Lochan,  I. Lotan,  
 P. E. Maslen,  N. Nair,  D. P. O'Neill,  D. Neuhauser,  E. Neuscamman,  
 C. M. Oana,  R. Olson,  B. Peters,  R. Peverati,  P. A. Pieniazek,  
 Y. M. Rhee,  J. Ritchie,  M. A. Rohrdanz,  E. Rosta,  N. J. Russ,  
 H. F. Schaefer III,  N. E. Schultz,  N. Shenvi,  A. C. Simmonett,  A. Sodt,  
 D. Stuck,  K. S. Thanthiriwatte,  V. Vanovschi,  Tao Wang,  A. Warshel,  
 C. F. Williams,  Q. Wu,  X. Xu,  W. Zhang

 Please cite Q-Chem as follows:
 Y. Shao et al., Mol. Phys. 113, 184-215 (2015)
 DOI: 10.1080/00268976.2014.952696

 Q-Chem 5.2.0 for Intel X86 EM64T Linux

 Parts of Q-Chem use Armadillo 8.300.2 (Tropical Shenanigans).
 http://arma.sourceforge.net/

 Q-Chem begins on Sun Sep 26 20:21:38 2021  

Host: cori01
0

     Scratch files written to /tmp/qchem32431//Frg2//
 May1019 |scratch|qcdevops|jenkins|workspace|build_RNUM -1
Processing $rem in /global/common/cori/software/qchem/5.2/config/preferences:
	 MEM_TOTAL  96000 
NAlpha2: 40
NElect   40
Mult     1
Symmetry turned off for PCM/SM12/SMD calculation

Checking the input file for inconsistencies... 	...done.

--------------------------------------------------------------
User input:
--------------------------------------------------------------
$molecule
0 1
 6	-1.9453117667	0.3662149442	-1.2946977239
 6	-1.6273117667	1.0592149442	-2.6136977239
 6	-1.3623117667	-1.0357850558	-1.2466977239
 8	-0.4013117667	-1.3547850558	-1.9416977239
 7	-1.9523117667	-1.8917850558	-0.4276977239
 1	-1.6833117667	0.9762149442	-0.4366977239
 1	-3.0283117667	0.2382149442	-1.2336977239
 1	-1.4073117667	0.2832149442	-3.3466977239
 1	-0.6813117667	1.5742149442	-2.5786977239
 1	-1.5963117667	-2.8367850558	-0.3886977239
 1	-2.7653117667	-1.6307850558	0.1113022761
 1	-2.5036617667	1.5307649442	-3.0823777239
$end
$rem
EDA2		1
METHOD		WB97X-V
BASIS		DEF2-TZVPD
XC_GRID		000099000590
NL_GRID		1
UNRESTRICTED		FALSE
MAX_SCF_CYCLES		200
SYMMETRY		FALSE
SYM_IGNORE		TRUE
BASIS_LIN_DEP_THRESH		6
THRESH		14
SCF_CONVERGENCE		8
SCF_PRINT_FRGM		TRUE
SOLVENT_METHOD		SMD
!required keywords
JOBTYPE		SP
SYM_IGNORE		TRUE
SUBSYSTEM		TRUE
GEN_SCFMAN		TRUE
CHILD_INSTRUCTION		2
SYM_IGNORE		TRUE
SCFMI		0
RI_K 0		
PARI_K 0		
MIN_PARI_K 0		
IARI_K 0		
OCC_RI_K 0		
PURECART		1111
MEM_STATIC		2000
MEM_TOTAL		96000
GUI		0
CHILD_MP		1
CHILD_MP_ORDERS		232
FRZ_RELAX		0
FRZ_RELAX_METHOD		0
EDA_CLS_ELEC		1
EDA_CLS_DISP		0
FRZ_ORTHO_DECOMP		1
EDA2		FALSE
FRGM_METHOD		FALSE
CIS_N_ROOTS  0
LOCAL_CIS    0
CIS_RLX_DNS  1
$end
$smx
SOLVENT			WATER
$end
--------------------------------------------------------------
 ----------------------------------------------------------------
             Standard Nuclear Orientation (Angstroms)
    I     Atom           X                Y                Z
 ----------------------------------------------------------------
    1      C      -1.9453117667     0.3662149442    -1.2946977239
    2      C      -1.6273117667     1.0592149442    -2.6136977239
    3      C      -1.3623117667    -1.0357850558    -1.2466977239
    4      O      -0.4013117667    -1.3547850558    -1.9416977239
    5      N      -1.9523117667    -1.8917850558    -0.4276977239
    6      H      -1.6833117667     0.9762149442    -0.4366977239
    7      H      -3.0283117667     0.2382149442    -1.2336977239
    8      H      -1.4073117667     0.2832149442    -3.3466977239
    9      H      -0.6813117667     1.5742149442    -2.5786977239
   10      H      -1.5963117667    -2.8367850558    -0.3886977239
   11      H      -2.7653117667    -1.6307850558     0.1113022761
   12      H      -2.5036617667     1.5307649442    -3.0823777239
 ----------------------------------------------------------------
 Nuclear Repulsion Energy =         180.27111109 hartrees
 There are       20 alpha and       20 beta electrons
 Requested basis set is def2-TZVPD
 There are 101 shells and 251 basis functions

 Total QAlloc Memory Limit  96000 MB
 Mega-Array Size      1956 MB
 MEM_STATIC part      2000 MB
 
 Citation of the SMD model:
 Marenich, A.V.; Cramer, C.J.; Truhlar, D.G.
 J. Phys. Chem. B 2009, 113, 6378-6396.
 iSolventCode=           1
 Solvent: water                                                           
 
 vradii
            1           2           3           4           5           6
    1   1.8500000   1.8500000   1.8500000   1.5200000   1.8900000   1.2000000
            7           8           9          10          11          12
    1   1.2000000   1.2000000   1.2000000   1.2000000   1.2000000   1.2000000
 Changing PCM_VDW_RADII to SMD_RADIUS
 Discretize the solute cavity surface with Lebedev spheres
	Using 110 Lebedev grid points for each H atom
	Using 194 Lebedev grid points for other atoms
	Atomic van der Waals radii will be scaled by 1.20
 Remove points where switching function is < 1.0e-08
 Keep 907 surface tesserae and discard 833 interior tesserae
 Molecular Surface Area = 109.083 Angst**2

                       Distance Matrix (Angstroms)
             C (  1)   C (  2)   C (  3)   O (  4)   N (  5)   H (  6)
   C (  2)  1.523527
   C (  3)  1.519144  2.515540
   O (  4)  2.400914  2.789634  1.228132
   N (  5)  2.418740  3.686817  1.323479  2.232972
   H (  6)  1.084854  2.179301  2.192552  3.056487  2.880602
   H (  7)  1.092243  2.131019  2.097332  3.152783  2.518792  1.728837
   H (  8)  2.122978  1.089892  2.480279  2.380988  3.680789  3.004085
   H (  9)  2.169243  1.077667  3.008336  3.010517  4.272634  2.439215
   H ( 10)  3.346916  4.486692  2.008612  2.456859  1.010585  3.814294
   H ( 11)  2.576285  3.994592  2.041225  3.143164  1.009758  2.875322
   H ( 12)  2.205387  1.100004  3.355530  3.747989  4.366367  2.824911
             H (  7)   H (  8)   H (  9)   H ( 10)   H ( 11)
   H (  8)  2.663538
   H (  9)  3.017007  1.668407
   H ( 10)  3.495751  4.303474  5.009016
   H ( 11)  2.317618  4.179154  4.674525  1.752426
   H ( 12)  2.315936  1.681734  1.891174  5.211016  4.501494
 
 A cutoff of  1.0D-14 yielded   5040 shell pairs
 There are     31656 function pairs (     39804 Cartesian)
 Smallest overlap matrix eigenvalue = 5.34E-06

 Scale SEOQF with 1.000000e-01/1.000000e-01/1.000000e-01

 Standard Electronic Orientation quadrupole field applied
 Nucleus-field energy     =    -0.0000000041 hartrees
 Guess from superposition of atomic densities
 Warning:  Energy on first SCF cycle will be non-variational
 SAD guess density has 39.592240 electrons

 -----------------------------------------------------------------------
  General SCF calculation program by
  Eric Jon Sundstrom, Paul Horn, Yuezhi Mao, Dmitri Zuev, Alec White,
  David Stuck, Shaama M.S., Shane Yost, Joonho Lee, David Small,
  Daniel Levine, Susi Lehtola, Hugh Burton, Evgeny Epifanovsky
 -----------------------------------------------------------------------
 Exchange:     0.1670 Hartree-Fock + 1.0000 wB97X-V + LR-HF
 Correlation:  1.0000 wB97X-V
 Using Euler-Maclaurin-Lebedev (99,590) quadrature formula
 Nonlocal Correlation:  VV10 with C = 0.0100 and b = 6.00 and scale = 1.00000
 Grid used for NLC:  SG-1 standard quadrature
Energy prior to optimization (guess energy) = -248.006936617326
Begin Timing: Total SCF Calculation
begin iterations for algorithm: DIIS         
the SCF tolerance is set to 1.00e-08
    1    -248.0069366173      9.83e-03     00000 
    2    -247.6325235374      1.20e-02     00000 
    3    -248.5415212827      1.89e-03     00000 
    4    -248.5613708474      6.02e-04     00000 
    5    -248.5644984038      1.60e-04     00000 
    6    -248.5647778663      5.65e-05     00000 
    7    -248.5648225141      1.68e-05     00000 
    8    -248.5648278929      4.67e-06     00000 
    9    -248.5648286544      1.66e-06     00000 
   10    -248.5648287120      4.73e-07     00000 
   11    -248.5648287151      1.28e-07     00000 
   12    -248.5648287154      1.81e-08     00000 
   13    -248.5648287154      4.10e-09     00000 Convergence criterion met
Timing for Total SCF: 687.00s (wall), 1360.76s (cpu)
(3)  G-ENP(liq) elect-nuc-pol free energy of system     -248.564828715 a.u.
(4)  G-CDS(liq) cavity-dispersion-solvent structure 
     free energy                                                3.6854 kcal/mol
(6)  G-S(liq) free energy of system                     -248.558955685 a.u.
E_pcm = -0.0284049543
E_cds = 0.0058730301
Multipole orders to be included
        2
        3
computing dipole RHS
computing quadrupole RHS
total number of RHS in solve_reponses: 8
RHS batch sizes
        8
Beginning Block Conjugate Gradient Iterations. Batch Number: 0
computing hessian-vector products by finite difference
              1      5.94e-01     00000 Conjugate Gradient Iteration
computing hessian-vector products by finite difference
              2      1.83e-01     00000 Conjugate Gradient Iteration
computing hessian-vector products by finite difference
              3      4.65e-02     00000 Conjugate Gradient Iteration
computing hessian-vector products by finite difference
              4      1.19e-02     00000 Conjugate Gradient Iteration
computing hessian-vector products by finite difference
              5      1.77e-03     00000 Conjugate Gradient Iteration
computing hessian-vector products by finite difference
              6      3.81e-04     00000 Conjugate Gradient Iteration
computing hessian-vector products by finite difference
              7      6.34e-05     00000 Conjugate Gradient Iteration
computing hessian-vector products by finite difference
              8      8.64e-06     00000 Conjugate Gradient Iteration
computing hessian-vector products by finite difference
              9      1.44e-06     00000 Conjugate Gradient Iteration
computing hessian-vector products by finite difference
             10      6.86e-07     00000 Conjugate Gradient Iteration
computing hessian-vector products by finite difference
             11      8.97e-08     00000 Conjugate Gradient Iteration
computing hessian-vector products by finite difference
             12      1.17e-08     00000 Conjugate Gradient Iteration
computing hessian-vector products by finite difference
             13      3.09e-09     00000 CG Converged
batch 0 complete
Done Calculating Responses
TESTING ORTHOGONALIZATION OF MULTIPOLE BASIS
Multipole virts passed orthogonality test
Virts Per Order
           60
          100
 
 --------------------------------------------------------------
 
                    Orbital Energies (a.u.)
 --------------------------------------------------------------
 
 Alpha MOs
 -- Occupied --
-19.1828 -14.4253 -10.3739 -10.2660 -10.2472  -1.1768  -1.0409  -0.9037
 -0.7765  -0.6951  -0.6473  -0.6008  -0.5787  -0.5373  -0.5176  -0.4703
 -0.4500  -0.4420  -0.3813  -0.3752
 -- Virtual --
  0.0649   0.0891   0.0930   0.0969   0.1183   0.1298   0.1343   0.1394
  0.1486   0.1749   0.1861   0.1979   0.2048   0.2164   0.2212   0.2331
  0.2457   0.2465   0.2615   0.2778   0.2873   0.2948   0.3012   0.3095
  0.3107   0.3255   0.3328   0.3389   0.3420   0.3554   0.3647   0.3737
  0.3826   0.3922   0.3945   0.4086   0.4092   0.4161   0.4238   0.4293
  0.4333   0.4436   0.4540   0.4602   0.4660   0.4887   0.4972   0.5019
  0.5142   0.5201   0.5311   0.5373   0.5401   0.5525   0.5576   0.5758
  0.5870   0.5952   0.6013   0.6063   0.6317   0.6480   0.6572   0.6693
  0.6913   0.7038   0.7149   0.7263   0.7296   0.7492   0.7638   0.7783
  0.7828   0.8011   0.8052   0.8141   0.8163   0.8226   0.8361   0.8478
  0.8711   0.8886   0.8974   0.9220   0.9539   0.9611   0.9772   1.0073
  1.0245   1.0403   1.0676   1.0778   1.1067   1.1220   1.1633   1.1942
  1.2092   1.2377   1.2987   1.3193   1.3426   1.3518   1.3699   1.4147
  1.4539   1.4816   1.5033   1.5374   1.5822   1.6381   1.7009   1.8057
  1.8171   1.8651   1.8681   1.8907   1.9101   1.9288   1.9447   1.9597
  1.9729   1.9856   2.0116   2.0253   2.0353   2.0527   2.0996   2.1322
  2.1792   2.2070   2.2360   2.2418   2.2860   2.3132   2.3304   2.3587
  2.3870   2.4300   2.4660   2.4954   2.5296   2.5702   2.5956   2.6208
  2.6419   2.6998   2.7541   2.7844   2.8081   2.8196   2.8370   2.8906
  2.9044   2.9319   2.9474   3.0007   3.0294   3.0843   3.0928   3.1310
  3.1685   3.1846   3.2066   3.2636   3.2661   3.2876   3.3173   3.3331
  3.3587   3.3990   3.4280   3.4368   3.4719   3.4941   3.5426   3.5651
  3.5838   3.6069   3.6305   3.6618   3.7209   3.7393   3.8210   3.8344
  3.9338   3.9638   3.9770   4.0071   4.0871   4.1243   4.1507   4.2547
  4.2961   4.3730   4.4365   4.4583   4.5978   4.6227   4.6930   4.7601
  4.7992   4.8299   4.9038   4.9357   4.9829   5.0707   5.1888   5.1923
  5.2765   5.3695   5.4017   5.4080   5.4198   5.5337   5.5635   5.7787
  5.9250   6.1697   6.2763   6.5330   6.6695   6.7543   6.8416   6.9872
  7.2520   7.3323  22.6277  22.7823  23.6216  32.4481  44.3347
 --------------------------------------------------------------
 
          Ground-State Mulliken Net Atomic Charges

     Atom                 Charge (a.u.)
  ----------------------------------------
      1 C                    -0.020543
      2 C                    -0.989591
      3 C                     0.229567
      4 O                    -0.698165
      5 N                    -0.298717
      6 H                     0.278465
      7 H                     0.216877
      8 H                     0.235673
      9 H                     0.267338
     10 H                     0.267682
     11 H                     0.237886
     12 H                     0.273527
  ----------------------------------------
  Sum of atomic charges =     0.000000

 -----------------------------------------------------------------
                    Cartesian Multipole Moments
 -----------------------------------------------------------------
    Charge (ESU x 10^10)
                -0.0000
    Dipole Moment (Debye)
         X      -4.6175      Y       0.1906      Z       3.5179
       Tot       5.8081
    Quadrupole Moments (Debye-Ang)
        XX     -19.2349     XY       5.7160     YY     -28.2156
        XZ       1.3608     YZ      -6.3084     ZZ     -39.7117
    Octopole Moments (Debye-Ang^2)
       XXX     108.1072    XXY       2.3992    XYY      34.1795
       YYY      25.8415    XXZ      44.2374    XYZ       2.2085
       YYZ      59.3849    XZZ      43.9061    YZZ      29.3078
       ZZZ     163.5695
    Hexadecapole Moments (Debye-Ang^3)
      XXXX    -439.8461   XXXY     -20.6321   XXYY    -121.4782
      XYYY      -7.2856   YYYY    -287.4064   XXXZ    -188.9834
      XXYZ     -12.2810   XYYZ     -72.2289   YYYZ     -13.9663
      XXZZ    -177.1039   XYZZ     -21.9296   YYZZ    -188.0441
      XZZZ    -191.2544   YZZZ     -35.3763   ZZZZ    -658.4176
 -----------------------------------------------------------------
Archival summary:
1\1\nid00554\SP\ProcedureUnspecified\BasisUnspecified\1137\meili\SunSep2623:44:512021SunSep2623:44:512021\0\\#,ProcedureUnspecified,BasisUnspecified,\\0,1\C\O,1,1.22813\N,1,1.32348,2,122.075\H,3,1.00976,1,121.471,2,-177.447,0\H,3,1.01058,1,118.141,2,-0.562578,0\C,1,1.51914,2,121.475,3,-179.387,0\H,6,1.08485,1,113.657,2,-104.465,0\H,6,1.09224,1,105.7,2,140.742,0\C,6,1.52353,1,111.533,2,23.6424,0\H,9,1.07767,6,111.869,1,-87.7701,0\H,9,1.08989,6,107.489,1,21.8245,0\H,9,1.1,6,113.427,1,131.8,0\\\@

 Total job time:  12195.37s(wall), 24175.46s(cpu) 
 Sun Sep 26 23:44:53 2021

        *************************************************************
        *                                                           *
        *  Thank you very much for using Q-Chem.  Have a nice day.  *
        *                                                           *
        *************************************************************


Done Job For Fragment 1
calling putenv with: QCSCRATCH=/global/cscratch1/sd/meili 
calling putenv with: QCLOCALSCR=/tmp 
calling putenv with: QCTHREADS=32 
Doing General SCFMI
 Exchange:     0.1670 Hartree-Fock + 1.0000 wB97X-V + LR-HF
 Correlation:  1.0000 wB97X-V
 Using Euler-Maclaurin-Lebedev (99,590) quadrature formula
 Nonlocal Correlation:  VV10 with C = 0.0100 and b = 6.00 and scale = 1.00000
 Grid used for NLC:  SG-1 standard quadrature
performing fock build before subrot guess so that all methods have access
Printing subrot_rss_gen Method Specification:
Occupied Subspace Method is 0
Virtual Subspace Method is 0
Energy of the unrelaxed supersystem initial determinant -532.952264489775
performing fock build before subrot guess so that all methods have access
Printing subrot_rss_gen Method Specification:
Occupied Subspace Method is 0
Virtual Subspace Method is 0
Energy of the unrelaxed supersystem initial determinant w/ solvent -533.090359043006
write pseudocanon occs and virts to disk
write pseudocanon orbital energies to disk
Tolerance of ortho_decomp_scf: 1.00e-06
GDM subspace size: 20
Beginning the Orthogonal Decomposition of the Initial Supersystem Wavefunction
    1    -532.9295424953      2.88e-02     ortho_decomp Preconditoned Steepest Descent
    2    -532.9322130566      7.45e-04     ortho_decomp BFGS Step
    3    -532.9322215970      5.27e-05     ortho_decomp BFGS Step
    4    -532.9322216116      2.31e-06     ortho_decomp BFGS Step
    5    -532.9322216117      1.10e-07     ortho_decomp 00000 Convergence criterion met
 Hartree-Fock
 Hartree-Fock
 Hartree-Fock
Doing General SCFMI
 Exchange:     0.1670 Hartree-Fock + 1.0000 wB97X-V + LR-HF
 Correlation:  1.0000 wB97X-V
 Using Euler-Maclaurin-Lebedev (99,590) quadrature formula
 Nonlocal Correlation:  VV10 with C = 0.0100 and b = 6.00 and scale = 1.00000
 Grid used for NLC:  SG-1 standard quadrature
performing fock build at end of subrot_r(subrot) constructor so that all methods have access
<S^2> of initial wavefunction before polarization iterations 0.0000000000
Beginning iterations for the determination of the polarized wavefunction
Energy prior to optimization (guess energy) = -533.090359043007
Begin Timing: Total SCF Calculation
begin iterations for algorithm: DIIS         
the SCF tolerance is set to 1.00e-08
    1    -533.0903590430      7.05e-05     00000 
    2    -533.0907627696      2.80e-05     00000 
    3    -533.0908047287      1.58e-05     00000 
    4    -533.0908172978      4.96e-06     00000 
    5    -533.0908188434      3.04e-06     00000 
    6    -533.0908194269      1.57e-06     00000 
    7    -533.0908195303      1.03e-06     00000 
    8    -533.0908195608      5.49e-07     00000 
    9    -533.0908195687      2.83e-07     00000 
   10    -533.0908195722      1.48e-07     00000 
   11    -533.0908195735      5.40e-08     00000 
   12    -533.0908195737      2.36e-08     00000 
   13    -533.0908195737      1.14e-08     00000 
   14    -533.0908195738      4.75e-09     00000 Convergence criterion met
write pseudocanon occs and virts to disk
write pseudocanon orbital energies to disk
Timing for Total SCF: 7141.00s (wall), 14209.03s (cpu)
<S^2> of polarized wavefunction after polarization iterations 0.0000000000
relaxing scfmi constraint to allow all rotations in the entire AO span
Doing General SCFMI
 Exchange:     0.1670 Hartree-Fock + 1.0000 wB97X-V + LR-HF
 Correlation:  1.0000 wB97X-V
 Using Euler-Maclaurin-Lebedev (99,590) quadrature formula
 Nonlocal Correlation:  VV10 with C = 0.0100 and b = 6.00 and scale = 1.00000
 Grid used for NLC:  SG-1 standard quadrature
performing fock build at end of subrot_r(subrot) constructor so that all methods have access
<S^2> of polarized wavefunction before ct-allowed iterations 0.0000000000
Beginning iterations for the determination of the CT-Allowed wavefunction
Energy prior to optimization (guess energy) = -533.090819573758
Begin Timing: Total SCF Calculation
begin iterations for algorithm: DIIS         
the SCF tolerance is set to 1.00e-08
    1    -533.0908195738      1.01e-04     00000 
    2    -533.0923585423      1.06e-05     00000 
    3    -533.0923990877      1.53e-06     00000 
    4    -533.0924001166      5.98e-07     00000 
    5    -533.0924001699      2.31e-07     00000 
    6    -533.0924001793      9.86e-08     00000 
    7    -533.0924001806      1.81e-08     00000 
    8    -533.0924001806      8.27e-09     00000 Convergence criterion met
write pseudocanon occs and virts to disk
write pseudocanon orbital energies to disk
Timing for Total SCF: 3899.00s (wall), 7757.62s (cpu)
<S^2> of ct_allowed wavefunction after ct-allowed iterations 0.0000000000

================================
        Results of EDA2         
================================
Basic EDA Quantities
--------------------
Fragment Energies (Ha):
1 -284.5205090017
2 -248.5589556854
--------------------
  E_prp (kJ/mol) = -0.0000
  E_sol (kJ/mol) = -9.5688
  E_frz (kJ/mol) = 6.5001
  E_pol (kJ/mol) = -1.2091
  E_vct (kJ/mol) = -4.1499
  E_int (kJ/mol) = -8.4277
--------------------


Initial Wavefunction Decomposition
--------------------
  --------------------
  Orthogonal Fragment Subspace Decomposition:
  --------------------
     E_elec   (ELEC)   (kJ/mol) = -16.5757
     E_pauli  (PAULI)  (kJ/mol) = 45.8133
     E_disp   (DISP)   (kJ/mol) = -22.7374
     --------------------
     Terms summing to E_pauli:
     --------------------
        E_kep_pauli       (kJ/mol) = 59.1233
        E_disp_free_pauli (kJ/mol) = -13.3101
  --------------------
  Classical Frozen Decomposition:
  --------------------
     E_cls_elec  (CLS ELEC)  (kJ/mol) = -0.9036
     E_cls_pauli (CLS PAULI) (kJ/mol) = 7.4037
    [E_mod_pauli (MOD PAULI) (kJ/mol) = 30.1411 (CLS PAULI - DISP from orthogonal decomposition) ]
  --------------------
--------------------

Simplified EDA Summary (kJ/mol)
--------------------
 PREPARATION     -0.0000
 SOLVATION       -9.5688
 FROZEN          29.2375      (does not include dispersion)
[PAULI           45.8133]     (if this is negligible, then frozen describes electrostatics)
 DISPERSION      -22.7374
 POLARIZATION    -1.2091
 CHARGE TRANSFER -4.1499
 TOTAL           -8.4277     (PRP + SOL + FRZ + DISP + POL + CT)
--------------------
 
 --------------------------------------------------------------
 
                    Orbital Energies (a.u.)
 --------------------------------------------------------------
 
 Alpha MOs
 -- Occupied --
-19.1854 -14.4541 -14.4478 -14.4459 -14.4270 -10.4243 -10.3762 -10.3073
-10.2691 -10.2608 -10.2493  -1.1792  -1.1707  -1.0569  -1.0430  -1.0408
 -0.9074  -0.8933  -0.7841  -0.7783  -0.7571  -0.7193  -0.6974  -0.6816
 -0.6495  -0.6196  -0.6130  -0.6035  -0.6028  -0.5840  -0.5693  -0.5493
 -0.5388  -0.5201  -0.4938  -0.4790  -0.4732  -0.4614  -0.4492  -0.4423
 -0.4006  -0.3814  -0.3776  -0.3750
 -- Virtual --
  0.0566   0.0717   0.0782   0.0820   0.0941   0.0977   0.1020   0.1042
  0.1111   0.1194   0.1271   0.1289   0.1367   0.1439   0.1485   0.1532
  0.1668   0.1728   0.1763   0.1813   0.1894   0.1906   0.1973   0.2013
  0.2105   0.2157   0.2190   0.2223   0.2278   0.2334   0.2391   0.2429
  0.2465   0.2543   0.2565   0.2602   0.2707   0.2760   0.2784   0.2819
  0.2861   0.2901   0.2944   0.2968   0.3013   0.3029   0.3042   0.3116
  0.3183   0.3208   0.3218   0.3297   0.3341   0.3381   0.3437   0.3455
  0.3490   0.3512   0.3548   0.3573   0.3648   0.3697   0.3705   0.3729
  0.3775   0.3825   0.3844   0.3918   0.3954   0.4017   0.4057   0.4094
  0.4130   0.4156   0.4189   0.4262   0.4294   0.4357   0.4415   0.4447
  0.4467   0.4518   0.4561   0.4600   0.4619   0.4651   0.4695   0.4734
  0.4828   0.4880   0.4924   0.4982   0.5011   0.5019   0.5065   0.5125
  0.5151   0.5161   0.5194   0.5258   0.5280   0.5331   0.5406   0.5457
  0.5488   0.5530   0.5560   0.5628   0.5654   0.5660   0.5718   0.5784
  0.5825   0.5867   0.5937   0.5992   0.6023   0.6070   0.6107   0.6241
  0.6253   0.6317   0.6346   0.6385   0.6412   0.6448   0.6549   0.6580
  0.6654   0.6693   0.6762   0.6783   0.6933   0.6977   0.7042   0.7076
  0.7099   0.7201   0.7208   0.7261   0.7340   0.7395   0.7472   0.7493
  0.7526   0.7585   0.7672   0.7711   0.7753   0.7876   0.7949   0.7990
  0.8010   0.8069   0.8076   0.8109   0.8148   0.8207   0.8285   0.8302
  0.8385   0.8427   0.8450   0.8569   0.8602   0.8646   0.8738   0.8763
  0.8866   0.8963   0.9032   0.9071   0.9121   0.9221   0.9275   0.9323
  0.9406   0.9484   0.9496   0.9569   0.9674   0.9754   0.9810   0.9844
  1.0024   1.0041   1.0157   1.0201   1.0336   1.0452   1.0470   1.0637
  1.0681   1.0749   1.0810   1.0972   1.1121   1.1156   1.1280   1.1310
  1.1432   1.1470   1.1646   1.1719   1.1744   1.1819   1.1926   1.2004
  1.2026   1.2173   1.2286   1.2399   1.2576   1.2587   1.2728   1.2838
  1.2856   1.3240   1.3322   1.3400   1.3603   1.3739   1.3838   1.3985
  1.4050   1.4176   1.4321   1.4400   1.4527   1.4748   1.4807   1.4945
  1.5070   1.5176   1.5225   1.5361   1.5455   1.5764   1.5885   1.6008
  1.6076   1.6085   1.6254   1.6722   1.6992   1.7135   1.7177   1.7384
  1.7491   1.7925   1.7988   1.8346   1.8477   1.8724   1.8831   1.8989
  1.9133   1.9182   1.9273   1.9318   1.9392   1.9500   1.9565   1.9663
  1.9725   1.9852   1.9895   1.9956   2.0023   2.0220   2.0265   2.0334
  2.0476   2.0610   2.0696   2.0720   2.0863   2.0978   2.0987   2.1212
  2.1291   2.1440   2.1630   2.1852   2.2066   2.2102   2.2262   2.2407
  2.2440   2.2520   2.2752   2.2832   2.2915   2.3029   2.3118   2.3290
  2.3427   2.3500   2.3604   2.3834   2.3850   2.3955   2.4037   2.4238
  2.4442   2.4550   2.4785   2.4951   2.4963   2.5142   2.5265   2.5440
  2.5623   2.5769   2.5799   2.5863   2.6223   2.6343   2.6554   2.6640
  2.6712   2.6778   2.7017   2.7084   2.7185   2.7290   2.7361   2.7465
  2.7642   2.7810   2.7977   2.8007   2.8329   2.8367   2.8525   2.8549
  2.8776   2.8881   2.9034   2.9098   2.9200   2.9327   2.9422   2.9511
  2.9662   2.9776   2.9953   3.0107   3.0188   3.0265   3.0388   3.0758
  3.0985   3.1045   3.1197   3.1313   3.1459   3.1621   3.1700   3.1776
  3.2050   3.2263   3.2347   3.2393   3.2592   3.2602   3.2795   3.2899
  3.2967   3.3053   3.3187   3.3230   3.3415   3.3536   3.3600   3.3650
  3.3733   3.3855   3.3932   3.4178   3.4220   3.4381   3.4436   3.4523
  3.4647   3.4734   3.4797   3.4959   3.5243   3.5336   3.5442   3.5630
  3.5752   3.5918   3.6150   3.6289   3.6506   3.6550   3.6650   3.6744
  3.6831   3.6919   3.6969   3.7468   3.7654   3.7802   3.7844   3.8124
  3.8354   3.8817   3.8870   3.8998   3.9348   3.9640   3.9731   3.9761
  3.9933   4.0077   4.0345   4.0456   4.1039   4.1096   4.1214   4.1603
  4.1838   4.1950   4.2045   4.2445   4.2829   4.2900   4.3290   4.3509
  4.3692   4.3923   4.3958   4.4468   4.4534   4.4858   4.4998   4.5698
  4.6070   4.6218   4.6371   4.6483   4.6608   4.7072   4.7305   4.7965
  4.8243   4.8573   4.8616   4.8693   4.9098   4.9224   4.9287   4.9619
  4.9661   5.0088   5.0172   5.0334   5.0599   5.0955   5.1094   5.1472
  5.1630   5.1921   5.2108   5.2222   5.2326   5.2380   5.2715   5.2990
  5.3172   5.3816   5.3834   5.4106   5.4200   5.4284   5.4297   5.4395
  5.4743   5.4947   5.5198   5.5553   5.5642   5.5919   5.6371   5.6802
  5.7389   5.7866   5.8252   5.8520   5.9330   5.9374   6.1801   6.1855
  6.2081   6.2898   6.4110   6.4694   6.5526   6.7259   6.7788   6.8577
  7.0218   7.2671   7.3469  22.6693  22.6969  22.8828  22.9261  23.6497
 23.6862  32.4006  32.5469  32.5616  32.9556  44.5078
 --------------------------------------------------------------
 
          Ground-State Mulliken Net Atomic Charges

     Atom                 Charge (a.u.)
  ----------------------------------------
      1 C                    -0.003103
      2 C                    -1.113622
      3 C                     0.410197
      4 N                    -0.054164
      5 N                    -0.272659
      6 N                    -0.299334
      7 H                     0.178235
      8 H                    -0.165975
      9 H                     0.305726
     10 H                     0.284169
     11 H                     0.293204
     12 H                     0.231210
     13 H                     0.242700
     14 H                     0.253755
     15 H                     0.254136
     16 H                     0.279321
     17 C                    -0.025102
     18 C                    -1.018620
     19 C                     0.380893
     20 O                    -0.724447
     21 N                    -0.273249
     22 H                     0.222833
     23 H                     0.366948
     24 H                     0.231703
     25 H                     0.208735
     26 H                     0.272452
     27 H                     0.252964
     28 H                     0.281093
  ----------------------------------------
  Sum of atomic charges =     1.000000

 -----------------------------------------------------------------
                    Cartesian Multipole Moments
 -----------------------------------------------------------------
    Charge (ESU x 10^10)
                 4.8032
    Dipole Moment (Debye)
         X       0.2242      Y       0.4928      Z      12.9647
       Tot      12.9760
    Quadrupole Moments (Debye-Ang)
        XX     -37.0982     XY       5.9204     YY     -59.2114
        XZ      10.3603     YZ     -14.7476     ZZ     -48.0497
    Octopole Moments (Debye-Ang^2)
       XXX      17.7285    XXY     -17.6411    XYY      -6.3674
       YYY     -31.4170    XXZ      39.9745    XYZ      -5.9667
       YYZ      26.6473    XZZ      23.2894    YZZ     -24.1157
       ZZZ     122.4246
    Hexadecapole Moments (Debye-Ang^3)
      XXXX    -846.2855   XXXY    -126.0011   XXYY    -249.9718
      XYYY    -108.3621   YYYY    -566.3817   XXXZ    -185.3013
      XXYZ      -7.6690   XYYZ     -95.5985   YYYZ      43.6504
      XXZZ    -308.1965   XYZZ     -90.9205   YYZZ    -330.0624
      XZZZ    -208.6549   YZZZ     -95.9604   ZZZZ   -1172.0573
 -----------------------------------------------------------------
Archival summary:
1\1\nid00554\SP\ProcedureUnspecified\BasisUnspecified\14617(1+,1)\meili\MonSep2705:09:592021MonSep2705:09:592021\0\\#,ProcedureUnspecified,BasisUnspecified,\\1,1\N\H,1,1.01861\C,1,1.33441,2,118.46\N,3,1.32323,1,119.888,2,-2.27833,0\H,4,1.00943,3,120.915,1,-177.263,0\H,4,1.00987,3,119.782,1,-3.83357,0\N,3,1.3244,1,121.064,2,177.813,0\H,7,1.00357,3,120.334,1,-15.1144,0\H,7,1.01099,3,119.855,1,175.698,0\C,1,1.45665,2,118.668,3,178.552,0\H,10,1.07681,1,109.17,2,141.576,0\H,10,1.08861,1,110.71,2,-96.229,0\C,10,1.54703,1,111.419,2,25.9143,0\H,13,1.09066,10,106.702,1,-63.2792,0\H,13,1.09085,10,108.824,1,-179.668,0\H,13,1.10001,10,113.785,1,58.1686,0\H,11,1.99565,10,144.352,1,110.978,0\C,17,1.08485,11,107.197,10,158.904,0\H,18,1.09224,17,105.141,11,168.864,0\C,18,1.51914,17,113.657,11,53.7398,0\O,20,1.22813,18,121.475,17,-104.465,0\N,20,1.32348,18,116.447,17,76.1158,0\H,22,1.00976,20,121.471,18,1.96885,0\H,22,1.01058,20,118.141,18,178.853,0\C,18,1.52353,17,112.243,11,-74.0013,0\H,25,1.07767,18,111.869,17,41.0899,0\H,25,1.08989,18,107.489,17,150.685,0\H,25,1.1,18,113.427,17,-99.3403,0\\\@

 Total job time:  54026.14s(wall), 38848.75s(cpu) 
 Mon Sep 27 05:10:02 2021

        *************************************************************
        *                                                           *
        *  Thank you very much for using Q-Chem.  Have a nice day.  *
        *                                                           *
        *************************************************************


