
Running Job 1 of 1 SSI-087GLN-139ASN-1_SMD_TZVPD.in
qchem SSI-087GLN-139ASN-1_SMD_TZVPD.in_40034.0 /tmp/qchem40034/ 0
/global/common/cori/software/qchem/5.2/exe/qcprog.exe_s SSI-087GLN-139ASN-1_SMD_TZVPD.in_40034.0 /tmp/qchem40034/
                  Welcome to Q-Chem
     A Quantum Leap Into The Future Of Chemistry


 Q-Chem 5.2, Q-Chem, Inc., Pleasanton, CA (2019)

 License issued to: National Energy Research Scientific Computing Center

 Yihan Shao,  Zhengting Gan,  E. Epifanovsky,  A. T. B. Gilbert,  M. Wormit,  
 J. Kussmann,  A. W. Lange,  A. Behn,  Jia Deng,  Xintian Feng,  D. Ghosh,  
 M. Goldey,  P. R. Horn,  L. D. Jacobson,  I. Kaliman,  T. Kus,  A. Landau,  
 Jie Liu,  E. I. Proynov,  R. M. Richard,  R. P. Steele,  E. J. Sundstrom,  
 H. L. Woodcock III,  P. M. Zimmerman,  D. Zuev,  B. Albrecht,  E. Alguire,  
 S. A. Baeppler,  D. Barton,  Z. Benda,  Y. A. Bernard,  E. J. Berquist,  
 K. B. Bravaya,  H. Burton,  D. Casanova,  Chun-Min Chang,  Yunqing Chen,  
 A. Chien,  K. D. Closser,  M. P. Coons,  S. Coriani,  S. Dasgupta,  
 A. L. Dempwolff,  M. Diedenhofen,  Hainam Do,  R. G. Edgar,  Po-Tung Fang,  
 S. Faraji,  S. Fatehi,  Qingguo Feng,  K. D. Fenk,  J. Fosso-Tande,  
 J. Gayvert,  Qinghui Ge,  A. Ghysels,  G. Gidofalvi,  J. Gomes,  
 J. Gonthier,  A. Gunina,  D. Hait,  M. W. D. Hanson-Heine,  
 P. H. P. Harbach,  A. W. Hauser,  M. F. Herbst,  J. E. Herr,  
 E. G. Hohenstein,  Z. C. Holden,  Kerwin Hui,  B. C. Huynh,  T.-C. Jagau,  
 Hyunjun Ji,  B. Kaduk,  K. Khistyaev,  Jaehoon Kim,  P. Klunzinger,  K. Koh,  
 D. Kosenkov,  L. Koulias,  T. Kowalczyk,  C. M. Krauter,  A. Kunitsa,  
 Ka Un Lao,  A. Laurent,  K. V. Lawler,  Joonho Lee,  D. Lefrancois,  
 S. Lehtola,  D. S. Levine,  Yi-Pei Li,  You-Sheng Lin,  Fenglai Liu,  
 E. Livshits,  A. Luenser,  P. Manohar,  E. Mansoor,  S. F. Manzer,  
 Shan-Ping Mao,  Yuezhi Mao,  N. Mardirossian,  A. V. Marenich,  
 T. Markovich,  L. A. Martinez-Martinez,  S. A. Maurer,  N. J. Mayhall,  
 S. C. McKenzie,  J.-M. Mewes,  P. Morgante,  A. F. Morrison,  
 J. W. Mullinax,  K. Nanda,  T. S. Nguyen-Beck,  R. Olivares-Amaya,  
 J. A. Parkhill,  Zheng Pei,  T. M. Perrine,  F. Plasser,  P. Pokhilko,  
 S. Prager,  A. Prociuk,  E. Ramos,  D. R. Rehn,  F. Rob,  M. Scheurer,  
 M. Schneider,  N. Sergueev,  S. M. Sharada,  S. Sharma,  D. W. Small,  
 T. Stauch,  T. Stein,  Yu-Chuan Su,  A. J. W. Thom,  A. Tkatchenko,  
 T. Tsuchimochi,  N. M. Tubman,  L. Vogt,  M. L. Vidal,  O. Vydrov,  
 M. A. Watson,  J. Wenzel,  M. de Wergifosse,  T. A. Wesolowski,  A. White,  
 J. Witte,  A. Yamada,  Jun Yang,  K. Yao,  S. Yeganeh,  S. R. Yost,  
 Zhi-Qiang You,  A. Zech,  Igor Ying Zhang,  Xing Zhang,  Yan Zhao,  
 Ying Zhu,  B. R. Brooks,  G. K. L. Chan,  C. J. Cramer,  M. S. Gordon,  
 W. J. Hehre,  A. Klamt,  M. W. Schmidt,  C. D. Sherrill,  D. G. Truhlar,  
 A. Aspuru-Guzik,  R. Baer,  A. T. Bell,  N. A. Besley,  Jeng-Da Chai,  
 A. E. DePrince, III,  R. A. DiStasio Jr.,  A. Dreuw,  B. D. Dunietz,  
 T. R. Furlani,  Chao-Ping Hsu,  Yousung Jung,  Jing Kong,  D. S. Lambrecht,  
 WanZhen Liang,  C. Ochsenfeld,  V. A. Rassolov,  L. V. Slipchenko,  
 J. E. Subotnik,  T. Van Voorhis,  J. M. Herbert,  A. I. Krylov,  
 P. M. W. Gill,  M. Head-Gordon

 Contributors to earlier versions of Q-Chem not listed above: 
 R. D. Adamson,  B. Austin,  J. Baker,  G. J. O. Beran,  K. Brandhorst,  
 S. T. Brown,  E. F. C. Byrd,  A. K. Chakraborty,  C.-L. Cheng,  
 Siu Hung Chien,  D. M. Chipman,  D. L. Crittenden,  H. Dachsel,  
 R. J. Doerksen,  A. D. Dutoi,  L. Fusti-Molnar,  W. A. Goddard III,  
 A. Golubeva-Zadorozhnaya,  S. R. Gwaltney,  G. Hawkins,  A. Heyden,  
 S. Hirata,  G. Kedziora,  F. J. Keil,  C. Kelley,  Jihan Kim,  R. A. King,  
 R. Z. Khaliullin,  P. P. Korambath,  W. Kurlancheek,  A. M. Lee,  M. S. Lee,  
 S. V. Levchenko,  Ching Yeh Lin,  D. Liotard,  R. C. Lochan,  I. Lotan,  
 P. E. Maslen,  N. Nair,  D. P. O'Neill,  D. Neuhauser,  E. Neuscamman,  
 C. M. Oana,  R. Olson,  B. Peters,  R. Peverati,  P. A. Pieniazek,  
 Y. M. Rhee,  J. Ritchie,  M. A. Rohrdanz,  E. Rosta,  N. J. Russ,  
 H. F. Schaefer III,  N. E. Schultz,  N. Shenvi,  A. C. Simmonett,  A. Sodt,  
 D. Stuck,  K. S. Thanthiriwatte,  V. Vanovschi,  Tao Wang,  A. Warshel,  
 C. F. Williams,  Q. Wu,  X. Xu,  W. Zhang

 Please cite Q-Chem as follows:
 Y. Shao et al., Mol. Phys. 113, 184-215 (2015)
 DOI: 10.1080/00268976.2014.952696

 Q-Chem 5.2.0 for Intel X86 EM64T Linux

 Parts of Q-Chem use Armadillo 8.300.2 (Tropical Shenanigans).
 http://arma.sourceforge.net/

 Q-Chem begins on Sun Sep 26 12:21:56 2021  

Host: cori01
0

     Scratch files written to /tmp/qchem40034//
 May1019 |scratch|qcdevops|jenkins|workspace|build_RNUM -1
Processing $rem in /global/common/cori/software/qchem/5.2/config/preferences:
	 MEM_TOTAL  96000 
NAlpha2: 64
NElect   64
Mult     1
Symmetry turned off for PCM/SM12/SMD calculation

 Q-Chem warning in module libgen/rem_setup.C, line 2803:

 Neither GIA nor STOLL is specified by user. Use STOLL as the default


Checking the input file for inconsistencies... 	...done.

--------------------------------------------------------------
User input:
--------------------------------------------------------------
$comment
SSI-087GLN-139ASN-1.pdb
$end

$molecule
0 1
--
0 1
C   -0.356182025672    0.288519186332    1.902171316402
C   -1.353182025672   -0.839480813668    1.699171316402
O   -1.546182025672   -1.713480813668    2.541171316402
N   -1.964182025672   -0.858480813668    0.536171316402
H   -2.628182025672   -1.594480813668    0.346171316402
H   -1.708182025672   -0.185480813668   -0.175828683598
H   -0.772182025672    1.216519186332    1.506171316402
H    0.534817974328    0.048519186332    1.323171316402
H   -0.093520025672    0.441799186332    2.959301316402
--
0 1
C    2.019817974328    1.928519186332   -1.121828683598
C    1.239817974328    0.739519186332   -1.640828683598
O    0.028817974328    0.649519186332   -1.432828683598
N    1.918817974328   -0.146480813668   -2.355828683598
H    3.067817974328    1.664519186332   -0.971828683598
H    1.596817974328    2.187519186332   -0.149828683598
H    1.416817974328   -0.919480813668   -2.763828683598
H    2.904817974328    0.004519186332   -2.550828683598
H    1.934126974328    2.777509186332   -1.815998683598
$end

$rem
JOBTYPE			EDA
EDA2			1
method			wB97X-V
BASIS			def2-TZVPD
XC_GRID			000099000590
NL_GRID			1
UNRESTRICTED		FALSE
MAX_SCF_CYCLES		200
SYMMETRY		FALSE
SYM_IGNORE		TRUE
MEM_STATIC		2000
BASIS_LIN_DEP_THRESH 	6
THRESH 			14
SCF_CONVERGENCE 	8
SCF_PRINT_FRGM 		TRUE
SOLVENT_METHOD          SMD
$end

$SMX
SOLVENT			WATER
$END
--------------------------------------------------------------
 ----------------------------------------------------------------
             Standard Nuclear Orientation (Angstroms)
    I     Atom           X                Y                Z
 ----------------------------------------------------------------
    1      C      -0.3561820257     0.2885191863     1.9021713164
    2      C      -1.3531820257    -0.8394808137     1.6991713164
    3      O      -1.5461820257    -1.7134808137     2.5411713164
    4      N      -1.9641820257    -0.8584808137     0.5361713164
    5      H      -2.6281820257    -1.5944808137     0.3461713164
    6      H      -1.7081820257    -0.1854808137    -0.1758286836
    7      H      -0.7721820257     1.2165191863     1.5061713164
    8      H       0.5348179743     0.0485191863     1.3231713164
    9      H      -0.0935200257     0.4417991863     2.9593013164
   10      C       2.0198179743     1.9285191863    -1.1218286836
   11      C       1.2398179743     0.7395191863    -1.6408286836
   12      O       0.0288179743     0.6495191863    -1.4328286836
   13      N       1.9188179743    -0.1464808137    -2.3558286836
   14      H       3.0678179743     1.6645191863    -0.9718286836
   15      H       1.5968179743     2.1875191863    -0.1498286836
   16      H       1.4168179743    -0.9194808137    -2.7638286836
   17      H       2.9048179743     0.0045191863    -2.5508286836
   18      H       1.9341269743     2.7775091863    -1.8159986836
 ----------------------------------------------------------------
 Nuclear Repulsion Energy =         364.08877775 hartrees
 There are       32 alpha and       32 beta electrons
 Requested basis set is def2-TZVPD
 There are 156 shells and 392 basis functions

 Total QAlloc Memory Limit  96000 MB
 Mega-Array Size      1956 MB
 MEM_STATIC part      2000 MB
 
 Citation of the SMD model:
 Marenich, A.V.; Cramer, C.J.; Truhlar, D.G.
 J. Phys. Chem. B 2009, 113, 6378-6396.
 iSolventCode=           1
 Solvent: water                                                           
 
 vradii
            1           2           3           4           5           6
    1   1.8500000   1.8500000   1.5200000   1.8900000   1.2000000   1.2000000
            7           8           9          10          11          12
    1   1.2000000   1.2000000   1.2000000   1.8500000   1.8500000   1.5200000
           13          14          15          16          17          18
    1   1.8900000   1.2000000   1.2000000   1.2000000   1.2000000   1.2000000
 Changing PCM_VDW_RADII to SMD_RADIUS
 Discretize the solute cavity surface with Lebedev spheres
	Using 110 Lebedev grid points for each H atom
	Using 194 Lebedev grid points for other atoms
	Atomic van der Waals radii will be scaled by 1.20
 Remove points where switching function is < 1.0e-08
 Keep 1425 surface tesserae and discard 1227 interior tesserae
 Molecular Surface Area = 175.892 Angst**2
 A cutoff of  1.0D-14 yielded  11041 shell pairs
 There are     69921 function pairs (     87643 Cartesian)
 Smallest overlap matrix eigenvalue = 5.95E-06

 Scale SEOQF with 1.000000e-01/1.000000e-01/1.000000e-01

 Standard Electronic Orientation quadrupole field applied
 Nucleus-field energy     =    -0.0000000103 hartrees

 -----------------------------------------------------------------------
  General SCF calculation program by
  Eric Jon Sundstrom, Paul Horn, Yuezhi Mao, Dmitri Zuev, Alec White,
  David Stuck, Shaama M.S., Shane Yost, Joonho Lee, David Small,
  Daniel Levine, Susi Lehtola, Hugh Burton, Evgeny Epifanovsky
 -----------------------------------------------------------------------
================================================================
                 ALMO-EDA with the EDA2 driver                  
================================================================
 The second-generation ALMO-EDA (for DFT):                      
 P. R. Horn, Y. Mao and M. Head-Gordon, PCCP, 18, 23067 (2016)  
 Decomposition of the frozen energy:                            
 P. R. Horn, Y. Mao and M. Head-Gordon, JCP, 144, 114107 (2016) 
 FERF model for polarization:                                   
 P. R. Horn and M. Head-Gordon, JCP, 143, 114111 (2015)         
Using eda2 option set 1
Option set summary: Frozen orbital wavefunction, initial wavefunction decomposition, and nDQ polarization.
--------------------------------
Printing EDA Options
--------------------------------
eda_child_super_basis      0
fragmo_guess_mode          0
child_mp                   1
child_mp_orders            232
cls_elec                   1
cls_disp                   0
scfmi_mode                 1
scfmi_occs                 0
scfmi_virts                0
frz_relax                  0
frz_relax_method           0
dc_pen_start               0
dc_pen_conv                0
dc_pen_increment           0
dc_pen_steps               0
dc_pen_thresh_factor       0
dc_pen_pre_newton_thresh   0
frz_ortho_decomp           1
frz_ortho_decomp_conv      6
frgm_method                2
scfmi_freeze_ss            0
separate_rehyb             0
plot_diff_den              0
eda_nocv                   0
eda_vct_relax              1
disp_free_x                0
disp_free_c                0
eda_bsse                   0
eda_pct_a                  0
eda_covp                   0
--------------------------------
Attempting to make child job directory: /tmp/qchem40034//Frg1/
Attempting to make child job directory: /tmp/qchem40034//Frg2/
Creating input file /tmp/qchem40034/Frg1.input
using default PutDataFrgm: nothing
calling putenv with: QCSCRATCH=/tmp/qchem40034/ 
calling putenv with: QCLOCALSCR=/tmp/qchem40034/ 
Spawning Job For Fragment 0
                  Welcome to Q-Chem
     A Quantum Leap Into The Future Of Chemistry


 Q-Chem 5.2, Q-Chem, Inc., Pleasanton, CA (2019)

 License issued to: National Energy Research Scientific Computing Center

 Yihan Shao,  Zhengting Gan,  E. Epifanovsky,  A. T. B. Gilbert,  M. Wormit,  
 J. Kussmann,  A. W. Lange,  A. Behn,  Jia Deng,  Xintian Feng,  D. Ghosh,  
 M. Goldey,  P. R. Horn,  L. D. Jacobson,  I. Kaliman,  T. Kus,  A. Landau,  
 Jie Liu,  E. I. Proynov,  R. M. Richard,  R. P. Steele,  E. J. Sundstrom,  
 H. L. Woodcock III,  P. M. Zimmerman,  D. Zuev,  B. Albrecht,  E. Alguire,  
 S. A. Baeppler,  D. Barton,  Z. Benda,  Y. A. Bernard,  E. J. Berquist,  
 K. B. Bravaya,  H. Burton,  D. Casanova,  Chun-Min Chang,  Yunqing Chen,  
 A. Chien,  K. D. Closser,  M. P. Coons,  S. Coriani,  S. Dasgupta,  
 A. L. Dempwolff,  M. Diedenhofen,  Hainam Do,  R. G. Edgar,  Po-Tung Fang,  
 S. Faraji,  S. Fatehi,  Qingguo Feng,  K. D. Fenk,  J. Fosso-Tande,  
 J. Gayvert,  Qinghui Ge,  A. Ghysels,  G. Gidofalvi,  J. Gomes,  
 J. Gonthier,  A. Gunina,  D. Hait,  M. W. D. Hanson-Heine,  
 P. H. P. Harbach,  A. W. Hauser,  M. F. Herbst,  J. E. Herr,  
 E. G. Hohenstein,  Z. C. Holden,  Kerwin Hui,  B. C. Huynh,  T.-C. Jagau,  
 Hyunjun Ji,  B. Kaduk,  K. Khistyaev,  Jaehoon Kim,  P. Klunzinger,  K. Koh,  
 D. Kosenkov,  L. Koulias,  T. Kowalczyk,  C. M. Krauter,  A. Kunitsa,  
 Ka Un Lao,  A. Laurent,  K. V. Lawler,  Joonho Lee,  D. Lefrancois,  
 S. Lehtola,  D. S. Levine,  Yi-Pei Li,  You-Sheng Lin,  Fenglai Liu,  
 E. Livshits,  A. Luenser,  P. Manohar,  E. Mansoor,  S. F. Manzer,  
 Shan-Ping Mao,  Yuezhi Mao,  N. Mardirossian,  A. V. Marenich,  
 T. Markovich,  L. A. Martinez-Martinez,  S. A. Maurer,  N. J. Mayhall,  
 S. C. McKenzie,  J.-M. Mewes,  P. Morgante,  A. F. Morrison,  
 J. W. Mullinax,  K. Nanda,  T. S. Nguyen-Beck,  R. Olivares-Amaya,  
 J. A. Parkhill,  Zheng Pei,  T. M. Perrine,  F. Plasser,  P. Pokhilko,  
 S. Prager,  A. Prociuk,  E. Ramos,  D. R. Rehn,  F. Rob,  M. Scheurer,  
 M. Schneider,  N. Sergueev,  S. M. Sharada,  S. Sharma,  D. W. Small,  
 T. Stauch,  T. Stein,  Yu-Chuan Su,  A. J. W. Thom,  A. Tkatchenko,  
 T. Tsuchimochi,  N. M. Tubman,  L. Vogt,  M. L. Vidal,  O. Vydrov,  
 M. A. Watson,  J. Wenzel,  M. de Wergifosse,  T. A. Wesolowski,  A. White,  
 J. Witte,  A. Yamada,  Jun Yang,  K. Yao,  S. Yeganeh,  S. R. Yost,  
 Zhi-Qiang You,  A. Zech,  Igor Ying Zhang,  Xing Zhang,  Yan Zhao,  
 Ying Zhu,  B. R. Brooks,  G. K. L. Chan,  C. J. Cramer,  M. S. Gordon,  
 W. J. Hehre,  A. Klamt,  M. W. Schmidt,  C. D. Sherrill,  D. G. Truhlar,  
 A. Aspuru-Guzik,  R. Baer,  A. T. Bell,  N. A. Besley,  Jeng-Da Chai,  
 A. E. DePrince, III,  R. A. DiStasio Jr.,  A. Dreuw,  B. D. Dunietz,  
 T. R. Furlani,  Chao-Ping Hsu,  Yousung Jung,  Jing Kong,  D. S. Lambrecht,  
 WanZhen Liang,  C. Ochsenfeld,  V. A. Rassolov,  L. V. Slipchenko,  
 J. E. Subotnik,  T. Van Voorhis,  J. M. Herbert,  A. I. Krylov,  
 P. M. W. Gill,  M. Head-Gordon

 Contributors to earlier versions of Q-Chem not listed above: 
 R. D. Adamson,  B. Austin,  J. Baker,  G. J. O. Beran,  K. Brandhorst,  
 S. T. Brown,  E. F. C. Byrd,  A. K. Chakraborty,  C.-L. Cheng,  
 Siu Hung Chien,  D. M. Chipman,  D. L. Crittenden,  H. Dachsel,  
 R. J. Doerksen,  A. D. Dutoi,  L. Fusti-Molnar,  W. A. Goddard III,  
 A. Golubeva-Zadorozhnaya,  S. R. Gwaltney,  G. Hawkins,  A. Heyden,  
 S. Hirata,  G. Kedziora,  F. J. Keil,  C. Kelley,  Jihan Kim,  R. A. King,  
 R. Z. Khaliullin,  P. P. Korambath,  W. Kurlancheek,  A. M. Lee,  M. S. Lee,  
 S. V. Levchenko,  Ching Yeh Lin,  D. Liotard,  R. C. Lochan,  I. Lotan,  
 P. E. Maslen,  N. Nair,  D. P. O'Neill,  D. Neuhauser,  E. Neuscamman,  
 C. M. Oana,  R. Olson,  B. Peters,  R. Peverati,  P. A. Pieniazek,  
 Y. M. Rhee,  J. Ritchie,  M. A. Rohrdanz,  E. Rosta,  N. J. Russ,  
 H. F. Schaefer III,  N. E. Schultz,  N. Shenvi,  A. C. Simmonett,  A. Sodt,  
 D. Stuck,  K. S. Thanthiriwatte,  V. Vanovschi,  Tao Wang,  A. Warshel,  
 C. F. Williams,  Q. Wu,  X. Xu,  W. Zhang

 Please cite Q-Chem as follows:
 Y. Shao et al., Mol. Phys. 113, 184-215 (2015)
 DOI: 10.1080/00268976.2014.952696

 Q-Chem 5.2.0 for Intel X86 EM64T Linux

 Parts of Q-Chem use Armadillo 8.300.2 (Tropical Shenanigans).
 http://arma.sourceforge.net/

 Q-Chem begins on Sun Sep 26 12:21:59 2021  

Host: cori01
0

     Scratch files written to /tmp/qchem40034//Frg1//
 May1019 |scratch|qcdevops|jenkins|workspace|build_RNUM -1
Processing $rem in /global/common/cori/software/qchem/5.2/config/preferences:
	 MEM_TOTAL  96000 
NAlpha2: 32
NElect   32
Mult     1
Symmetry turned off for PCM/SM12/SMD calculation

Checking the input file for inconsistencies... 	...done.

--------------------------------------------------------------
User input:
--------------------------------------------------------------
$molecule
0 1
 6	-0.3561820257	0.2885191863	1.9021713164
 6	-1.3531820257	-0.8394808137	1.6991713164
 8	-1.5461820257	-1.7134808137	2.5411713164
 7	-1.9641820257	-0.8584808137	0.5361713164
 1	-2.6281820257	-1.5944808137	0.3461713164
 1	-1.7081820257	-0.1854808137	-0.1758286836
 1	-0.7721820257	1.2165191863	1.5061713164
 1	0.5348179743	0.0485191863	1.3231713164
 1	-0.0935200257	0.4417991863	2.9593013164
$end
$rem
EDA2		1
METHOD		WB97X-V
BASIS		DEF2-TZVPD
XC_GRID		000099000590
NL_GRID		1
UNRESTRICTED		FALSE
MAX_SCF_CYCLES		200
SYMMETRY		FALSE
SYM_IGNORE		TRUE
BASIS_LIN_DEP_THRESH		6
THRESH		14
SCF_CONVERGENCE		8
SCF_PRINT_FRGM		TRUE
SOLVENT_METHOD		SMD
!required keywords
JOBTYPE		SP
SYM_IGNORE		TRUE
SUBSYSTEM		TRUE
GEN_SCFMAN		TRUE
CHILD_INSTRUCTION		2
SYM_IGNORE		TRUE
SCFMI		0
RI_K 0		
PARI_K 0		
MIN_PARI_K 0		
IARI_K 0		
OCC_RI_K 0		
PURECART		1111
MEM_STATIC		2000
MEM_TOTAL		96000
GUI		0
CHILD_MP		1
CHILD_MP_ORDERS		232
FRZ_RELAX		0
FRZ_RELAX_METHOD		0
EDA_CLS_ELEC		1
EDA_CLS_DISP		0
FRZ_ORTHO_DECOMP		1
EDA2		FALSE
FRGM_METHOD		FALSE
CIS_N_ROOTS  0
LOCAL_CIS    0
CIS_RLX_DNS  1
$end
$smx
SOLVENT			WATER
$end
--------------------------------------------------------------
 ----------------------------------------------------------------
             Standard Nuclear Orientation (Angstroms)
    I     Atom           X                Y                Z
 ----------------------------------------------------------------
    1      C      -0.3561820257     0.2885191863     1.9021713164
    2      C      -1.3531820257    -0.8394808137     1.6991713164
    3      O      -1.5461820257    -1.7134808137     2.5411713164
    4      N      -1.9641820257    -0.8584808137     0.5361713164
    5      H      -2.6281820257    -1.5944808137     0.3461713164
    6      H      -1.7081820257    -0.1854808137    -0.1758286836
    7      H      -0.7721820257     1.2165191863     1.5061713164
    8      H       0.5348179743     0.0485191863     1.3231713164
    9      H      -0.0935200257     0.4417991863     2.9593013164
 ----------------------------------------------------------------
 Nuclear Repulsion Energy =         122.57270631 hartrees
 There are       16 alpha and       16 beta electrons
 Requested basis set is def2-TZVPD
 There are 78 shells and 196 basis functions

 Total QAlloc Memory Limit  96000 MB
 Mega-Array Size      1956 MB
 MEM_STATIC part      2000 MB
 
 Citation of the SMD model:
 Marenich, A.V.; Cramer, C.J.; Truhlar, D.G.
 J. Phys. Chem. B 2009, 113, 6378-6396.
 iSolventCode=           1
 Solvent: water                                                           
 
 vradii
            1           2           3           4           5           6
    1   1.8500000   1.8500000   1.5200000   1.8900000   1.2000000   1.2000000
            7           8           9
    1   1.2000000   1.2000000   1.2000000
 Changing PCM_VDW_RADII to SMD_RADIUS
 Discretize the solute cavity surface with Lebedev spheres
	Using 110 Lebedev grid points for each H atom
	Using 194 Lebedev grid points for other atoms
	Atomic van der Waals radii will be scaled by 1.20
 Remove points where switching function is < 1.0e-08
 Keep 717 surface tesserae and discard 609 interior tesserae
 Molecular Surface Area = 89.956 Angst**2

                       Distance Matrix (Angstroms)
             C (  1)   C (  2)   O (  3)   N (  4)   H (  5)   H (  6)
   C (  2)  1.519079
   O (  3)  2.415041  1.228857
   N (  4)  2.401506  1.313869  2.219408
   H (  5)  3.335987  2.006554  2.450084  1.009303
   H (  6)  2.524017  2.017267  3.121397  1.012625  1.761864
   H (  7)  1.091355  2.145215  3.202374  2.582129  3.562591  2.381349
   H (  8)  1.089368  2.120015  2.986424  2.772547  3.695747  2.707915
   H (  9)  1.100005  2.194619  2.632545  3.325908  4.171258  3.581851
             H (  7)   H (  8)
   H (  8)  1.762374
   H (  9)  1.781112  1.796218
 
 A cutoff of  1.0D-14 yielded   3055 shell pairs
 There are     19545 function pairs (     24703 Cartesian)
 Smallest overlap matrix eigenvalue = 1.08E-05

 Scale SEOQF with 1.000000e-01/1.000000e-01/1.000000e-01

 Standard Electronic Orientation quadrupole field applied
 Nucleus-field energy     =    -0.0000000062 hartrees
 Guess from superposition of atomic densities
 Warning:  Energy on first SCF cycle will be non-variational
 SAD guess density has 31.604610 electrons

 -----------------------------------------------------------------------
  General SCF calculation program by
  Eric Jon Sundstrom, Paul Horn, Yuezhi Mao, Dmitri Zuev, Alec White,
  David Stuck, Shaama M.S., Shane Yost, Joonho Lee, David Small,
  Daniel Levine, Susi Lehtola, Hugh Burton, Evgeny Epifanovsky
 -----------------------------------------------------------------------
 Exchange:     0.1670 Hartree-Fock + 1.0000 wB97X-V + LR-HF
 Correlation:  1.0000 wB97X-V
 Using Euler-Maclaurin-Lebedev (99,590) quadrature formula
 Nonlocal Correlation:  VV10 with C = 0.0100 and b = 6.00 and scale = 1.00000
 Grid used for NLC:  SG-1 standard quadrature
Energy prior to optimization (guess energy) = -208.703318547962
Begin Timing: Total SCF Calculation
begin iterations for algorithm: DIIS         
the SCF tolerance is set to 1.00e-08
    1    -208.7033185480      1.26e-02     00000 
    2    -208.3207751332      1.54e-02     00000 
    3    -209.2356300059      2.37e-03     00000 
    4    -209.2544511118      7.79e-04     00000 
    5    -209.2575975277      1.99e-04     00000 
    6    -209.2578748553      6.69e-05     00000 
    7    -209.2579162294      2.10e-05     00000 
    8    -209.2579215244      6.03e-06     00000 
    9    -209.2579223135      2.03e-06     00000 
   10    -209.2579223654      3.18e-07     00000 
   11    -209.2579223666      1.39e-07     00000 
   12    -209.2579223667      2.19e-08     00000 
   13    -209.2579223667      5.05e-09     00000 Convergence criterion met
Timing for Total SCF: 365.00s (wall), 720.78s (cpu)
(3)  G-ENP(liq) elect-nuc-pol free energy of system     -209.257922367 a.u.
(4)  G-CDS(liq) cavity-dispersion-solvent structure 
     free energy                                                3.5048 kcal/mol
(6)  G-S(liq) free energy of system                     -209.252337040 a.u.
E_pcm = -0.0304083315
E_cds = 0.0055853272
Multipole orders to be included
        2
        3
computing dipole RHS
computing quadrupole RHS
total number of RHS in solve_reponses: 8
RHS batch sizes
        8
Beginning Block Conjugate Gradient Iterations. Batch Number: 0
computing hessian-vector products by finite difference
              1      6.37e-01     00000 Conjugate Gradient Iteration
computing hessian-vector products by finite difference
              2      2.07e-01     00000 Conjugate Gradient Iteration
computing hessian-vector products by finite difference
              3      5.79e-02     00000 Conjugate Gradient Iteration
computing hessian-vector products by finite difference
              4      1.46e-02     00000 Conjugate Gradient Iteration
computing hessian-vector products by finite difference
              5      1.96e-03     00000 Conjugate Gradient Iteration
computing hessian-vector products by finite difference
              6      4.50e-04     00000 Conjugate Gradient Iteration
computing hessian-vector products by finite difference
              7      6.18e-05     00000 Conjugate Gradient Iteration
computing hessian-vector products by finite difference
              8      7.23e-06     00000 Conjugate Gradient Iteration
computing hessian-vector products by finite difference
              9      1.03e-06     00000 Conjugate Gradient Iteration
computing hessian-vector products by finite difference
             10      1.09e-07     00000 Conjugate Gradient Iteration
computing hessian-vector products by finite difference
             11      1.44e-08     00000 Conjugate Gradient Iteration
computing hessian-vector products by finite difference
             12      3.53e-09     00000 CG Converged
batch 0 complete
Done Calculating Responses
TESTING ORTHOGONALIZATION OF MULTIPOLE BASIS
Multipole virts passed orthogonality test
Virts Per Order
        48
        80
 
 --------------------------------------------------------------
 
                    Orbital Energies (a.u.)
 --------------------------------------------------------------
 
 Alpha MOs
 -- Occupied --
-19.1825 -14.4255 -10.3759 -10.2629  -1.1772  -1.0436  -0.8625  -0.7077
 -0.6528  -0.5904  -0.5659  -0.5190  -0.4994  -0.4780  -0.3835  -0.3745
 -- Virtual --
  0.0639   0.0957   0.0977   0.1034   0.1295   0.1336   0.1418   0.1477
  0.1739   0.1907   0.2027   0.2171   0.2304   0.2456   0.2480   0.2602
  0.2635   0.2815   0.3069   0.3146   0.3360   0.3369   0.3470   0.3525
  0.3596   0.3722   0.3806   0.3849   0.3923   0.4058   0.4193   0.4246
  0.4313   0.4542   0.4570   0.4782   0.4870   0.4896   0.4969   0.5034
  0.5295   0.5332   0.5445   0.5734   0.5844   0.5885   0.6311   0.6402
  0.6493   0.6556   0.6648   0.6921   0.7043   0.7150   0.7297   0.7708
  0.7804   0.7868   0.8044   0.8147   0.8204   0.8431   0.8485   0.8751
  0.9240   0.9512   0.9808   0.9942   0.9989   1.0446   1.0627   1.1022
  1.1117   1.1744   1.2252   1.2595   1.2845   1.3187   1.3377   1.3942
  1.4777   1.4894   1.5107   1.6229   1.6899   1.7360   1.7485   1.8086
  1.8356   1.8801   1.8956   1.9228   1.9312   1.9448   2.0020   2.0196
  2.0668   2.0936   2.1481   2.1791   2.2219   2.2658   2.3219   2.3491
  2.3746   2.4120   2.4432   2.4747   2.5508   2.5723   2.6269   2.6363
  2.6859   2.7384   2.7415   2.8318   2.8491   2.9105   2.9585   2.9908
  3.0444   3.1163   3.1403   3.1665   3.2025   3.2319   3.2812   3.2888
  3.3176   3.3322   3.3560   3.4119   3.4478   3.5369   3.5484   3.5766
  3.6223   3.6500   3.7221   3.7642   3.8784   3.9506   4.0124   4.0525
  4.0783   4.1912   4.3013   4.4176   4.5538   4.5929   4.6210   4.6510
  4.7915   4.8981   4.8998   4.9368   5.1439   5.1874   5.2626   5.3531
  5.3865   5.4027   5.4307   5.4835   5.5459   5.7698   5.9221   6.1444
  6.2613   6.5225   6.6326   6.7347   6.8365   6.9735   7.2255   7.3158
 22.5991  23.6153  32.4270  44.3135
 --------------------------------------------------------------
 
          Ground-State Mulliken Net Atomic Charges

     Atom                 Charge (a.u.)
  ----------------------------------------
      1 C                    -0.671474
      2 C                     0.476036
      3 O                    -0.700287
      4 N                    -0.309718
      5 H                     0.251863
      6 H                     0.237329
      7 H                     0.249800
      8 H                     0.223671
      9 H                     0.242780
  ----------------------------------------
  Sum of atomic charges =     0.000000

 -----------------------------------------------------------------
                    Cartesian Multipole Moments
 -----------------------------------------------------------------
    Charge (ESU x 10^10)
                 0.0000
    Dipole Moment (Debye)
         X       0.2938      Y       3.5003      Z      -4.9281
       Tot       6.0518
    Quadrupole Moments (Debye-Ang)
        XX     -23.4631     XY      -3.4991     YY     -31.1173
        XZ       9.7095     YZ      12.4586     ZZ     -39.2150
    Octopole Moments (Debye-Ang^2)
       XXX      86.5276    XXY      17.3504    XYY      37.3073
       YYY      66.1102    XXZ     -57.5851    XYZ     -18.8713
       YYZ     -63.9082    XZZ      57.5703    YZZ      53.1239
       ZZZ    -165.2548
    Hexadecapole Moments (Debye-Ang^3)
      XXXX    -306.4664   XXXY     -81.5212   XXYY     -88.7434
      XYYY    -112.0721   YYYY    -222.3840   XXXZ     164.9467
      XXYZ      61.0231   XYYZ      80.8578   YYYZ     138.9263
      XXZZ    -187.5875   XYZZ     -85.6162   YYZZ    -184.8506
      XZZZ     212.7715   YZZZ     193.3676   ZZZZ    -644.7894
 -----------------------------------------------------------------
Archival summary:
1\1\nid00536\SP\ProcedureUnspecified\BasisUnspecified\1125\meili\SunSep2614:09:022021SunSep2614:09:022021\0\\#,ProcedureUnspecified,BasisUnspecified,\\0,1\C\O,1,1.22886\N,1,1.31387,2,121.546\H,3,1.0093,1,118.889,2,1.92957,0\H,3,1.01262,1,119.683,2,-173.138,0\C,1,1.51908,2,122.659,3,-177.127,0\H,6,1.08937,1,107.589,2,102.439,0\H,6,1.09136,1,109.436,2,-140.654,0\H,6,1.1,1,112.868,2,-19.4204,0\\\@

 Total job time:  6423.94s(wall), 12638.49s(cpu) 
 Sun Sep 26 14:09:03 2021

        *************************************************************
        *                                                           *
        *  Thank you very much for using Q-Chem.  Have a nice day.  *
        *                                                           *
        *************************************************************


Done Job For Fragment 0
calling putenv with: QCSCRATCH=/global/cscratch1/sd/meili 
calling putenv with: QCLOCALSCR=/tmp 
calling putenv with: QCTHREADS=32 
Creating input file /tmp/qchem40034/Frg2.input
using default PutDataFrgm: nothing
calling putenv with: QCSCRATCH=/tmp/qchem40034/ 
calling putenv with: QCLOCALSCR=/tmp/qchem40034/ 
Spawning Job For Fragment 1
                  Welcome to Q-Chem
     A Quantum Leap Into The Future Of Chemistry


 Q-Chem 5.2, Q-Chem, Inc., Pleasanton, CA (2019)

 License issued to: National Energy Research Scientific Computing Center

 Yihan Shao,  Zhengting Gan,  E. Epifanovsky,  A. T. B. Gilbert,  M. Wormit,  
 J. Kussmann,  A. W. Lange,  A. Behn,  Jia Deng,  Xintian Feng,  D. Ghosh,  
 M. Goldey,  P. R. Horn,  L. D. Jacobson,  I. Kaliman,  T. Kus,  A. Landau,  
 Jie Liu,  E. I. Proynov,  R. M. Richard,  R. P. Steele,  E. J. Sundstrom,  
 H. L. Woodcock III,  P. M. Zimmerman,  D. Zuev,  B. Albrecht,  E. Alguire,  
 S. A. Baeppler,  D. Barton,  Z. Benda,  Y. A. Bernard,  E. J. Berquist,  
 K. B. Bravaya,  H. Burton,  D. Casanova,  Chun-Min Chang,  Yunqing Chen,  
 A. Chien,  K. D. Closser,  M. P. Coons,  S. Coriani,  S. Dasgupta,  
 A. L. Dempwolff,  M. Diedenhofen,  Hainam Do,  R. G. Edgar,  Po-Tung Fang,  
 S. Faraji,  S. Fatehi,  Qingguo Feng,  K. D. Fenk,  J. Fosso-Tande,  
 J. Gayvert,  Qinghui Ge,  A. Ghysels,  G. Gidofalvi,  J. Gomes,  
 J. Gonthier,  A. Gunina,  D. Hait,  M. W. D. Hanson-Heine,  
 P. H. P. Harbach,  A. W. Hauser,  M. F. Herbst,  J. E. Herr,  
 E. G. Hohenstein,  Z. C. Holden,  Kerwin Hui,  B. C. Huynh,  T.-C. Jagau,  
 Hyunjun Ji,  B. Kaduk,  K. Khistyaev,  Jaehoon Kim,  P. Klunzinger,  K. Koh,  
 D. Kosenkov,  L. Koulias,  T. Kowalczyk,  C. M. Krauter,  A. Kunitsa,  
 Ka Un Lao,  A. Laurent,  K. V. Lawler,  Joonho Lee,  D. Lefrancois,  
 S. Lehtola,  D. S. Levine,  Yi-Pei Li,  You-Sheng Lin,  Fenglai Liu,  
 E. Livshits,  A. Luenser,  P. Manohar,  E. Mansoor,  S. F. Manzer,  
 Shan-Ping Mao,  Yuezhi Mao,  N. Mardirossian,  A. V. Marenich,  
 T. Markovich,  L. A. Martinez-Martinez,  S. A. Maurer,  N. J. Mayhall,  
 S. C. McKenzie,  J.-M. Mewes,  P. Morgante,  A. F. Morrison,  
 J. W. Mullinax,  K. Nanda,  T. S. Nguyen-Beck,  R. Olivares-Amaya,  
 J. A. Parkhill,  Zheng Pei,  T. M. Perrine,  F. Plasser,  P. Pokhilko,  
 S. Prager,  A. Prociuk,  E. Ramos,  D. R. Rehn,  F. Rob,  M. Scheurer,  
 M. Schneider,  N. Sergueev,  S. M. Sharada,  S. Sharma,  D. W. Small,  
 T. Stauch,  T. Stein,  Yu-Chuan Su,  A. J. W. Thom,  A. Tkatchenko,  
 T. Tsuchimochi,  N. M. Tubman,  L. Vogt,  M. L. Vidal,  O. Vydrov,  
 M. A. Watson,  J. Wenzel,  M. de Wergifosse,  T. A. Wesolowski,  A. White,  
 J. Witte,  A. Yamada,  Jun Yang,  K. Yao,  S. Yeganeh,  S. R. Yost,  
 Zhi-Qiang You,  A. Zech,  Igor Ying Zhang,  Xing Zhang,  Yan Zhao,  
 Ying Zhu,  B. R. Brooks,  G. K. L. Chan,  C. J. Cramer,  M. S. Gordon,  
 W. J. Hehre,  A. Klamt,  M. W. Schmidt,  C. D. Sherrill,  D. G. Truhlar,  
 A. Aspuru-Guzik,  R. Baer,  A. T. Bell,  N. A. Besley,  Jeng-Da Chai,  
 A. E. DePrince, III,  R. A. DiStasio Jr.,  A. Dreuw,  B. D. Dunietz,  
 T. R. Furlani,  Chao-Ping Hsu,  Yousung Jung,  Jing Kong,  D. S. Lambrecht,  
 WanZhen Liang,  C. Ochsenfeld,  V. A. Rassolov,  L. V. Slipchenko,  
 J. E. Subotnik,  T. Van Voorhis,  J. M. Herbert,  A. I. Krylov,  
 P. M. W. Gill,  M. Head-Gordon

 Contributors to earlier versions of Q-Chem not listed above: 
 R. D. Adamson,  B. Austin,  J. Baker,  G. J. O. Beran,  K. Brandhorst,  
 S. T. Brown,  E. F. C. Byrd,  A. K. Chakraborty,  C.-L. Cheng,  
 Siu Hung Chien,  D. M. Chipman,  D. L. Crittenden,  H. Dachsel,  
 R. J. Doerksen,  A. D. Dutoi,  L. Fusti-Molnar,  W. A. Goddard III,  
 A. Golubeva-Zadorozhnaya,  S. R. Gwaltney,  G. Hawkins,  A. Heyden,  
 S. Hirata,  G. Kedziora,  F. J. Keil,  C. Kelley,  Jihan Kim,  R. A. King,  
 R. Z. Khaliullin,  P. P. Korambath,  W. Kurlancheek,  A. M. Lee,  M. S. Lee,  
 S. V. Levchenko,  Ching Yeh Lin,  D. Liotard,  R. C. Lochan,  I. Lotan,  
 P. E. Maslen,  N. Nair,  D. P. O'Neill,  D. Neuhauser,  E. Neuscamman,  
 C. M. Oana,  R. Olson,  B. Peters,  R. Peverati,  P. A. Pieniazek,  
 Y. M. Rhee,  J. Ritchie,  M. A. Rohrdanz,  E. Rosta,  N. J. Russ,  
 H. F. Schaefer III,  N. E. Schultz,  N. Shenvi,  A. C. Simmonett,  A. Sodt,  
 D. Stuck,  K. S. Thanthiriwatte,  V. Vanovschi,  Tao Wang,  A. Warshel,  
 C. F. Williams,  Q. Wu,  X. Xu,  W. Zhang

 Please cite Q-Chem as follows:
 Y. Shao et al., Mol. Phys. 113, 184-215 (2015)
 DOI: 10.1080/00268976.2014.952696

 Q-Chem 5.2.0 for Intel X86 EM64T Linux

 Parts of Q-Chem use Armadillo 8.300.2 (Tropical Shenanigans).
 http://arma.sourceforge.net/

 Q-Chem begins on Sun Sep 26 14:09:05 2021  

Host: cori01
0

     Scratch files written to /tmp/qchem40034//Frg2//
 May1019 |scratch|qcdevops|jenkins|workspace|build_RNUM -1
Processing $rem in /global/common/cori/software/qchem/5.2/config/preferences:
	 MEM_TOTAL  96000 
NAlpha2: 32
NElect   32
Mult     1
Symmetry turned off for PCM/SM12/SMD calculation

Checking the input file for inconsistencies... 	...done.

--------------------------------------------------------------
User input:
--------------------------------------------------------------
$molecule
0 1
 6	2.0198179743	1.9285191863	-1.1218286836
 6	1.2398179743	0.7395191863	-1.6408286836
 8	0.0288179743	0.6495191863	-1.4328286836
 7	1.9188179743	-0.1464808137	-2.3558286836
 1	3.0678179743	1.6645191863	-0.9718286836
 1	1.5968179743	2.1875191863	-0.1498286836
 1	1.4168179743	-0.9194808137	-2.7638286836
 1	2.9048179743	0.0045191863	-2.5508286836
 1	1.9341269743	2.7775091863	-1.8159986836
$end
$rem
EDA2		1
METHOD		WB97X-V
BASIS		DEF2-TZVPD
XC_GRID		000099000590
NL_GRID		1
UNRESTRICTED		FALSE
MAX_SCF_CYCLES		200
SYMMETRY		FALSE
SYM_IGNORE		TRUE
BASIS_LIN_DEP_THRESH		6
THRESH		14
SCF_CONVERGENCE		8
SCF_PRINT_FRGM		TRUE
SOLVENT_METHOD		SMD
!required keywords
JOBTYPE		SP
SYM_IGNORE		TRUE
SUBSYSTEM		TRUE
GEN_SCFMAN		TRUE
CHILD_INSTRUCTION		2
SYM_IGNORE		TRUE
SCFMI		0
RI_K 0		
PARI_K 0		
MIN_PARI_K 0		
IARI_K 0		
OCC_RI_K 0		
PURECART		1111
MEM_STATIC		2000
MEM_TOTAL		96000
GUI		0
CHILD_MP		1
CHILD_MP_ORDERS		232
FRZ_RELAX		0
FRZ_RELAX_METHOD		0
EDA_CLS_ELEC		1
EDA_CLS_DISP		0
FRZ_ORTHO_DECOMP		1
EDA2		FALSE
FRGM_METHOD		FALSE
CIS_N_ROOTS  0
LOCAL_CIS    0
CIS_RLX_DNS  1
$end
$smx
SOLVENT			WATER
$end
--------------------------------------------------------------
 ----------------------------------------------------------------
             Standard Nuclear Orientation (Angstroms)
    I     Atom           X                Y                Z
 ----------------------------------------------------------------
    1      C       2.0198179743     1.9285191863    -1.1218286836
    2      C       1.2398179743     0.7395191863    -1.6408286836
    3      O       0.0288179743     0.6495191863    -1.4328286836
    4      N       1.9188179743    -0.1464808137    -2.3558286836
    5      H       3.0678179743     1.6645191863    -0.9718286836
    6      H       1.5968179743     2.1875191863    -0.1498286836
    7      H       1.4168179743    -0.9194808137    -2.7638286836
    8      H       2.9048179743     0.0045191863    -2.5508286836
    9      H       1.9341269743     2.7775091863    -1.8159986836
 ----------------------------------------------------------------
 Nuclear Repulsion Energy =         122.28642845 hartrees
 There are       16 alpha and       16 beta electrons
 Requested basis set is def2-TZVPD
 There are 78 shells and 196 basis functions

 Total QAlloc Memory Limit  96000 MB
 Mega-Array Size      1956 MB
 MEM_STATIC part      2000 MB
 
 Citation of the SMD model:
 Marenich, A.V.; Cramer, C.J.; Truhlar, D.G.
 J. Phys. Chem. B 2009, 113, 6378-6396.
 iSolventCode=           1
 Solvent: water                                                           
 
 vradii
            1           2           3           4           5           6
    1   1.8500000   1.8500000   1.5200000   1.8900000   1.2000000   1.2000000
            7           8           9
    1   1.2000000   1.2000000   1.2000000
 Changing PCM_VDW_RADII to SMD_RADIUS
 Discretize the solute cavity surface with Lebedev spheres
	Using 110 Lebedev grid points for each H atom
	Using 194 Lebedev grid points for other atoms
	Atomic van der Waals radii will be scaled by 1.20
 Remove points where switching function is < 1.0e-08
 Keep 717 surface tesserae and discard 609 interior tesserae
 Molecular Surface Area = 90.239 Angst**2

                       Distance Matrix (Angstroms)
             C (  1)   C (  2)   O (  3)   N (  4)   H (  5)   H (  6)
   C (  2)  1.513764
   O (  3)  2.386764  1.232025
   N (  4)  2.416316  1.325618  2.248921
   H (  5)  1.091100  2.155173  3.237015  2.552524
   H (  6)  1.091235  2.108847  2.543650  3.227642  1.764385
   H (  7)  3.342286  2.011154  2.481908  1.007967  3.551636  4.064338
   H (  8)  2.554808  2.034834  3.152352  1.016377  2.296826  3.498736
   H (  9)  1.100000  2.160128  2.881903  2.973444  1.799062  1.799441
             H (  7)   H (  8)
   H (  8)  1.764451
   H (  9)  3.851458  3.028480
 
 A cutoff of  1.0D-14 yielded   3054 shell pairs
 There are     19544 function pairs (     24702 Cartesian)
 Smallest overlap matrix eigenvalue = 1.14E-05

 Scale SEOQF with 1.000000e-01/1.000000e-01/1.000000e-01

 Standard Electronic Orientation quadrupole field applied
 Nucleus-field energy     =    -0.0000000041 hartrees
 Guess from superposition of atomic densities
 Warning:  Energy on first SCF cycle will be non-variational
 SAD guess density has 31.604610 electrons

 -----------------------------------------------------------------------
  General SCF calculation program by
  Eric Jon Sundstrom, Paul Horn, Yuezhi Mao, Dmitri Zuev, Alec White,
  David Stuck, Shaama M.S., Shane Yost, Joonho Lee, David Small,
  Daniel Levine, Susi Lehtola, Hugh Burton, Evgeny Epifanovsky
 -----------------------------------------------------------------------
 Exchange:     0.1670 Hartree-Fock + 1.0000 wB97X-V + LR-HF
 Correlation:  1.0000 wB97X-V
 Using Euler-Maclaurin-Lebedev (99,590) quadrature formula
 Nonlocal Correlation:  VV10 with C = 0.0100 and b = 6.00 and scale = 1.00000
 Grid used for NLC:  SG-1 standard quadrature
Energy prior to optimization (guess energy) = -208.705437885358
Begin Timing: Total SCF Calculation
begin iterations for algorithm: DIIS         
the SCF tolerance is set to 1.00e-08
    1    -208.7054378854      1.25e-02     00000 
    2    -208.3313393556      1.54e-02     00000 
    3    -209.2368467006      2.36e-03     00000 
    4    -209.2555385470      7.70e-04     00000 
    5    -209.2586253161      2.02e-04     00000 
    6    -209.2589038582      6.79e-05     00000 
    7    -209.2589460657      2.07e-05     00000 
    8    -209.2589513370      5.97e-06     00000 
    9    -209.2589521143      2.02e-06     00000 
   10    -209.2589521655      3.67e-07     00000 
   11    -209.2589521668      1.50e-07     00000 
   12    -209.2589521670      2.08e-08     00000 
   13    -209.2589521670      5.03e-09     00000 Convergence criterion met
Timing for Total SCF: 367.00s (wall), 722.91s (cpu)
(3)  G-ENP(liq) elect-nuc-pol free energy of system     -209.258952167 a.u.
(4)  G-CDS(liq) cavity-dispersion-solvent structure 
     free energy                                                3.5169 kcal/mol
(6)  G-S(liq) free energy of system                     -209.253347582 a.u.
E_pcm = -0.0301180229
E_cds = 0.0056045850
Multipole orders to be included
        2
        3
computing dipole RHS
computing quadrupole RHS
total number of RHS in solve_reponses: 8
RHS batch sizes
        8
Beginning Block Conjugate Gradient Iterations. Batch Number: 0
computing hessian-vector products by finite difference
              1      6.97e-01     00000 Conjugate Gradient Iteration
computing hessian-vector products by finite difference
              2      2.21e-01     00000 Conjugate Gradient Iteration
computing hessian-vector products by finite difference
              3      5.83e-02     00000 Conjugate Gradient Iteration
computing hessian-vector products by finite difference
              4      1.46e-02     00000 Conjugate Gradient Iteration
computing hessian-vector products by finite difference
              5      2.09e-03     00000 Conjugate Gradient Iteration
computing hessian-vector products by finite difference
              6      4.79e-04     00000 Conjugate Gradient Iteration
computing hessian-vector products by finite difference
              7      6.57e-05     00000 Conjugate Gradient Iteration
computing hessian-vector products by finite difference
              8      7.31e-06     00000 Conjugate Gradient Iteration
computing hessian-vector products by finite difference
              9      9.70e-07     00000 Conjugate Gradient Iteration
computing hessian-vector products by finite difference
             10      1.17e-07     00000 Conjugate Gradient Iteration
computing hessian-vector products by finite difference
             11      2.87e-08     00000 Conjugate Gradient Iteration
computing hessian-vector products by finite difference
             12      5.43e-09     00000 CG Converged
batch 0 complete
Done Calculating Responses
TESTING ORTHOGONALIZATION OF MULTIPOLE BASIS
Multipole virts passed orthogonality test
Virts Per Order
        48
        80
 
 --------------------------------------------------------------
 
                    Orbital Energies (a.u.)
 --------------------------------------------------------------
 
 Alpha MOs
 -- Occupied --
-19.1836 -14.4282 -10.3775 -10.2621  -1.1749  -1.0423  -0.8625  -0.7068
 -0.6518  -0.5913  -0.5655  -0.5195  -0.4949  -0.4786  -0.3846  -0.3753
 -- Virtual --
  0.0644   0.0956   0.0968   0.1034   0.1300   0.1339   0.1413   0.1499
  0.1785   0.1859   0.1992   0.2202   0.2284   0.2465   0.2506   0.2631
  0.2697   0.2771   0.3033   0.3167   0.3365   0.3396   0.3480   0.3512
  0.3619   0.3654   0.3760   0.3782   0.3975   0.4057   0.4180   0.4205
  0.4365   0.4578   0.4590   0.4776   0.4822   0.4949   0.4971   0.5051
  0.5262   0.5320   0.5468   0.5724   0.5817   0.5966   0.6225   0.6323
  0.6368   0.6534   0.6717   0.7048   0.7131   0.7261   0.7275   0.7657
  0.7767   0.7849   0.7981   0.8182   0.8213   0.8396   0.8544   0.8713
  0.9206   0.9508   0.9811   0.9887   1.0078   1.0367   1.0575   1.0941
  1.1069   1.1826   1.2277   1.2519   1.2828   1.3304   1.3372   1.3831
  1.4839   1.4939   1.5068   1.6244   1.6757   1.7284   1.7396   1.8075
  1.8485   1.8701   1.9083   1.9228   1.9289   1.9615   1.9840   2.0336
  2.0559   2.0927   2.1427   2.1801   2.2059   2.2439   2.3042   2.3849
  2.3996   2.4028   2.4503   2.4808   2.5595   2.5645   2.5886   2.6112
  2.6859   2.6922   2.7947   2.8137   2.8295   2.9135   2.9621   2.9922
  3.0656   3.0888   3.1383   3.1544   3.2054   3.2322   3.2655   3.2846
  3.3201   3.3442   3.3532   3.4240   3.4519   3.5285   3.5494   3.5678
  3.6413   3.6449   3.6868   3.7813   3.8686   3.9507   4.0019   4.0498
  4.0805   4.1889   4.2874   4.4354   4.5118   4.5931   4.6279   4.6677
  4.7790   4.8874   4.8963   4.9502   5.1469   5.1800   5.2558   5.3491
  5.3844   5.3928   5.4137   5.4761   5.5274   5.7695   5.9094   6.1406
  6.2441   6.5178   6.6354   6.7313   6.8188   6.9684   7.2124   7.3115
 22.5833  23.5716  32.4105  44.3105
 --------------------------------------------------------------
 
          Ground-State Mulliken Net Atomic Charges

     Atom                 Charge (a.u.)
  ----------------------------------------
      1 C                    -0.634990
      2 C                     0.435487
      3 O                    -0.695930
      4 N                    -0.302519
      5 H                     0.250457
      6 H                     0.228600
      7 H                     0.247309
      8 H                     0.247808
      9 H                     0.223778
  ----------------------------------------
  Sum of atomic charges =     0.000000

 -----------------------------------------------------------------
                    Cartesian Multipole Moments
 -----------------------------------------------------------------
    Charge (ESU x 10^10)
                -0.0000
    Dipole Moment (Debye)
         X       5.6939      Y      -0.4780      Z      -1.8178
       Tot       5.9961
    Quadrupole Moments (Debye-Ang)
        XX     -12.3906     XY       3.0818     YY     -21.6929
        XZ     -11.9523     YZ       2.2439     ZZ     -17.0296
    Octopole Moments (Debye-Ang^2)
       XXX     -66.2307    XXY     -15.0622    XYY     -26.6904
       YYY     -58.2295    XXZ      12.0026    XYZ      -2.0378
       YYZ      32.9955    XZZ      -6.0670    YZZ     -27.9228
       ZZZ      97.0954
    Hexadecapole Moments (Debye-Ang^3)
      XXXX    -302.6543   XXXY     -83.6623   XXYY    -100.1910
      XYYY     -86.4644   YYYY    -224.3255   XXXZ      87.4558
      XXYZ      19.3529   XYYZ      42.6223   YYYZ      64.1688
      XXZZ     -77.7872   XYZZ     -35.2551   YYZZ     -96.8399
      XZZZ     104.1357   YZZZ      96.5868   ZZZZ    -397.7778
 -----------------------------------------------------------------
Archival summary:
1\1\nid00536\SP\ProcedureUnspecified\BasisUnspecified\1125\meili\SunSep2615:56:462021SunSep2615:56:462021\0\\#,ProcedureUnspecified,BasisUnspecified,\\0,1\C\O,1,1.23202\N,1,1.32562,2,123.073\H,3,1.00797,1,118.411,2,1.29256,0\H,3,1.01638,1,120.072,2,175.932,0\C,1,1.51376,2,120.396,3,177.464,0\H,6,1.0911,1,110.61,2,153.916,0\H,6,1.09124,1,106.983,2,36.6497,0\H,6,1.1,1,110.47,2,-83.5627,0\\\@

 Total job time:  6462.76s(wall), 12722.68s(cpu) 
 Sun Sep 26 15:56:48 2021

        *************************************************************
        *                                                           *
        *  Thank you very much for using Q-Chem.  Have a nice day.  *
        *                                                           *
        *************************************************************


Done Job For Fragment 1
calling putenv with: QCSCRATCH=/global/cscratch1/sd/meili 
calling putenv with: QCLOCALSCR=/tmp 
calling putenv with: QCTHREADS=32 
Doing General SCFMI
 Exchange:     0.1670 Hartree-Fock + 1.0000 wB97X-V + LR-HF
 Correlation:  1.0000 wB97X-V
 Using Euler-Maclaurin-Lebedev (99,590) quadrature formula
 Nonlocal Correlation:  VV10 with C = 0.0100 and b = 6.00 and scale = 1.00000
 Grid used for NLC:  SG-1 standard quadrature
performing fock build before subrot guess so that all methods have access
Printing subrot_rss_gen Method Specification:
Occupied Subspace Method is 0
Virtual Subspace Method is 0
Energy of the unrelaxed supersystem initial determinant -418.471424633024
performing fock build before subrot guess so that all methods have access
Printing subrot_rss_gen Method Specification:
Occupied Subspace Method is 0
Virtual Subspace Method is 0
Energy of the unrelaxed supersystem initial determinant w/ solvent -418.518322892716
write pseudocanon occs and virts to disk
write pseudocanon orbital energies to disk
Tolerance of ortho_decomp_scf: 1.00e-06
GDM subspace size: 20
Beginning the Orthogonal Decomposition of the Initial Supersystem Wavefunction
    1    -418.4352039680      5.40e-02     ortho_decomp Preconditoned Steepest Descent
    2    -418.4388655085      1.30e-03     ortho_decomp BFGS Step
    3    -418.4388779155      1.04e-04     ortho_decomp BFGS Step
    4    -418.4388779357      3.91e-06     ortho_decomp BFGS Step
    5    -418.4388779358      1.14e-07     ortho_decomp 00000 Convergence criterion met
 Hartree-Fock
 Hartree-Fock
 Hartree-Fock
Doing General SCFMI
 Exchange:     0.1670 Hartree-Fock + 1.0000 wB97X-V + LR-HF
 Correlation:  1.0000 wB97X-V
 Using Euler-Maclaurin-Lebedev (99,590) quadrature formula
 Nonlocal Correlation:  VV10 with C = 0.0100 and b = 6.00 and scale = 1.00000
 Grid used for NLC:  SG-1 standard quadrature
performing fock build at end of subrot_r(subrot) constructor so that all methods have access
<S^2> of initial wavefunction before polarization iterations 0.0000000000
Beginning iterations for the determination of the polarized wavefunction
Energy prior to optimization (guess energy) = -418.518322892716
Begin Timing: Total SCF Calculation
begin iterations for algorithm: DIIS         
the SCF tolerance is set to 1.00e-08
    1    -418.5183228927      7.26e-05     00000 
    2    -418.5185031091      4.60e-05     00000 
    3    -418.5185348160      2.17e-05     00000 
    4    -418.5185447695      6.33e-06     00000 
    5    -418.5185458240      1.87e-06     00000 
    6    -418.5185460151      6.77e-07     00000 
    7    -418.5185460338      3.11e-07     00000 
    8    -418.5185460371      7.66e-08     00000 
    9    -418.5185460374      3.13e-08     00000 
   10    -418.5185460374      1.58e-08     00000 
   11    -418.5185460374      4.71e-09     00000 Convergence criterion met
write pseudocanon occs and virts to disk
write pseudocanon orbital energies to disk
Timing for Total SCF: 1877.00s (wall), 3720.45s (cpu)
<S^2> of polarized wavefunction after polarization iterations 0.0000000000
relaxing scfmi constraint to allow all rotations in the entire AO span
Doing General SCFMI
 Exchange:     0.1670 Hartree-Fock + 1.0000 wB97X-V + LR-HF
 Correlation:  1.0000 wB97X-V
 Using Euler-Maclaurin-Lebedev (99,590) quadrature formula
 Nonlocal Correlation:  VV10 with C = 0.0100 and b = 6.00 and scale = 1.00000
 Grid used for NLC:  SG-1 standard quadrature
performing fock build at end of subrot_r(subrot) constructor so that all methods have access
<S^2> of polarized wavefunction before ct-allowed iterations 0.0000000000
Beginning iterations for the determination of the CT-Allowed wavefunction
Energy prior to optimization (guess energy) = -418.518546037392
Begin Timing: Total SCF Calculation
begin iterations for algorithm: DIIS         
the SCF tolerance is set to 1.00e-08
    1    -418.5185460374      1.04e-04     00000 
    2    -418.5194208098      1.25e-05     00000 
    3    -418.5194476198      3.81e-06     00000 
    4    -418.5194483598      3.26e-06     00000 
    5    -418.5194489441      3.20e-07     00000 
    6    -418.5194489563      1.54e-07     00000 
    7    -418.5194489588      4.38e-08     00000 
    8    -418.5194489590      1.42e-08     00000 
    9    -418.5194489591      5.30e-09     00000 Convergence criterion met
write pseudocanon occs and virts to disk
write pseudocanon orbital energies to disk
Timing for Total SCF: 1513.00s (wall), 2998.26s (cpu)
<S^2> of ct_allowed wavefunction after ct-allowed iterations 0.0000000000

================================
        Results of EDA2         
================================
Basic EDA Quantities
--------------------
Fragment Energies (Ha):
1 -209.2523370396
2 -209.2533475821
--------------------
  E_prp (kJ/mol) = -0.0000
  E_sol (kJ/mol) = 31.7303
  E_frz (kJ/mol) = -39.5837
  E_pol (kJ/mol) = -0.5859
  E_vct (kJ/mol) = -2.3706
  E_int (kJ/mol) = -10.8099
--------------------


Initial Wavefunction Decomposition
--------------------
  --------------------
  Orthogonal Fragment Subspace Decomposition:
  --------------------
     E_elec   (ELEC)   (kJ/mol) = -62.8959
     E_pauli  (PAULI)  (kJ/mol) = 36.0539
     E_disp   (DISP)   (kJ/mol) = -12.7417
     --------------------
     Terms summing to E_pauli:
     --------------------
        E_kep_pauli       (kJ/mol) = 45.8687
        E_disp_free_pauli (kJ/mol) = -9.8148
  --------------------
  Classical Frozen Decomposition:
  --------------------
     E_cls_elec  (CLS ELEC)  (kJ/mol) = -44.9862
     E_cls_pauli (CLS PAULI) (kJ/mol) = 5.4025
    [E_mod_pauli (MOD PAULI) (kJ/mol) = 18.1442 (CLS PAULI - DISP from orthogonal decomposition) ]
  --------------------
--------------------

Simplified EDA Summary (kJ/mol)
--------------------
 PREPARATION     -0.0000
 SOLVATION       31.7303
 FROZEN          -26.8420      (does not include dispersion)
[PAULI           36.0539]     (if this is negligible, then frozen describes electrostatics)
 DISPERSION      -12.7417
 POLARIZATION    -0.5859
 CHARGE TRANSFER -2.3706
 TOTAL           -10.8099     (PRP + SOL + FRZ + DISP + POL + CT)
--------------------
 
 --------------------------------------------------------------
 
                    Orbital Energies (a.u.)
 --------------------------------------------------------------
 
 Alpha MOs
 -- Occupied --
-19.1848 -19.1814 -14.4289 -14.4226 -10.3784 -10.3745 -10.2626 -10.2617
 -1.1764  -1.1756  -1.0435  -1.0411  -0.8633  -0.8611  -0.7094  -0.7045
 -0.6544  -0.6500  -0.5918  -0.5898  -0.5697  -0.5616  -0.5251  -0.5131
 -0.4992  -0.4939  -0.4794  -0.4764  -0.3871  -0.3809  -0.3759  -0.3727
 -- Virtual --
  0.0591   0.0757   0.0886   0.0912   0.1015   0.1073   0.1098   0.1211
  0.1296   0.1301   0.1383   0.1417   0.1452   0.1559   0.1733   0.1819
  0.1859   0.1968   0.2039   0.2066   0.2154   0.2227   0.2291   0.2350
  0.2437   0.2484   0.2556   0.2628   0.2660   0.2700   0.2791   0.2877
  0.2935   0.3095   0.3143   0.3189   0.3201   0.3352   0.3383   0.3403
  0.3411   0.3488   0.3503   0.3527   0.3608   0.3707   0.3725   0.3772
  0.3845   0.3866   0.3928   0.3958   0.3996   0.4030   0.4186   0.4222
  0.4264   0.4301   0.4375   0.4427   0.4492   0.4547   0.4617   0.4690
  0.4788   0.4814   0.4869   0.4917   0.4997   0.5031   0.5078   0.5139
  0.5244   0.5265   0.5358   0.5375   0.5462   0.5551   0.5573   0.5631
  0.5661   0.5798   0.5859   0.5919   0.5960   0.6065   0.6123   0.6220
  0.6344   0.6397   0.6486   0.6541   0.6665   0.6713   0.6760   0.6850
  0.6902   0.7009   0.7076   0.7130   0.7185   0.7214   0.7395   0.7456
  0.7594   0.7633   0.7806   0.7859   0.7908   0.7934   0.8022   0.8044
  0.8152   0.8292   0.8353   0.8398   0.8444   0.8571   0.8632   0.8847
  0.8871   0.8919   0.9020   0.9063   0.9207   0.9472   0.9517   0.9625
  0.9724   0.9800   0.9915   1.0090   1.0219   1.0278   1.0442   1.0536
  1.0683   1.0819   1.0880   1.1104   1.1233   1.1370   1.1476   1.1508
  1.1768   1.2027   1.2273   1.2529   1.2698   1.2866   1.2947   1.3022
  1.3203   1.3279   1.3606   1.3702   1.3797   1.3850   1.4084   1.4581
  1.4975   1.5177   1.5204   1.5301   1.5424   1.5686   1.6455   1.6784
  1.6928   1.7360   1.7600   1.7670   1.7795   1.8040   1.8400   1.8724
  1.8873   1.9019   1.9119   1.9166   1.9295   1.9344   1.9530   1.9611
  1.9684   1.9786   1.9912   2.0122   2.0199   2.0511   2.0598   2.0814
  2.0942   2.1268   2.1407   2.1432   2.1760   2.1927   2.2048   2.2139
  2.2381   2.2529   2.2926   2.3213   2.3415   2.3616   2.3833   2.4050
  2.4124   2.4217   2.4412   2.4660   2.4877   2.5091   2.5410   2.5565
  2.5854   2.5976   2.6105   2.6340   2.6365   2.6440   2.6543   2.6875
  2.7057   2.7087   2.7177   2.7661   2.7736   2.8108   2.8368   2.8631
  2.8874   2.8953   2.9291   2.9404   2.9939   2.9974   3.0225   3.0564
  3.0754   3.1028   3.1117   3.1428   3.1561   3.1735   3.1894   3.2012
  3.2263   3.2335   3.2540   3.2670   3.3036   3.3038   3.3166   3.3262
  3.3427   3.3590   3.3642   3.3791   3.3898   3.4321   3.4438   3.4552
  3.4625   3.4736   3.5469   3.5647   3.5737   3.5819   3.6115   3.6287
  3.6357   3.6572   3.6693   3.6945   3.7075   3.7487   3.7874   3.7980
  3.8858   3.8954   3.9634   3.9678   4.0163   4.0369   4.0651   4.0776
  4.0944   4.1034   4.1972   4.2059   4.3095   4.3196   4.4492   4.4503
  4.5299   4.5805   4.6115   4.6169   4.6422   4.6537   4.6626   4.6899
  4.8066   4.8127   4.8952   4.9095   4.9221   4.9340   4.9594   4.9736
  5.1701   5.1715   5.1968   5.2036   5.2640   5.2754   5.3505   5.3671
  5.3905   5.3993   5.4057   5.4214   5.4312   5.4596   5.4912   5.5098
  5.5575   5.5688   5.7723   5.7756   5.9164   5.9345   6.1490   6.1619
  6.2645   6.2961   6.5263   6.5817   6.6430   6.6899   6.7421   6.7629
  6.8282   6.8418   6.9852   7.0182   7.2257   7.2338   7.3232   7.3473
 22.6091  22.6790  23.5915  23.6411  32.4553  32.5092  44.3588  44.3804
 --------------------------------------------------------------
 
          Ground-State Mulliken Net Atomic Charges

     Atom                 Charge (a.u.)
  ----------------------------------------
      1 C                    -0.537428
      2 C                     0.455822
      3 O                    -0.714581
      4 N                    -0.255598
      5 H                     0.251685
      6 H                     0.214744
      7 H                     0.237254
      8 H                     0.117771
      9 H                     0.251436
     10 C                    -0.679322
     11 C                     0.445896
     12 O                    -0.696394
     13 N                    -0.309435
     14 H                     0.273418
     15 H                     0.183871
     16 H                     0.255752
     17 H                     0.245711
     18 H                     0.259399
  ----------------------------------------
  Sum of atomic charges =     0.000000

 -----------------------------------------------------------------
                    Cartesian Multipole Moments
 -----------------------------------------------------------------
    Charge (ESU x 10^10)
                 0.0000
    Dipole Moment (Debye)
         X       6.0715      Y       3.0869      Z      -6.8751
       Tot       9.6778
    Quadrupole Moments (Debye-Ang)
        XX     -35.9652     XY      -0.4820     YY     -52.8883
        XZ      -2.2024     YZ      14.7627     ZZ     -56.4373
    Octopole Moments (Debye-Ang^2)
       XXX      21.0270    XXY       2.6087    XYY      10.9180
       YYY       8.2174    XXZ     -46.0137    XYZ     -21.0951
       YYZ     -31.2297    XZZ      51.8982    YZZ      25.4298
       ZZZ     -69.1909
    Hexadecapole Moments (Debye-Ang^3)
      XXXX    -610.3092   XXXY    -165.6538   XXYY    -189.2297
      XYYY    -198.7297   YYYY    -447.0913   XXXZ     252.6340
      XXYZ      80.6512   XYYZ     123.6757   YYYZ     203.3921
      XXZZ    -265.6078   XYZZ    -121.2261   YYZZ    -282.2175
      XZZZ     317.2073   YZZZ     290.5625   ZZZZ   -1044.7685
 -----------------------------------------------------------------
Archival summary:
1\1\nid00536\SP\ProcedureUnspecified\BasisUnspecified\22410\meili\SunSep2617:39:332021SunSep2617:39:332021\0\\#,ProcedureUnspecified,BasisUnspecified,\\0,1\O\C,1,1.23202\N,2,1.32562,1,123.073\H,3,1.00797,2,118.411,1,1.29256,0\H,3,1.01638,2,120.072,1,175.932,0\C,2,1.51376,1,120.396,3,177.464,0\H,6,1.0911,2,110.61,1,153.916,0\H,6,1.09124,2,106.983,1,36.6497,0\H,6,1.1,2,110.47,1,-83.5627,0\H,1,2.30097,2,149.402,3,85.84,0\N,10,1.01262,1,144.7,2,-12.8753,0\H,11,1.0093,10,121.238,1,-118.423,0\C,11,1.31387,10,119.683,1,56.5256,0\O,13,1.22886,11,121.546,10,-173.138,0\C,13,1.51908,11,115.737,10,4.17688,0\H,15,1.08937,13,107.589,11,-74.8427,0\H,15,1.09136,13,109.436,11,42.0638,0\H,15,1.1,13,112.868,11,163.298,0\\\@

 Total job time:  19059.57s(wall), 12236.52s(cpu) 
 Sun Sep 26 17:39:36 2021

        *************************************************************
        *                                                           *
        *  Thank you very much for using Q-Chem.  Have a nice day.  *
        *                                                           *
        *************************************************************


