
Running Job 1 of 1 SSI-040GLU-045GLN-1_SMD_TZVPD.in
qchem SSI-040GLU-045GLN-1_SMD_TZVPD.in_29919.0 /tmp/qchem29919/ 0
/global/common/cori/software/qchem/5.2/exe/qcprog.exe_s SSI-040GLU-045GLN-1_SMD_TZVPD.in_29919.0 /tmp/qchem29919/
                  Welcome to Q-Chem
     A Quantum Leap Into The Future Of Chemistry


 Q-Chem 5.2, Q-Chem, Inc., Pleasanton, CA (2019)

 License issued to: National Energy Research Scientific Computing Center

 Yihan Shao,  Zhengting Gan,  E. Epifanovsky,  A. T. B. Gilbert,  M. Wormit,  
 J. Kussmann,  A. W. Lange,  A. Behn,  Jia Deng,  Xintian Feng,  D. Ghosh,  
 M. Goldey,  P. R. Horn,  L. D. Jacobson,  I. Kaliman,  T. Kus,  A. Landau,  
 Jie Liu,  E. I. Proynov,  R. M. Richard,  R. P. Steele,  E. J. Sundstrom,  
 H. L. Woodcock III,  P. M. Zimmerman,  D. Zuev,  B. Albrecht,  E. Alguire,  
 S. A. Baeppler,  D. Barton,  Z. Benda,  Y. A. Bernard,  E. J. Berquist,  
 K. B. Bravaya,  H. Burton,  D. Casanova,  Chun-Min Chang,  Yunqing Chen,  
 A. Chien,  K. D. Closser,  M. P. Coons,  S. Coriani,  S. Dasgupta,  
 A. L. Dempwolff,  M. Diedenhofen,  Hainam Do,  R. G. Edgar,  Po-Tung Fang,  
 S. Faraji,  S. Fatehi,  Qingguo Feng,  K. D. Fenk,  J. Fosso-Tande,  
 J. Gayvert,  Qinghui Ge,  A. Ghysels,  G. Gidofalvi,  J. Gomes,  
 J. Gonthier,  A. Gunina,  D. Hait,  M. W. D. Hanson-Heine,  
 P. H. P. Harbach,  A. W. Hauser,  M. F. Herbst,  J. E. Herr,  
 E. G. Hohenstein,  Z. C. Holden,  Kerwin Hui,  B. C. Huynh,  T.-C. Jagau,  
 Hyunjun Ji,  B. Kaduk,  K. Khistyaev,  Jaehoon Kim,  P. Klunzinger,  K. Koh,  
 D. Kosenkov,  L. Koulias,  T. Kowalczyk,  C. M. Krauter,  A. Kunitsa,  
 Ka Un Lao,  A. Laurent,  K. V. Lawler,  Joonho Lee,  D. Lefrancois,  
 S. Lehtola,  D. S. Levine,  Yi-Pei Li,  You-Sheng Lin,  Fenglai Liu,  
 E. Livshits,  A. Luenser,  P. Manohar,  E. Mansoor,  S. F. Manzer,  
 Shan-Ping Mao,  Yuezhi Mao,  N. Mardirossian,  A. V. Marenich,  
 T. Markovich,  L. A. Martinez-Martinez,  S. A. Maurer,  N. J. Mayhall,  
 S. C. McKenzie,  J.-M. Mewes,  P. Morgante,  A. F. Morrison,  
 J. W. Mullinax,  K. Nanda,  T. S. Nguyen-Beck,  R. Olivares-Amaya,  
 J. A. Parkhill,  Zheng Pei,  T. M. Perrine,  F. Plasser,  P. Pokhilko,  
 S. Prager,  A. Prociuk,  E. Ramos,  D. R. Rehn,  F. Rob,  M. Scheurer,  
 M. Schneider,  N. Sergueev,  S. M. Sharada,  S. Sharma,  D. W. Small,  
 T. Stauch,  T. Stein,  Yu-Chuan Su,  A. J. W. Thom,  A. Tkatchenko,  
 T. Tsuchimochi,  N. M. Tubman,  L. Vogt,  M. L. Vidal,  O. Vydrov,  
 M. A. Watson,  J. Wenzel,  M. de Wergifosse,  T. A. Wesolowski,  A. White,  
 J. Witte,  A. Yamada,  Jun Yang,  K. Yao,  S. Yeganeh,  S. R. Yost,  
 Zhi-Qiang You,  A. Zech,  Igor Ying Zhang,  Xing Zhang,  Yan Zhao,  
 Ying Zhu,  B. R. Brooks,  G. K. L. Chan,  C. J. Cramer,  M. S. Gordon,  
 W. J. Hehre,  A. Klamt,  M. W. Schmidt,  C. D. Sherrill,  D. G. Truhlar,  
 A. Aspuru-Guzik,  R. Baer,  A. T. Bell,  N. A. Besley,  Jeng-Da Chai,  
 A. E. DePrince, III,  R. A. DiStasio Jr.,  A. Dreuw,  B. D. Dunietz,  
 T. R. Furlani,  Chao-Ping Hsu,  Yousung Jung,  Jing Kong,  D. S. Lambrecht,  
 WanZhen Liang,  C. Ochsenfeld,  V. A. Rassolov,  L. V. Slipchenko,  
 J. E. Subotnik,  T. Van Voorhis,  J. M. Herbert,  A. I. Krylov,  
 P. M. W. Gill,  M. Head-Gordon

 Contributors to earlier versions of Q-Chem not listed above: 
 R. D. Adamson,  B. Austin,  J. Baker,  G. J. O. Beran,  K. Brandhorst,  
 S. T. Brown,  E. F. C. Byrd,  A. K. Chakraborty,  C.-L. Cheng,  
 Siu Hung Chien,  D. M. Chipman,  D. L. Crittenden,  H. Dachsel,  
 R. J. Doerksen,  A. D. Dutoi,  L. Fusti-Molnar,  W. A. Goddard III,  
 A. Golubeva-Zadorozhnaya,  S. R. Gwaltney,  G. Hawkins,  A. Heyden,  
 S. Hirata,  G. Kedziora,  F. J. Keil,  C. Kelley,  Jihan Kim,  R. A. King,  
 R. Z. Khaliullin,  P. P. Korambath,  W. Kurlancheek,  A. M. Lee,  M. S. Lee,  
 S. V. Levchenko,  Ching Yeh Lin,  D. Liotard,  R. C. Lochan,  I. Lotan,  
 P. E. Maslen,  N. Nair,  D. P. O'Neill,  D. Neuhauser,  E. Neuscamman,  
 C. M. Oana,  R. Olson,  B. Peters,  R. Peverati,  P. A. Pieniazek,  
 Y. M. Rhee,  J. Ritchie,  M. A. Rohrdanz,  E. Rosta,  N. J. Russ,  
 H. F. Schaefer III,  N. E. Schultz,  N. Shenvi,  A. C. Simmonett,  A. Sodt,  
 D. Stuck,  K. S. Thanthiriwatte,  V. Vanovschi,  Tao Wang,  A. Warshel,  
 C. F. Williams,  Q. Wu,  X. Xu,  W. Zhang

 Please cite Q-Chem as follows:
 Y. Shao et al., Mol. Phys. 113, 184-215 (2015)
 DOI: 10.1080/00268976.2014.952696

 Q-Chem 5.2.0 for Intel X86 EM64T Linux

 Parts of Q-Chem use Armadillo 8.300.2 (Tropical Shenanigans).
 http://arma.sourceforge.net/

 Q-Chem begins on Sun Sep 26 06:33:24 2021  

Host: cori01
0

     Scratch files written to /tmp/qchem29919//
 May1019 |scratch|qcdevops|jenkins|workspace|build_RNUM -1
Processing $rem in /global/common/cori/software/qchem/5.2/config/preferences:
	 MEM_TOTAL  96000 
NAlpha2: 80
NElect   80
Mult     1
Symmetry turned off for PCM/SM12/SMD calculation

 Q-Chem warning in module libgen/rem_setup.C, line 2803:

 Neither GIA nor STOLL is specified by user. Use STOLL as the default


Checking the input file for inconsistencies... 	...done.

--------------------------------------------------------------
User input:
--------------------------------------------------------------
$comment
SSI-040GLU-045GLN-1.pdb
$end

$molecule
-1 1
--
-1 1
C    1.900998034420    0.444901303499   -1.557510054016
C    1.261998034420   -0.543098696501   -2.525510054016
C    2.205998034420   -0.216098696501   -0.222510054016
O    2.443998034420   -1.444098696501   -0.201510054016
O    2.199998034420    0.487901303499    0.810489945984
H    2.828998034420    0.830901303499   -1.985510054016
H    1.223998034420    1.280901303499   -1.395510054016
H    0.392998034420   -0.979098696501   -2.048510054016
H    1.968998034420   -1.348098696501   -2.730510054016
H    0.935843034420   -0.124064696501   -3.488860054016
--
0 1
C   -1.614001965580    0.888901303499   -0.062510054016
C   -2.912001965580    1.170901303499   -0.807510054016
C   -1.822001965580    0.010901303499    1.155489945984
O   -2.945001965580   -0.356098696501    1.495489945984
N   -0.733001965580   -0.340098696501    1.825489945984
H   -0.912001965580    0.408901303499   -0.738510054016
H   -1.171001965580    1.828901303499    0.269489945984
H   -3.587001965580    1.721901303499   -0.150510054016
H   -3.380001965580    0.217901303499   -1.063510054016
H   -0.836001965580   -0.919098696501    2.644489945984
H    0.183998034420   -0.018098696501    1.529489945984
H   -2.771580965580    1.738346303499   -1.739330054016
$end

$rem
JOBTYPE			EDA
EDA2			1
method			wB97X-V
BASIS			def2-TZVPD
XC_GRID			000099000590
NL_GRID			1
UNRESTRICTED		FALSE
MAX_SCF_CYCLES		200
SYMMETRY		FALSE
SYM_IGNORE		TRUE
MEM_STATIC		2000
BASIS_LIN_DEP_THRESH 	6
THRESH 			14
SCF_CONVERGENCE 	8
SCF_PRINT_FRGM 		TRUE
SOLVENT_METHOD          SMD
$end

$SMX
SOLVENT			WATER
$END
--------------------------------------------------------------
 ----------------------------------------------------------------
             Standard Nuclear Orientation (Angstroms)
    I     Atom           X                Y                Z
 ----------------------------------------------------------------
    1      C       1.9009980344     0.4449013035    -1.5575100540
    2      C       1.2619980344    -0.5430986965    -2.5255100540
    3      C       2.2059980344    -0.2160986965    -0.2225100540
    4      O       2.4439980344    -1.4440986965    -0.2015100540
    5      O       2.1999980344     0.4879013035     0.8104899460
    6      H       2.8289980344     0.8309013035    -1.9855100540
    7      H       1.2239980344     1.2809013035    -1.3955100540
    8      H       0.3929980344    -0.9790986965    -2.0485100540
    9      H       1.9689980344    -1.3480986965    -2.7305100540
   10      H       0.9358430344    -0.1240646965    -3.4888600540
   11      C      -1.6140019656     0.8889013035    -0.0625100540
   12      C      -2.9120019656     1.1709013035    -0.8075100540
   13      C      -1.8220019656     0.0109013035     1.1554899460
   14      O      -2.9450019656    -0.3560986965     1.4954899460
   15      N      -0.7330019656    -0.3400986965     1.8254899460
   16      H      -0.9120019656     0.4089013035    -0.7385100540
   17      H      -1.1710019656     1.8289013035     0.2694899460
   18      H      -3.5870019656     1.7219013035    -0.1505100540
   19      H      -3.3800019656     0.2179013035    -1.0635100540
   20      H      -0.8360019656    -0.9190986965     2.6444899460
   21      H       0.1839980344    -0.0180986965     1.5294899460
   22      H      -2.7715809656     1.7383463035    -1.7393300540
 ----------------------------------------------------------------
 Nuclear Repulsion Energy =         530.65486789 hartrees
 There are       40 alpha and       40 beta electrons
 Requested basis set is def2-TZVPD
 There are 193 shells and 487 basis functions

 Total QAlloc Memory Limit  96000 MB
 Mega-Array Size      1956 MB
 MEM_STATIC part      2000 MB
 
 Citation of the SMD model:
 Marenich, A.V.; Cramer, C.J.; Truhlar, D.G.
 J. Phys. Chem. B 2009, 113, 6378-6396.
 iSolventCode=           1
 Solvent: water                                                           
 
 vradii
            1           2           3           4           5           6
    1   1.8500000   1.8500000   1.8500000   1.5200000   1.5200000   1.2000000
            7           8           9          10          11          12
    1   1.2000000   1.2000000   1.2000000   1.2000000   1.8500000   1.8500000
           13          14          15          16          17          18
    1   1.8500000   1.5200000   1.8900000   1.2000000   1.2000000   1.2000000
           19          20          21          22
    1   1.2000000   1.2000000   1.2000000   1.2000000
 Changing PCM_VDW_RADII to SMD_RADIUS
 Discretize the solute cavity surface with Lebedev spheres
	Using 110 Lebedev grid points for each H atom
	Using 194 Lebedev grid points for other atoms
	Atomic van der Waals radii will be scaled by 1.20
 Remove points where switching function is < 1.0e-08
 Keep 1724 surface tesserae and discard 1536 interior tesserae
 Molecular Surface Area = 201.647 Angst**2
 A cutoff of  1.0D-14 yielded  16826 shell pairs
 There are    107620 function pairs (    135019 Cartesian)
 Smallest overlap matrix eigenvalue = 1.66E-06

 Scale SEOQF with 1.000000e-01/1.000000e-01/1.000000e-01

 Standard Electronic Orientation quadrupole field applied
 Nucleus-field energy     =    -0.0000000003 hartrees

 -----------------------------------------------------------------------
  General SCF calculation program by
  Eric Jon Sundstrom, Paul Horn, Yuezhi Mao, Dmitri Zuev, Alec White,
  David Stuck, Shaama M.S., Shane Yost, Joonho Lee, David Small,
  Daniel Levine, Susi Lehtola, Hugh Burton, Evgeny Epifanovsky
 -----------------------------------------------------------------------
================================================================
                 ALMO-EDA with the EDA2 driver                  
================================================================
 The second-generation ALMO-EDA (for DFT):                      
 P. R. Horn, Y. Mao and M. Head-Gordon, PCCP, 18, 23067 (2016)  
 Decomposition of the frozen energy:                            
 P. R. Horn, Y. Mao and M. Head-Gordon, JCP, 144, 114107 (2016) 
 FERF model for polarization:                                   
 P. R. Horn and M. Head-Gordon, JCP, 143, 114111 (2015)         
Using eda2 option set 1
Option set summary: Frozen orbital wavefunction, initial wavefunction decomposition, and nDQ polarization.
--------------------------------
Printing EDA Options
--------------------------------
eda_child_super_basis      0
fragmo_guess_mode          0
child_mp                   1
child_mp_orders            232
cls_elec                   1
cls_disp                   0
scfmi_mode                 1
scfmi_occs                 0
scfmi_virts                0
frz_relax                  0
frz_relax_method           0
dc_pen_start               0
dc_pen_conv                0
dc_pen_increment           0
dc_pen_steps               0
dc_pen_thresh_factor       0
dc_pen_pre_newton_thresh   0
frz_ortho_decomp           1
frz_ortho_decomp_conv      6
frgm_method                2
scfmi_freeze_ss            0
separate_rehyb             0
plot_diff_den              0
eda_nocv                   0
eda_vct_relax              1
disp_free_x                0
disp_free_c                0
eda_bsse                   0
eda_pct_a                  0
eda_covp                   0
--------------------------------
Attempting to make child job directory: /tmp/qchem29919//Frg1/
Attempting to make child job directory: /tmp/qchem29919//Frg2/
Creating input file /tmp/qchem29919/Frg1.input
using default PutDataFrgm: nothing
calling putenv with: QCSCRATCH=/tmp/qchem29919/ 
calling putenv with: QCLOCALSCR=/tmp/qchem29919/ 
Spawning Job For Fragment 0
                  Welcome to Q-Chem
     A Quantum Leap Into The Future Of Chemistry


 Q-Chem 5.2, Q-Chem, Inc., Pleasanton, CA (2019)

 License issued to: National Energy Research Scientific Computing Center

 Yihan Shao,  Zhengting Gan,  E. Epifanovsky,  A. T. B. Gilbert,  M. Wormit,  
 J. Kussmann,  A. W. Lange,  A. Behn,  Jia Deng,  Xintian Feng,  D. Ghosh,  
 M. Goldey,  P. R. Horn,  L. D. Jacobson,  I. Kaliman,  T. Kus,  A. Landau,  
 Jie Liu,  E. I. Proynov,  R. M. Richard,  R. P. Steele,  E. J. Sundstrom,  
 H. L. Woodcock III,  P. M. Zimmerman,  D. Zuev,  B. Albrecht,  E. Alguire,  
 S. A. Baeppler,  D. Barton,  Z. Benda,  Y. A. Bernard,  E. J. Berquist,  
 K. B. Bravaya,  H. Burton,  D. Casanova,  Chun-Min Chang,  Yunqing Chen,  
 A. Chien,  K. D. Closser,  M. P. Coons,  S. Coriani,  S. Dasgupta,  
 A. L. Dempwolff,  M. Diedenhofen,  Hainam Do,  R. G. Edgar,  Po-Tung Fang,  
 S. Faraji,  S. Fatehi,  Qingguo Feng,  K. D. Fenk,  J. Fosso-Tande,  
 J. Gayvert,  Qinghui Ge,  A. Ghysels,  G. Gidofalvi,  J. Gomes,  
 J. Gonthier,  A. Gunina,  D. Hait,  M. W. D. Hanson-Heine,  
 P. H. P. Harbach,  A. W. Hauser,  M. F. Herbst,  J. E. Herr,  
 E. G. Hohenstein,  Z. C. Holden,  Kerwin Hui,  B. C. Huynh,  T.-C. Jagau,  
 Hyunjun Ji,  B. Kaduk,  K. Khistyaev,  Jaehoon Kim,  P. Klunzinger,  K. Koh,  
 D. Kosenkov,  L. Koulias,  T. Kowalczyk,  C. M. Krauter,  A. Kunitsa,  
 Ka Un Lao,  A. Laurent,  K. V. Lawler,  Joonho Lee,  D. Lefrancois,  
 S. Lehtola,  D. S. Levine,  Yi-Pei Li,  You-Sheng Lin,  Fenglai Liu,  
 E. Livshits,  A. Luenser,  P. Manohar,  E. Mansoor,  S. F. Manzer,  
 Shan-Ping Mao,  Yuezhi Mao,  N. Mardirossian,  A. V. Marenich,  
 T. Markovich,  L. A. Martinez-Martinez,  S. A. Maurer,  N. J. Mayhall,  
 S. C. McKenzie,  J.-M. Mewes,  P. Morgante,  A. F. Morrison,  
 J. W. Mullinax,  K. Nanda,  T. S. Nguyen-Beck,  R. Olivares-Amaya,  
 J. A. Parkhill,  Zheng Pei,  T. M. Perrine,  F. Plasser,  P. Pokhilko,  
 S. Prager,  A. Prociuk,  E. Ramos,  D. R. Rehn,  F. Rob,  M. Scheurer,  
 M. Schneider,  N. Sergueev,  S. M. Sharada,  S. Sharma,  D. W. Small,  
 T. Stauch,  T. Stein,  Yu-Chuan Su,  A. J. W. Thom,  A. Tkatchenko,  
 T. Tsuchimochi,  N. M. Tubman,  L. Vogt,  M. L. Vidal,  O. Vydrov,  
 M. A. Watson,  J. Wenzel,  M. de Wergifosse,  T. A. Wesolowski,  A. White,  
 J. Witte,  A. Yamada,  Jun Yang,  K. Yao,  S. Yeganeh,  S. R. Yost,  
 Zhi-Qiang You,  A. Zech,  Igor Ying Zhang,  Xing Zhang,  Yan Zhao,  
 Ying Zhu,  B. R. Brooks,  G. K. L. Chan,  C. J. Cramer,  M. S. Gordon,  
 W. J. Hehre,  A. Klamt,  M. W. Schmidt,  C. D. Sherrill,  D. G. Truhlar,  
 A. Aspuru-Guzik,  R. Baer,  A. T. Bell,  N. A. Besley,  Jeng-Da Chai,  
 A. E. DePrince, III,  R. A. DiStasio Jr.,  A. Dreuw,  B. D. Dunietz,  
 T. R. Furlani,  Chao-Ping Hsu,  Yousung Jung,  Jing Kong,  D. S. Lambrecht,  
 WanZhen Liang,  C. Ochsenfeld,  V. A. Rassolov,  L. V. Slipchenko,  
 J. E. Subotnik,  T. Van Voorhis,  J. M. Herbert,  A. I. Krylov,  
 P. M. W. Gill,  M. Head-Gordon

 Contributors to earlier versions of Q-Chem not listed above: 
 R. D. Adamson,  B. Austin,  J. Baker,  G. J. O. Beran,  K. Brandhorst,  
 S. T. Brown,  E. F. C. Byrd,  A. K. Chakraborty,  C.-L. Cheng,  
 Siu Hung Chien,  D. M. Chipman,  D. L. Crittenden,  H. Dachsel,  
 R. J. Doerksen,  A. D. Dutoi,  L. Fusti-Molnar,  W. A. Goddard III,  
 A. Golubeva-Zadorozhnaya,  S. R. Gwaltney,  G. Hawkins,  A. Heyden,  
 S. Hirata,  G. Kedziora,  F. J. Keil,  C. Kelley,  Jihan Kim,  R. A. King,  
 R. Z. Khaliullin,  P. P. Korambath,  W. Kurlancheek,  A. M. Lee,  M. S. Lee,  
 S. V. Levchenko,  Ching Yeh Lin,  D. Liotard,  R. C. Lochan,  I. Lotan,  
 P. E. Maslen,  N. Nair,  D. P. O'Neill,  D. Neuhauser,  E. Neuscamman,  
 C. M. Oana,  R. Olson,  B. Peters,  R. Peverati,  P. A. Pieniazek,  
 Y. M. Rhee,  J. Ritchie,  M. A. Rohrdanz,  E. Rosta,  N. J. Russ,  
 H. F. Schaefer III,  N. E. Schultz,  N. Shenvi,  A. C. Simmonett,  A. Sodt,  
 D. Stuck,  K. S. Thanthiriwatte,  V. Vanovschi,  Tao Wang,  A. Warshel,  
 C. F. Williams,  Q. Wu,  X. Xu,  W. Zhang

 Please cite Q-Chem as follows:
 Y. Shao et al., Mol. Phys. 113, 184-215 (2015)
 DOI: 10.1080/00268976.2014.952696

 Q-Chem 5.2.0 for Intel X86 EM64T Linux

 Parts of Q-Chem use Armadillo 8.300.2 (Tropical Shenanigans).
 http://arma.sourceforge.net/

 Q-Chem begins on Sun Sep 26 06:33:28 2021  

Host: cori01
0

     Scratch files written to /tmp/qchem29919//Frg1//
 May1019 |scratch|qcdevops|jenkins|workspace|build_RNUM -1
Processing $rem in /global/common/cori/software/qchem/5.2/config/preferences:
	 MEM_TOTAL  96000 
NAlpha2: 40
NElect   40
Mult     1
Symmetry turned off for PCM/SM12/SMD calculation

Checking the input file for inconsistencies... 	...done.

--------------------------------------------------------------
User input:
--------------------------------------------------------------
$molecule
-1 1
 6	1.9009980344	0.4449013035	-1.5575100540
 6	1.2619980344	-0.5430986965	-2.5255100540
 6	2.2059980344	-0.2160986965	-0.2225100540
 8	2.4439980344	-1.4440986965	-0.2015100540
 8	2.1999980344	0.4879013035	0.8104899460
 1	2.8289980344	0.8309013035	-1.9855100540
 1	1.2239980344	1.2809013035	-1.3955100540
 1	0.3929980344	-0.9790986965	-2.0485100540
 1	1.9689980344	-1.3480986965	-2.7305100540
 1	0.9358430344	-0.1240646965	-3.4888600540
$end
$rem
EDA2		1
METHOD		WB97X-V
BASIS		DEF2-TZVPD
XC_GRID		000099000590
NL_GRID		1
UNRESTRICTED		FALSE
MAX_SCF_CYCLES		200
SYMMETRY		FALSE
SYM_IGNORE		TRUE
BASIS_LIN_DEP_THRESH		6
THRESH		14
SCF_CONVERGENCE		8
SCF_PRINT_FRGM		TRUE
SOLVENT_METHOD		SMD
!required keywords
JOBTYPE		SP
SYM_IGNORE		TRUE
SUBSYSTEM		TRUE
GEN_SCFMAN		TRUE
CHILD_INSTRUCTION		2
SYM_IGNORE		TRUE
SCFMI		0
RI_K 0		
PARI_K 0		
MIN_PARI_K 0		
IARI_K 0		
OCC_RI_K 0		
PURECART		1111
MEM_STATIC		2000
MEM_TOTAL		96000
GUI		0
CHILD_MP		1
CHILD_MP_ORDERS		232
FRZ_RELAX		0
FRZ_RELAX_METHOD		0
EDA_CLS_ELEC		1
EDA_CLS_DISP		0
FRZ_ORTHO_DECOMP		1
EDA2		FALSE
FRGM_METHOD		FALSE
CIS_N_ROOTS  0
LOCAL_CIS    0
CIS_RLX_DNS  1
$end
$smx
SOLVENT			WATER
$end
--------------------------------------------------------------
 ----------------------------------------------------------------
             Standard Nuclear Orientation (Angstroms)
    I     Atom           X                Y                Z
 ----------------------------------------------------------------
    1      C       1.9009980344     0.4449013035    -1.5575100540
    2      C       1.2619980344    -0.5430986965    -2.5255100540
    3      C       2.2059980344    -0.2160986965    -0.2225100540
    4      O       2.4439980344    -1.4440986965    -0.2015100540
    5      O       2.1999980344     0.4879013035     0.8104899460
    6      H       2.8289980344     0.8309013035    -1.9855100540
    7      H       1.2239980344     1.2809013035    -1.3955100540
    8      H       0.3929980344    -0.9790986965    -2.0485100540
    9      H       1.9689980344    -1.3480986965    -2.7305100540
   10      H       0.9358430344    -0.1240646965    -3.4888600540
 ----------------------------------------------------------------
 Nuclear Repulsion Energy =         169.97957744 hartrees
 There are       20 alpha and       20 beta electrons
 Requested basis set is def2-TZVPD
 There are 92 shells and 236 basis functions

 Total QAlloc Memory Limit  96000 MB
 Mega-Array Size      1956 MB
 MEM_STATIC part      2000 MB
 
 Citation of the SMD model:
 Marenich, A.V.; Cramer, C.J.; Truhlar, D.G.
 J. Phys. Chem. B 2009, 113, 6378-6396.
 iSolventCode=           1
 Solvent: water                                                           
 
 vradii
            1           2           3           4           5           6
    1   1.8500000   1.8500000   1.8500000   1.5200000   1.5200000   1.2000000
            7           8           9          10
    1   1.2000000   1.2000000   1.2000000   1.2000000
 Changing PCM_VDW_RADII to SMD_RADIUS
 Discretize the solute cavity surface with Lebedev spheres
	Using 110 Lebedev grid points for each H atom
	Using 194 Lebedev grid points for other atoms
	Atomic van der Waals radii will be scaled by 1.20
 Remove points where switching function is < 1.0e-08
 Keep 827 surface tesserae and discard 693 interior tesserae
 Molecular Surface Area = 99.483 Angst**2

                       Distance Matrix (Angstroms)
             C (  1)   C (  2)   C (  3)   O (  4)   O (  5)   H (  6)
   C (  2)  1.523643
   C (  3)  1.520582  2.510353
   O (  4)  2.387866  2.758605  1.251027
   O (  5)  2.387190  3.615481  1.250096  2.194608
   H (  6)  1.092412  2.152897  2.143014  2.916592  2.886331
   H (  7)  1.087874  2.146001  2.140388  3.215534  2.539264  1.768227
   H (  8)  2.131413  1.082952  2.683918  2.798970  3.686627  3.035484
   H (  9)  2.143689  1.090825  2.761821  2.575011  3.995365  2.458183
   H ( 10)  2.232792  1.100004  3.505825  3.850155  4.522942  2.599242
             H (  7)   H (  8)   H (  9)
   H (  8)  2.494909
   H (  9)  3.041199  1.756434
   H ( 10)  2.537534  1.760787  1.772220
 
 A cutoff of  1.0D-14 yielded   4194 shell pairs
 There are     28048 function pairs (     35742 Cartesian)
 Smallest overlap matrix eigenvalue = 8.41E-06

 Scale SEOQF with 1.000000e-01/1.000000e-01/1.000000e-01

 Standard Electronic Orientation quadrupole field applied
 Nucleus-field energy     =    -0.0000000018 hartrees
 Guess from superposition of atomic densities
 Warning:  Energy on first SCF cycle will be non-variational
 SAD guess density has 38.612942 electrons

 -----------------------------------------------------------------------
  General SCF calculation program by
  Eric Jon Sundstrom, Paul Horn, Yuezhi Mao, Dmitri Zuev, Alec White,
  David Stuck, Shaama M.S., Shane Yost, Joonho Lee, David Small,
  Daniel Levine, Susi Lehtola, Hugh Burton, Evgeny Epifanovsky
 -----------------------------------------------------------------------
 Exchange:     0.1670 Hartree-Fock + 1.0000 wB97X-V + LR-HF
 Correlation:  1.0000 wB97X-V
 Using Euler-Maclaurin-Lebedev (99,590) quadrature formula
 Nonlocal Correlation:  VV10 with C = 0.0100 and b = 6.00 and scale = 1.00000
 Grid used for NLC:  SG-1 standard quadrature
Energy prior to optimization (guess energy) = -267.072410914660
Begin Timing: Total SCF Calculation
begin iterations for algorithm: DIIS         
the SCF tolerance is set to 1.00e-08
    1    -267.0724109147      1.28e-02     00000 
    2    -263.3187424092      2.02e-02     00000 
    3    -267.8353502039      4.96e-03     00000 
    4    -267.9548765265      2.14e-03     00000 
    5    -267.9791779257      3.45e-04     00000 
    6    -267.9803240319      7.50e-05     00000 
    7    -267.9803671276      3.99e-05     00000 
    8    -267.9803754788      1.95e-05     00000 
    9    -267.9803776542      6.10e-06     00000 
   10    -267.9803779602      2.09e-06     00000 
   11    -267.9803780227      2.83e-07     00000 
   12    -267.9803780251      7.03e-08     00000 
   13    -267.9803780252      2.77e-08     00000 
   14    -267.9803780252      9.18e-09     00000 Convergence criterion met
Timing for Total SCF: 649.00s (wall), 1286.75s (cpu)
(3)  G-ENP(liq) elect-nuc-pol free energy of system     -267.980378025 a.u.
(4)  G-CDS(liq) cavity-dispersion-solvent structure 
     free energy                                                3.9987 kcal/mol
(6)  G-S(liq) free energy of system                     -267.974005639 a.u.
E_pcm = -0.1303474964
E_cds = 0.0063723861
Multipole orders to be included
        2
        3
computing dipole RHS
computing quadrupole RHS
total number of RHS in solve_reponses: 8
RHS batch sizes
        8
Beginning Block Conjugate Gradient Iterations. Batch Number: 0
computing hessian-vector products by finite difference
              1      6.87e-01     00000 Conjugate Gradient Iteration
computing hessian-vector products by finite difference
              2      2.24e-01     00000 Conjugate Gradient Iteration
computing hessian-vector products by finite difference
              3      5.94e-02     00000 Conjugate Gradient Iteration
computing hessian-vector products by finite difference
              4      1.54e-02     00000 Conjugate Gradient Iteration
computing hessian-vector products by finite difference
              5      2.36e-03     00000 Conjugate Gradient Iteration
computing hessian-vector products by finite difference
              6      5.55e-04     00000 Conjugate Gradient Iteration
computing hessian-vector products by finite difference
              7      8.32e-05     00000 Conjugate Gradient Iteration
computing hessian-vector products by finite difference
              8      1.62e-05     00000 Conjugate Gradient Iteration
computing hessian-vector products by finite difference
              9      2.44e-06     00000 Conjugate Gradient Iteration
computing hessian-vector products by finite difference
             10      6.72e-07     00000 Conjugate Gradient Iteration
computing hessian-vector products by finite difference
             11      1.17e-07     00000 Conjugate Gradient Iteration
computing hessian-vector products by finite difference
             12      1.29e-08     00000 Conjugate Gradient Iteration
computing hessian-vector products by finite difference
             13      3.99e-09     00000 CG Converged
batch 0 complete
Done Calculating Responses
TESTING ORTHOGONALIZATION OF MULTIPOLE BASIS
Multipole virts passed orthogonality test
Virts Per Order
           60
          100
 
 --------------------------------------------------------------
 
                    Orbital Energies (a.u.)
 --------------------------------------------------------------
 
 Alpha MOs
 -- Occupied --
-19.1520 -19.1515 -10.3501 -10.2508 -10.2423  -1.1654  -1.0647  -0.8895
 -0.7514  -0.6154  -0.5667  -0.5613  -0.5323  -0.5008  -0.4778  -0.4463
 -0.4338  -0.3643  -0.3542  -0.3438
 -- Virtual --
  0.0676   0.0885   0.0965   0.1043   0.1230   0.1352   0.1411   0.1484
  0.1547   0.1595   0.1841   0.2016   0.2071   0.2129   0.2247   0.2429
  0.2525   0.2556   0.2642   0.2926   0.2983   0.3114   0.3181   0.3264
  0.3419   0.3486   0.3608   0.3641   0.3721   0.3844   0.3890   0.3987
  0.4071   0.4106   0.4149   0.4199   0.4280   0.4451   0.4587   0.4676
  0.4731   0.4906   0.4999   0.5033   0.5128   0.5139   0.5370   0.5405
  0.5466   0.5538   0.5794   0.5880   0.6010   0.6133   0.6326   0.6373
  0.6582   0.6631   0.6755   0.6885   0.6975   0.7025   0.7293   0.7382
  0.7622   0.7728   0.7875   0.7925   0.7980   0.8097   0.8149   0.8159
  0.8244   0.8480   0.8570   0.8846   0.9112   0.9471   0.9699   1.0143
  1.0207   1.0396   1.0515   1.0847   1.0992   1.1209   1.1505   1.1994
  1.2214   1.2780   1.3055   1.3218   1.3342   1.3552   1.3847   1.4016
  1.4164   1.4745   1.4932   1.5878   1.6474   1.7717   1.8297   1.8679
  1.8831   1.9129   1.9205   1.9372   1.9523   1.9635   1.9739   1.9885
  2.0070   2.0404   2.0644   2.1345   2.1508   2.1812   2.2210   2.2436
  2.2671   2.3038   2.3688   2.3752   2.4569   2.4662   2.4894   2.5223
  2.5610   2.5726   2.6256   2.6617   2.6946   2.7363   2.7446   2.7971
  2.8152   2.8327   2.8691   2.9196   2.9405   2.9969   3.0107   3.0622
  3.1131   3.1515   3.2345   3.2594   3.2706   3.3208   3.3304   3.3381
  3.3632   3.3845   3.4378   3.4487   3.4777   3.4815   3.5320   3.5600
  3.5890   3.6168   3.6410   3.6706   3.6777   3.7108   3.7473   3.7676
  3.7895   3.8178   3.9614   4.0694   4.0932   4.1235   4.1993   4.2382
  4.3464   4.3751   4.5219   4.6054   4.7013   4.7321   4.7974   4.8200
  4.8703   5.0388   5.0705   5.3032   5.3352   5.3431   5.3526   5.4777
  5.6978   5.7490   5.7962   6.0093   6.2167   6.3174   6.3466   6.5985
  6.6128   6.7041   6.7326   6.7574   6.9547   6.9645   7.0347   7.2330
  7.3388   7.3769   7.3930  22.6747  22.7609  23.7608  44.2561  44.3853
 --------------------------------------------------------------
 
          Ground-State Mulliken Net Atomic Charges

     Atom                 Charge (a.u.)
  ----------------------------------------
      1 C                     0.045318
      2 C                    -0.892039
      3 C                     0.352224
      4 O                    -0.772596
      5 O                    -0.792154
      6 H                     0.181555
      7 H                     0.195042
      8 H                     0.227044
      9 H                     0.200756
     10 H                     0.254851
  ----------------------------------------
  Sum of atomic charges =    -1.000000

 -----------------------------------------------------------------
                    Cartesian Multipole Moments
 -----------------------------------------------------------------
    Charge (ESU x 10^10)
                -4.8032
    Dipole Moment (Debye)
         X     -11.5616      Y       3.2347      Z      -3.5054
       Tot      12.5069
    Quadrupole Moments (Debye-Ang)
        XX     -59.4698     XY       8.5401     YY     -42.3531
        XZ      -7.9246     YZ      -3.1003     ZZ     -35.2141
    Octopole Moments (Debye-Ang^2)
       XXX    -253.3565    XXY      31.0466    XYY     -87.7217
       YYY      37.1731    XXZ       8.5023    XYZ      -6.3386
       YYZ      27.9873    XZZ     -69.2820    YZZ       9.5183
       ZZZ      77.5326
    Hexadecapole Moments (Debye-Ang^3)
      XXXX    -977.6420   XXXY     113.8698   XXYY    -225.7563
      XYYY      80.9160   YYYY    -192.9148   XXXZ      68.2730
      XXYZ     -25.2568   XYYZ      39.1146   YYYZ     -35.8307
      XXZZ    -230.2363   XYZZ      18.1193   YYZZ    -112.2980
      XZZZ     105.2092   YZZZ     -38.4842   ZZZZ    -480.6798
 -----------------------------------------------------------------
Archival summary:
1\1\nid00549\SP\ProcedureUnspecified\BasisUnspecified\235(1-,1)\meili\SunSep2609:39:582021SunSep2609:39:582021\0\\#,ProcedureUnspecified,BasisUnspecified,\\-1,1\C\O,1,1.2501\O,1,1.25103,2,122.672\C,1,1.52058,2,118.667,3,179.512,0\H,4,1.08787,1,109.156,2,-30.2166,0\H,4,1.09241,1,109.098,2,88.0568,0\C,4,1.52364,1,111.102,2,-150.927,0\H,7,1.08295,4,108.528,1,54.3819,0\H,7,1.09082,4,109.033,1,-62.7941,0\H,7,1.1,4,115.704,1,175.303,0\\\@

 Total job time:  11190.88s(wall), 22125.12s(cpu) 
 Sun Sep 26 09:39:59 2021

        *************************************************************
        *                                                           *
        *  Thank you very much for using Q-Chem.  Have a nice day.  *
        *                                                           *
        *************************************************************


Done Job For Fragment 0
calling putenv with: QCSCRATCH=/global/cscratch1/sd/meili 
calling putenv with: QCLOCALSCR=/tmp 
calling putenv with: QCTHREADS=32 
Creating input file /tmp/qchem29919/Frg2.input
using default PutDataFrgm: nothing
calling putenv with: QCSCRATCH=/tmp/qchem29919/ 
calling putenv with: QCLOCALSCR=/tmp/qchem29919/ 
Spawning Job For Fragment 1
                  Welcome to Q-Chem
     A Quantum Leap Into The Future Of Chemistry


 Q-Chem 5.2, Q-Chem, Inc., Pleasanton, CA (2019)

 License issued to: National Energy Research Scientific Computing Center

 Yihan Shao,  Zhengting Gan,  E. Epifanovsky,  A. T. B. Gilbert,  M. Wormit,  
 J. Kussmann,  A. W. Lange,  A. Behn,  Jia Deng,  Xintian Feng,  D. Ghosh,  
 M. Goldey,  P. R. Horn,  L. D. Jacobson,  I. Kaliman,  T. Kus,  A. Landau,  
 Jie Liu,  E. I. Proynov,  R. M. Richard,  R. P. Steele,  E. J. Sundstrom,  
 H. L. Woodcock III,  P. M. Zimmerman,  D. Zuev,  B. Albrecht,  E. Alguire,  
 S. A. Baeppler,  D. Barton,  Z. Benda,  Y. A. Bernard,  E. J. Berquist,  
 K. B. Bravaya,  H. Burton,  D. Casanova,  Chun-Min Chang,  Yunqing Chen,  
 A. Chien,  K. D. Closser,  M. P. Coons,  S. Coriani,  S. Dasgupta,  
 A. L. Dempwolff,  M. Diedenhofen,  Hainam Do,  R. G. Edgar,  Po-Tung Fang,  
 S. Faraji,  S. Fatehi,  Qingguo Feng,  K. D. Fenk,  J. Fosso-Tande,  
 J. Gayvert,  Qinghui Ge,  A. Ghysels,  G. Gidofalvi,  J. Gomes,  
 J. Gonthier,  A. Gunina,  D. Hait,  M. W. D. Hanson-Heine,  
 P. H. P. Harbach,  A. W. Hauser,  M. F. Herbst,  J. E. Herr,  
 E. G. Hohenstein,  Z. C. Holden,  Kerwin Hui,  B. C. Huynh,  T.-C. Jagau,  
 Hyunjun Ji,  B. Kaduk,  K. Khistyaev,  Jaehoon Kim,  P. Klunzinger,  K. Koh,  
 D. Kosenkov,  L. Koulias,  T. Kowalczyk,  C. M. Krauter,  A. Kunitsa,  
 Ka Un Lao,  A. Laurent,  K. V. Lawler,  Joonho Lee,  D. Lefrancois,  
 S. Lehtola,  D. S. Levine,  Yi-Pei Li,  You-Sheng Lin,  Fenglai Liu,  
 E. Livshits,  A. Luenser,  P. Manohar,  E. Mansoor,  S. F. Manzer,  
 Shan-Ping Mao,  Yuezhi Mao,  N. Mardirossian,  A. V. Marenich,  
 T. Markovich,  L. A. Martinez-Martinez,  S. A. Maurer,  N. J. Mayhall,  
 S. C. McKenzie,  J.-M. Mewes,  P. Morgante,  A. F. Morrison,  
 J. W. Mullinax,  K. Nanda,  T. S. Nguyen-Beck,  R. Olivares-Amaya,  
 J. A. Parkhill,  Zheng Pei,  T. M. Perrine,  F. Plasser,  P. Pokhilko,  
 S. Prager,  A. Prociuk,  E. Ramos,  D. R. Rehn,  F. Rob,  M. Scheurer,  
 M. Schneider,  N. Sergueev,  S. M. Sharada,  S. Sharma,  D. W. Small,  
 T. Stauch,  T. Stein,  Yu-Chuan Su,  A. J. W. Thom,  A. Tkatchenko,  
 T. Tsuchimochi,  N. M. Tubman,  L. Vogt,  M. L. Vidal,  O. Vydrov,  
 M. A. Watson,  J. Wenzel,  M. de Wergifosse,  T. A. Wesolowski,  A. White,  
 J. Witte,  A. Yamada,  Jun Yang,  K. Yao,  S. Yeganeh,  S. R. Yost,  
 Zhi-Qiang You,  A. Zech,  Igor Ying Zhang,  Xing Zhang,  Yan Zhao,  
 Ying Zhu,  B. R. Brooks,  G. K. L. Chan,  C. J. Cramer,  M. S. Gordon,  
 W. J. Hehre,  A. Klamt,  M. W. Schmidt,  C. D. Sherrill,  D. G. Truhlar,  
 A. Aspuru-Guzik,  R. Baer,  A. T. Bell,  N. A. Besley,  Jeng-Da Chai,  
 A. E. DePrince, III,  R. A. DiStasio Jr.,  A. Dreuw,  B. D. Dunietz,  
 T. R. Furlani,  Chao-Ping Hsu,  Yousung Jung,  Jing Kong,  D. S. Lambrecht,  
 WanZhen Liang,  C. Ochsenfeld,  V. A. Rassolov,  L. V. Slipchenko,  
 J. E. Subotnik,  T. Van Voorhis,  J. M. Herbert,  A. I. Krylov,  
 P. M. W. Gill,  M. Head-Gordon

 Contributors to earlier versions of Q-Chem not listed above: 
 R. D. Adamson,  B. Austin,  J. Baker,  G. J. O. Beran,  K. Brandhorst,  
 S. T. Brown,  E. F. C. Byrd,  A. K. Chakraborty,  C.-L. Cheng,  
 Siu Hung Chien,  D. M. Chipman,  D. L. Crittenden,  H. Dachsel,  
 R. J. Doerksen,  A. D. Dutoi,  L. Fusti-Molnar,  W. A. Goddard III,  
 A. Golubeva-Zadorozhnaya,  S. R. Gwaltney,  G. Hawkins,  A. Heyden,  
 S. Hirata,  G. Kedziora,  F. J. Keil,  C. Kelley,  Jihan Kim,  R. A. King,  
 R. Z. Khaliullin,  P. P. Korambath,  W. Kurlancheek,  A. M. Lee,  M. S. Lee,  
 S. V. Levchenko,  Ching Yeh Lin,  D. Liotard,  R. C. Lochan,  I. Lotan,  
 P. E. Maslen,  N. Nair,  D. P. O'Neill,  D. Neuhauser,  E. Neuscamman,  
 C. M. Oana,  R. Olson,  B. Peters,  R. Peverati,  P. A. Pieniazek,  
 Y. M. Rhee,  J. Ritchie,  M. A. Rohrdanz,  E. Rosta,  N. J. Russ,  
 H. F. Schaefer III,  N. E. Schultz,  N. Shenvi,  A. C. Simmonett,  A. Sodt,  
 D. Stuck,  K. S. Thanthiriwatte,  V. Vanovschi,  Tao Wang,  A. Warshel,  
 C. F. Williams,  Q. Wu,  X. Xu,  W. Zhang

 Please cite Q-Chem as follows:
 Y. Shao et al., Mol. Phys. 113, 184-215 (2015)
 DOI: 10.1080/00268976.2014.952696

 Q-Chem 5.2.0 for Intel X86 EM64T Linux

 Parts of Q-Chem use Armadillo 8.300.2 (Tropical Shenanigans).
 http://arma.sourceforge.net/

 Q-Chem begins on Sun Sep 26 09:40:00 2021  

Host: cori01
0

     Scratch files written to /tmp/qchem29919//Frg2//
 May1019 |scratch|qcdevops|jenkins|workspace|build_RNUM -1
Processing $rem in /global/common/cori/software/qchem/5.2/config/preferences:
	 MEM_TOTAL  96000 
NAlpha2: 40
NElect   40
Mult     1
Symmetry turned off for PCM/SM12/SMD calculation

Checking the input file for inconsistencies... 	...done.

--------------------------------------------------------------
User input:
--------------------------------------------------------------
$molecule
0 1
 6	-1.6140019656	0.8889013035	-0.0625100540
 6	-2.9120019656	1.1709013035	-0.8075100540
 6	-1.8220019656	0.0109013035	1.1554899460
 8	-2.9450019656	-0.3560986965	1.4954899460
 7	-0.7330019656	-0.3400986965	1.8254899460
 1	-0.9120019656	0.4089013035	-0.7385100540
 1	-1.1710019656	1.8289013035	0.2694899460
 1	-3.5870019656	1.7219013035	-0.1505100540
 1	-3.3800019656	0.2179013035	-1.0635100540
 1	-0.8360019656	-0.9190986965	2.6444899460
 1	0.1839980344	-0.0180986965	1.5294899460
 1	-2.7715809656	1.7383463035	-1.7393300540
$end
$rem
EDA2		1
METHOD		WB97X-V
BASIS		DEF2-TZVPD
XC_GRID		000099000590
NL_GRID		1
UNRESTRICTED		FALSE
MAX_SCF_CYCLES		200
SYMMETRY		FALSE
SYM_IGNORE		TRUE
BASIS_LIN_DEP_THRESH		6
THRESH		14
SCF_CONVERGENCE		8
SCF_PRINT_FRGM		TRUE
SOLVENT_METHOD		SMD
!required keywords
JOBTYPE		SP
SYM_IGNORE		TRUE
SUBSYSTEM		TRUE
GEN_SCFMAN		TRUE
CHILD_INSTRUCTION		2
SYM_IGNORE		TRUE
SCFMI		0
RI_K 0		
PARI_K 0		
MIN_PARI_K 0		
IARI_K 0		
OCC_RI_K 0		
PURECART		1111
MEM_STATIC		2000
MEM_TOTAL		96000
GUI		0
CHILD_MP		1
CHILD_MP_ORDERS		232
FRZ_RELAX		0
FRZ_RELAX_METHOD		0
EDA_CLS_ELEC		1
EDA_CLS_DISP		0
FRZ_ORTHO_DECOMP		1
EDA2		FALSE
FRGM_METHOD		FALSE
CIS_N_ROOTS  0
LOCAL_CIS    0
CIS_RLX_DNS  1
$end
$smx
SOLVENT			WATER
$end
--------------------------------------------------------------
 ----------------------------------------------------------------
             Standard Nuclear Orientation (Angstroms)
    I     Atom           X                Y                Z
 ----------------------------------------------------------------
    1      C      -1.6140019656     0.8889013035    -0.0625100540
    2      C      -2.9120019656     1.1709013035    -0.8075100540
    3      C      -1.8220019656     0.0109013035     1.1554899460
    4      O      -2.9450019656    -0.3560986965     1.4954899460
    5      N      -0.7330019656    -0.3400986965     1.8254899460
    6      H      -0.9120019656     0.4089013035    -0.7385100540
    7      H      -1.1710019656     1.8289013035     0.2694899460
    8      H      -3.5870019656     1.7219013035    -0.1505100540
    9      H      -3.3800019656     0.2179013035    -1.0635100540
   10      H      -0.8360019656    -0.9190986965     2.6444899460
   11      H       0.1839980344    -0.0180986965     1.5294899460
   12      H      -2.7715809656     1.7383463035    -1.7393300540
 ----------------------------------------------------------------
 Nuclear Repulsion Energy =         179.93670837 hartrees
 There are       20 alpha and       20 beta electrons
 Requested basis set is def2-TZVPD
 There are 101 shells and 251 basis functions

 Total QAlloc Memory Limit  96000 MB
 Mega-Array Size      1956 MB
 MEM_STATIC part      2000 MB
 
 Citation of the SMD model:
 Marenich, A.V.; Cramer, C.J.; Truhlar, D.G.
 J. Phys. Chem. B 2009, 113, 6378-6396.
 iSolventCode=           1
 Solvent: water                                                           
 
 vradii
            1           2           3           4           5           6
    1   1.8500000   1.8500000   1.8500000   1.5200000   1.8900000   1.2000000
            7           8           9          10          11          12
    1   1.2000000   1.2000000   1.2000000   1.2000000   1.2000000   1.2000000
 Changing PCM_VDW_RADII to SMD_RADIUS
 Discretize the solute cavity surface with Lebedev spheres
	Using 110 Lebedev grid points for each H atom
	Using 194 Lebedev grid points for other atoms
	Atomic van der Waals radii will be scaled by 1.20
 Remove points where switching function is < 1.0e-08
 Keep 916 surface tesserae and discard 824 interior tesserae
 Molecular Surface Area = 109.889 Angst**2

                       Distance Matrix (Angstroms)
             C (  1)   C (  2)   C (  3)   O (  4)   N (  5)   H (  6)
   C (  2)  1.522942
   C (  3)  1.515807  2.527265
   O (  4)  2.397697  2.763445  1.229397
   N (  5)  2.418914  3.736824  1.325904  2.236538
   H (  6)  1.086361  2.141356  2.138630  3.115938  2.677151
   H (  7)  1.090905  2.150343  2.124599  3.069915  2.705095  1.760552
   H (  8)  2.143446  1.091272  2.783592  2.727556  4.037541  3.037324
   H (  9)  2.137989  1.092140  2.719223  2.658417  3.957814  2.496624
   H ( 10)  3.346938  4.538081  2.013509  2.466790  1.008271  3.635113
   H ( 11)  2.567083  4.057155  2.040773  3.147386  1.015967  2.554872
   H ( 12)  2.207549  1.100000  3.502249  3.857569  4.602573  2.495416
             H (  7)   H (  8)   H (  9)   H ( 10)   H ( 11)
   H (  8)  2.454568
   H (  9)  3.041692  1.771563
   H ( 10)  3.647513  4.728098  4.638315
   H ( 11)  2.614390  4.480005  4.413779  1.759382
   H ( 12)  2.570099  1.785926  1.771627  5.479631  4.744020
 
 A cutoff of  1.0D-14 yielded   5034 shell pairs
 There are     31622 function pairs (     39760 Cartesian)
 Smallest overlap matrix eigenvalue = 4.67E-06

 Scale SEOQF with 1.000000e-01/1.000000e-01/1.000000e-01

 Standard Electronic Orientation quadrupole field applied
 Nucleus-field energy     =     0.0000000015 hartrees
 Guess from superposition of atomic densities
 Warning:  Energy on first SCF cycle will be non-variational
 SAD guess density has 39.592240 electrons

 -----------------------------------------------------------------------
  General SCF calculation program by
  Eric Jon Sundstrom, Paul Horn, Yuezhi Mao, Dmitri Zuev, Alec White,
  David Stuck, Shaama M.S., Shane Yost, Joonho Lee, David Small,
  Daniel Levine, Susi Lehtola, Hugh Burton, Evgeny Epifanovsky
 -----------------------------------------------------------------------
 Exchange:     0.1670 Hartree-Fock + 1.0000 wB97X-V + LR-HF
 Correlation:  1.0000 wB97X-V
 Using Euler-Maclaurin-Lebedev (99,590) quadrature formula
 Nonlocal Correlation:  VV10 with C = 0.0100 and b = 6.00 and scale = 1.00000
 Grid used for NLC:  SG-1 standard quadrature
Energy prior to optimization (guess energy) = -248.014867159685
Begin Timing: Total SCF Calculation
begin iterations for algorithm: DIIS         
the SCF tolerance is set to 1.00e-08
    1    -248.0148671597      9.84e-03     00000 
    2    -247.6246888180      1.21e-02     00000 
    3    -248.5511004661      1.91e-03     00000 
    4    -248.5713945674      6.13e-04     00000 
    5    -248.5746393152      1.60e-04     00000 
    6    -248.5749263145      5.67e-05     00000 
    7    -248.5749715756      1.70e-05     00000 
    8    -248.5749770803      4.75e-06     00000 
    9    -248.5749778599      1.69e-06     00000 
   10    -248.5749779201      4.69e-07     00000 
   11    -248.5749779232      1.31e-07     00000 
   12    -248.5749779235      1.86e-08     00000 
   13    -248.5749779235      4.06e-09     00000 Convergence criterion met
Timing for Total SCF: 761.00s (wall), 1507.37s (cpu)
(3)  G-ENP(liq) elect-nuc-pol free energy of system     -248.574977924 a.u.
(4)  G-CDS(liq) cavity-dispersion-solvent structure 
     free energy                                                3.6399 kcal/mol
(6)  G-S(liq) free energy of system                     -248.569177390 a.u.
E_pcm = -0.0287562345
E_cds = 0.0058005330
Multipole orders to be included
        2
        3
computing dipole RHS
computing quadrupole RHS
total number of RHS in solve_reponses: 8
RHS batch sizes
        8
Beginning Block Conjugate Gradient Iterations. Batch Number: 0
computing hessian-vector products by finite difference
              1      6.57e-01     00000 Conjugate Gradient Iteration
computing hessian-vector products by finite difference
              2      2.17e-01     00000 Conjugate Gradient Iteration
computing hessian-vector products by finite difference
              3      5.67e-02     00000 Conjugate Gradient Iteration
computing hessian-vector products by finite difference
              4      1.50e-02     00000 Conjugate Gradient Iteration
computing hessian-vector products by finite difference
              5      2.18e-03     00000 Conjugate Gradient Iteration
computing hessian-vector products by finite difference
              6      4.67e-04     00000 Conjugate Gradient Iteration
computing hessian-vector products by finite difference
              7      6.60e-05     00000 Conjugate Gradient Iteration
computing hessian-vector products by finite difference
              8      7.94e-06     00000 Conjugate Gradient Iteration
computing hessian-vector products by finite difference
              9      1.00e-06     00000 Conjugate Gradient Iteration
computing hessian-vector products by finite difference
             10      1.10e-07     00000 Conjugate Gradient Iteration
computing hessian-vector products by finite difference
             11      1.55e-08     00000 Conjugate Gradient Iteration
computing hessian-vector products by finite difference
             12      5.06e-09     00000 CG Converged
batch 0 complete
Done Calculating Responses
TESTING ORTHOGONALIZATION OF MULTIPOLE BASIS
Multipole virts passed orthogonality test
Virts Per Order
           60
          100
 
 --------------------------------------------------------------
 
                    Orbital Energies (a.u.)
 --------------------------------------------------------------
 
 Alpha MOs
 -- Occupied --
-19.1834 -14.4250 -10.3742 -10.2663 -10.2504  -1.1761  -1.0397  -0.9036
 -0.7758  -0.6917  -0.6446  -0.6003  -0.5823  -0.5368  -0.5085  -0.4757
 -0.4559  -0.4447  -0.3812  -0.3749
 -- Virtual --
  0.0640   0.0875   0.0931   0.0965   0.1222   0.1271   0.1316   0.1372
  0.1607   0.1772   0.1890   0.1932   0.2079   0.2133   0.2163   0.2328
  0.2418   0.2435   0.2703   0.2787   0.2854   0.2911   0.2933   0.3092
  0.3236   0.3257   0.3318   0.3463   0.3501   0.3578   0.3679   0.3707
  0.3809   0.3839   0.3936   0.4024   0.4051   0.4079   0.4165   0.4279
  0.4367   0.4432   0.4576   0.4633   0.4697   0.4821   0.4875   0.4960
  0.5086   0.5161   0.5250   0.5316   0.5360   0.5456   0.5558   0.5763
  0.5935   0.6060   0.6122   0.6284   0.6354   0.6522   0.6593   0.6664
  0.6791   0.6996   0.7156   0.7222   0.7476   0.7493   0.7637   0.7778
  0.7855   0.7932   0.7964   0.8077   0.8180   0.8402   0.8460   0.8546
  0.8744   0.8882   0.8976   0.9128   0.9509   0.9633   0.9914   0.9952
  1.0424   1.0509   1.0583   1.0779   1.1243   1.1293   1.1509   1.1571
  1.2574   1.2714   1.2976   1.3127   1.3484   1.3497   1.3834   1.3947
  1.4429   1.4747   1.4973   1.5591   1.5741   1.6309   1.6986   1.7451
  1.8246   1.8457   1.8552   1.9006   1.9123   1.9224   1.9362   1.9730
  1.9757   1.9869   1.9938   2.0239   2.0309   2.0734   2.0934   2.1435
  2.1660   2.2135   2.2391   2.2687   2.2989   2.3252   2.3480   2.3653
  2.4344   2.4886   2.5037   2.5399   2.5517   2.5530   2.6167   2.6280
  2.6750   2.6971   2.7167   2.7694   2.7859   2.8043   2.8278   2.8287
  2.8829   2.9145   2.9212   2.9803   3.0222   3.0349   3.0991   3.1238
  3.1940   3.2145   3.2405   3.2914   3.2996   3.3109   3.3298   3.3340
  3.3427   3.4116   3.4274   3.4490   3.4692   3.4904   3.5183   3.5471
  3.5848   3.6008   3.6483   3.6835   3.7065   3.7318   3.7598   3.7923
  3.9280   3.9525   4.0084   4.0567   4.0692   4.1281   4.1302   4.2653
  4.3478   4.3827   4.4569   4.5454   4.5770   4.6190   4.6537   4.7414
  4.7607   4.8749   4.9010   4.9169   4.9833   5.0770   5.1860   5.2124
  5.2792   5.3760   5.3975   5.4075   5.4230   5.5472   5.5976   5.7685
  5.9294   6.1694   6.2643   6.5324   6.6505   6.7523   6.8463   6.9785
  7.2668   7.3401  22.6660  22.8079  23.6259  32.4437  44.3284
 --------------------------------------------------------------
 
          Ground-State Mulliken Net Atomic Charges

     Atom                 Charge (a.u.)
  ----------------------------------------
      1 C                     0.038793
      2 C                    -0.974200
      3 C                     0.216271
      4 O                    -0.703344
      5 N                    -0.298309
      6 H                     0.251928
      7 H                     0.233310
      8 H                     0.233529
      9 H                     0.230191
     10 H                     0.271492
     11 H                     0.240444
     12 H                     0.259894
  ----------------------------------------
  Sum of atomic charges =     0.000000

 -----------------------------------------------------------------
                    Cartesian Multipole Moments
 -----------------------------------------------------------------
    Charge (ESU x 10^10)
                 0.0000
    Dipole Moment (Debye)
         X       5.7263      Y       1.1743      Z      -0.7046
       Tot       5.8878
    Quadrupole Moments (Debye-Ang)
        XX     -52.4270     XY      -3.8016     YY     -30.3672
        XZ      10.3725     YZ      -0.5558     ZZ     -29.9015
    Octopole Moments (Debye-Ang^2)
       XXX     265.6665    XXY       0.9800    XYY      62.5517
       YYY     -29.3325    XXZ     -54.2856    XYZ      -3.9018
       YYZ     -18.2802    XZZ      77.9632    YZZ     -15.2640
       ZZZ     -51.6208
    Hexadecapole Moments (Debye-Ang^3)
      XXXX   -1224.2647   XXXY      50.2514   XXYY    -188.0265
      XYYY      79.2583   YYYY    -149.7373   XXXZ     189.6953
      XXYZ      34.1603   XYYZ      26.0857   YYYZ      46.7356
      XXZZ    -273.0144   XYZZ      23.4696   YYZZ     -73.3420
      XZZZ      97.7543   YZZZ      24.0422   ZZZZ    -298.9633
 -----------------------------------------------------------------
Archival summary:
1\1\nid00549\SP\ProcedureUnspecified\BasisUnspecified\1137\meili\SunSep2613:17:062021SunSep2613:17:062021\0\\#,ProcedureUnspecified,BasisUnspecified,\\0,1\C\O,1,1.2294\N,1,1.3259,2,122.105\H,3,1.00827,1,118.592,2,-0.616847,0\H,3,1.01597,1,120.677,2,-179.502,0\C,1,1.51581,2,121.364,3,179.759,0\H,6,1.08636,1,109.436,2,-124.603,0\H,6,1.0909,1,108.076,2,118.114,0\C,6,1.52294,1,112.543,2,-3.05237,0\H,9,1.09127,6,109.036,1,62.6419,0\H,9,1.09214,6,108.561,1,-55.3409,0\H,9,1.1,6,113.648,1,-175.323,0\\\@

 Total job time:  13027.71s(wall), 25822.27s(cpu) 
 Sun Sep 26 13:17:07 2021

        *************************************************************
        *                                                           *
        *  Thank you very much for using Q-Chem.  Have a nice day.  *
        *                                                           *
        *************************************************************


Done Job For Fragment 1
calling putenv with: QCSCRATCH=/global/cscratch1/sd/meili 
calling putenv with: QCLOCALSCR=/tmp 
calling putenv with: QCTHREADS=32 
Doing General SCFMI
 Exchange:     0.1670 Hartree-Fock + 1.0000 wB97X-V + LR-HF
 Correlation:  1.0000 wB97X-V
 Using Euler-Maclaurin-Lebedev (99,590) quadrature formula
 Nonlocal Correlation:  VV10 with C = 0.0100 and b = 6.00 and scale = 1.00000
 Grid used for NLC:  SG-1 standard quadrature
performing fock build before subrot guess so that all methods have access
Printing subrot_rss_gen Method Specification:
Occupied Subspace Method is 0
Virtual Subspace Method is 0
Energy of the unrelaxed supersystem initial determinant -516.427945395781
performing fock build before subrot guess so that all methods have access
Printing subrot_rss_gen Method Specification:
Occupied Subspace Method is 0
Virtual Subspace Method is 0
Energy of the unrelaxed supersystem initial determinant w/ solvent -516.558393161339
write pseudocanon occs and virts to disk
write pseudocanon orbital energies to disk
Tolerance of ortho_decomp_scf: 1.00e-06
GDM subspace size: 20
Beginning the Orthogonal Decomposition of the Initial Supersystem Wavefunction
    1    -516.3687155141      3.96e-02     ortho_decomp Preconditoned Steepest Descent
    2    -516.3721552458      1.01e-03     ortho_decomp BFGS Step
    3    -516.3721671731      7.67e-05     ortho_decomp BFGS Step
    4    -516.3721671926      3.11e-06     ortho_decomp BFGS Step
    5    -516.3721671927      1.16e-07     ortho_decomp 00000 Convergence criterion met
 Hartree-Fock
 Hartree-Fock
 Hartree-Fock
Doing General SCFMI
 Exchange:     0.1670 Hartree-Fock + 1.0000 wB97X-V + LR-HF
 Correlation:  1.0000 wB97X-V
 Using Euler-Maclaurin-Lebedev (99,590) quadrature formula
 Nonlocal Correlation:  VV10 with C = 0.0100 and b = 6.00 and scale = 1.00000
 Grid used for NLC:  SG-1 standard quadrature
performing fock build at end of subrot_r(subrot) constructor so that all methods have access
<S^2> of initial wavefunction before polarization iterations 0.0000000000
Beginning iterations for the determination of the polarized wavefunction
Energy prior to optimization (guess energy) = -516.558393161339
Begin Timing: Total SCF Calculation
begin iterations for algorithm: DIIS         
the SCF tolerance is set to 1.00e-08
    1    -516.5583931613      7.84e-05     00000 
    2    -516.5587812910      3.63e-05     00000 
    3    -516.5588217955      2.46e-05     00000 
    4    -516.5588398054      6.96e-06     00000 
    5    -516.5588415607      2.90e-06     00000 
    6    -516.5588419809      1.32e-06     00000 
    7    -516.5588420502      6.68e-07     00000 
    8    -516.5588420661      2.98e-07     00000 
    9    -516.5588420684      1.68e-07     00000 
   10    -516.5588420690      7.74e-08     00000 
   11    -516.5588420692      3.86e-08     00000 
   12    -516.5588420692      1.56e-08     00000 
   13    -516.5588420692      5.42e-09     00000 Convergence criterion met
write pseudocanon occs and virts to disk
write pseudocanon orbital energies to disk
Timing for Total SCF: 4818.00s (wall), 9571.13s (cpu)
<S^2> of polarized wavefunction after polarization iterations 0.0000000000
relaxing scfmi constraint to allow all rotations in the entire AO span
Doing General SCFMI
 Exchange:     0.1670 Hartree-Fock + 1.0000 wB97X-V + LR-HF
 Correlation:  1.0000 wB97X-V
 Using Euler-Maclaurin-Lebedev (99,590) quadrature formula
 Nonlocal Correlation:  VV10 with C = 0.0100 and b = 6.00 and scale = 1.00000
 Grid used for NLC:  SG-1 standard quadrature
performing fock build at end of subrot_r(subrot) constructor so that all methods have access
<S^2> of polarized wavefunction before ct-allowed iterations 0.0000000000
Beginning iterations for the determination of the CT-Allowed wavefunction
Energy prior to optimization (guess energy) = -516.558842069237
Begin Timing: Total SCF Calculation
begin iterations for algorithm: DIIS         
the SCF tolerance is set to 1.00e-08
    1    -516.5588420692      1.21e-04     00000 
    2    -516.5607813058      1.62e-05     00000 
    3    -516.5608531213      5.62e-06     00000 
    4    -516.5608560670      4.40e-06     00000 
    5    -516.5608578982      6.63e-07     00000 
    6    -516.5608579675      3.45e-07     00000 
    7    -516.5608579878      1.03e-07     00000 
    8    -516.5608579894      3.23e-08     00000 
    9    -516.5608579897      1.21e-08     00000 
   10    -516.5608579897      4.97e-09     00000 Convergence criterion met
write pseudocanon occs and virts to disk
write pseudocanon orbital energies to disk
Timing for Total SCF: 3731.00s (wall), 7414.56s (cpu)
<S^2> of ct_allowed wavefunction after ct-allowed iterations 0.0000000000

================================
        Results of EDA2         
================================
Basic EDA Quantities
--------------------
Fragment Energies (Ha):
1 -267.9740056390
2 -248.5691773905
--------------------
  E_prp (kJ/mol) = 0.0000
  E_sol (kJ/mol) = 70.8293
  E_frz (kJ/mol) = -83.2114
  E_pol (kJ/mol) = -1.1786
  E_vct (kJ/mol) = -5.2929
  E_int (kJ/mol) = -18.8536
--------------------


Initial Wavefunction Decomposition
--------------------
  --------------------
  Orthogonal Fragment Subspace Decomposition:
  --------------------
     E_elec   (ELEC)   (kJ/mol) = -115.0948
     E_pauli  (PAULI)  (kJ/mol) = 49.9755
     E_disp   (DISP)   (kJ/mol) = -18.0922
     --------------------
     Terms summing to E_pauli:
     --------------------
        E_kep_pauli       (kJ/mol) = 63.2360
        E_disp_free_pauli (kJ/mol) = -13.2604
  --------------------
  Classical Frozen Decomposition:
  --------------------
     E_cls_elec  (CLS ELEC)  (kJ/mol) = -92.5787
     E_cls_pauli (CLS PAULI) (kJ/mol) = 9.3673
    [E_mod_pauli (MOD PAULI) (kJ/mol) = 27.4595 (CLS PAULI - DISP from orthogonal decomposition) ]
  --------------------
--------------------

Simplified EDA Summary (kJ/mol)
--------------------
 PREPARATION     0.0000
 SOLVATION       70.8293
 FROZEN          -65.1192      (does not include dispersion)
[PAULI           49.9755]     (if this is negligible, then frozen describes electrostatics)
 DISPERSION      -18.0922
 POLARIZATION    -1.1786
 CHARGE TRANSFER -5.2929
 TOTAL           -18.8536     (PRP + SOL + FRZ + DISP + POL + CT)
--------------------
 
 --------------------------------------------------------------
 
                    Orbital Energies (a.u.)
 --------------------------------------------------------------
 
 Alpha MOs
 -- Occupied --
-19.1807 -19.1554 -19.1537 -14.4190 -10.3711 -10.3524 -10.2638 -10.2516
-10.2490 -10.2428  -1.1734  -1.1682  -1.0676  -1.0353  -0.9018  -0.8903
 -0.7736  -0.7523  -0.6887  -0.6417  -0.6169  -0.5989  -0.5819  -0.5666
 -0.5630  -0.5376  -0.5305  -0.5073  -0.5014  -0.4791  -0.4735  -0.4548
 -0.4467  -0.4417  -0.4344  -0.3777  -0.3731  -0.3662  -0.3558  -0.3462
 -- Virtual --
  0.0612   0.0754   0.0799   0.0856   0.1011   0.1045   0.1062   0.1160
  0.1202   0.1263   0.1339   0.1394   0.1416   0.1495   0.1540   0.1659
  0.1699   0.1766   0.1793   0.1899   0.1966   0.2001   0.2077   0.2102
  0.2206   0.2245   0.2264   0.2342   0.2439   0.2451   0.2498   0.2644
  0.2695   0.2725   0.2796   0.2821   0.2870   0.2942   0.2972   0.3097
  0.3098   0.3139   0.3186   0.3267   0.3300   0.3335   0.3350   0.3438
  0.3514   0.3558   0.3579   0.3625   0.3650   0.3681   0.3727   0.3758
  0.3801   0.3850   0.3879   0.3954   0.3977   0.4020   0.4048   0.4143
  0.4147   0.4208   0.4260   0.4293   0.4413   0.4425   0.4478   0.4542
  0.4612   0.4628   0.4667   0.4736   0.4742   0.4829   0.4894   0.4913
  0.4969   0.5014   0.5105   0.5134   0.5187   0.5231   0.5294   0.5348
  0.5403   0.5436   0.5472   0.5550   0.5592   0.5680   0.5729   0.5774
  0.5790   0.5892   0.5923   0.5937   0.5978   0.6101   0.6192   0.6234
  0.6255   0.6274   0.6374   0.6404   0.6467   0.6582   0.6687   0.6704
  0.6722   0.6790   0.6843   0.6984   0.6998   0.7096   0.7164   0.7234
  0.7270   0.7319   0.7447   0.7528   0.7561   0.7624   0.7637   0.7694
  0.7732   0.7774   0.7832   0.7895   0.7920   0.7949   0.7999   0.8110
  0.8138   0.8262   0.8270   0.8328   0.8368   0.8476   0.8536   0.8576
  0.8659   0.8699   0.8808   0.8857   0.8970   0.9013   0.9089   0.9254
  0.9297   0.9382   0.9408   0.9548   0.9684   0.9727   0.9827   0.9898
  0.9969   1.0024   1.0193   1.0398   1.0434   1.0598   1.0733   1.0822
  1.0926   1.1050   1.1185   1.1215   1.1370   1.1447   1.1615   1.1745
  1.1830   1.1983   1.2098   1.2256   1.2396   1.2407   1.2494   1.2626
  1.2802   1.2866   1.3129   1.3311   1.3354   1.3461   1.3587   1.3733
  1.3823   1.3882   1.3977   1.4203   1.4329   1.4466   1.4596   1.4694
  1.4881   1.4991   1.5115   1.5275   1.5466   1.5736   1.5973   1.6162
  1.6170   1.6786   1.6852   1.7538   1.7848   1.8160   1.8550   1.8887
  1.8914   1.9017   1.9176   1.9237   1.9296   1.9443   1.9563   1.9673
  1.9690   1.9790   1.9897   1.9947   1.9953   2.0072   2.0105   2.0196
  2.0258   2.0311   2.0461   2.0508   2.0779   2.0956   2.1083   2.1224
  2.1332   2.1585   2.1779   2.1913   2.2137   2.2402   2.2494   2.2613
  2.2765   2.2845   2.2944   2.3157   2.3230   2.3428   2.3504   2.3687
  2.3933   2.4125   2.4200   2.4321   2.4779   2.4898   2.5011   2.5211
  2.5401   2.5464   2.5618   2.5817   2.5934   2.5986   2.6116   2.6410
  2.6589   2.6734   2.6983   2.7017   2.7179   2.7378   2.7504   2.7571
  2.7756   2.7971   2.8140   2.8233   2.8288   2.8364   2.8483   2.8556
  2.8987   2.9005   2.9213   2.9301   2.9441   2.9656   2.9794   2.9939
  2.9979   3.0386   3.0677   3.0734   3.0875   3.1382   3.1527   3.1737
  3.1867   3.2160   3.2369   3.2506   3.2589   3.2679   3.2905   3.2958
  3.3229   3.3496   3.3515   3.3576   3.3642   3.3745   3.3796   3.3964
  3.4015   3.4121   3.4277   3.4419   3.4515   3.4581   3.4725   3.4863
  3.4971   3.5034   3.5218   3.5273   3.5665   3.5727   3.5836   3.6017
  3.6194   3.6312   3.6536   3.6644   3.6890   3.6995   3.7080   3.7279
  3.7340   3.7458   3.7542   3.7676   3.7750   3.7834   3.8041   3.8242
  3.8387   3.8449   3.9415   3.9728   3.9882   4.0394   4.0819   4.0916
  4.1074   4.1152   4.1483   4.1502   4.1851   4.2162   4.2682   4.3031
  4.3557   4.3761   4.3827   4.4216   4.4723   4.5337   4.5659   4.5994
  4.6352   4.6484   4.6778   4.7142   4.7551   4.7850   4.7894   4.8273
  4.8494   4.8883   4.8907   4.9407   4.9593   5.0315   5.0597   5.0891
  5.1004   5.2034   5.2611   5.2908   5.3082   5.3404   5.3480   5.3580
  5.3982   5.4132   5.4383   5.4759   5.4991   5.5833   5.6313   5.7012
  5.7570   5.7736   5.7975   5.9485   6.0116   6.2009   6.2406   6.2729
  6.3317   6.3577   6.5416   6.6074   6.6528   6.6590   6.7350   6.7614
  6.7683   6.7837   6.8575   6.9698   6.9993   7.0205   7.0687   7.2483
  7.2823   7.3421   7.3597   7.3896   7.4113  22.6945  22.7154  22.8401
 22.9205  23.6594  23.7939  32.5638  44.3877  44.4116  44.4481
 --------------------------------------------------------------
 
          Ground-State Mulliken Net Atomic Charges

     Atom                 Charge (a.u.)
  ----------------------------------------
      1 C                     0.082443
      2 C                    -0.964396
      3 C                     0.382100
      4 O                    -0.788521
      5 O                    -0.825781
      6 H                     0.255553
      7 H                     0.190393
      8 H                     0.250485
      9 H                     0.227706
     10 H                     0.252932
     11 C                     0.719281
     12 C                    -1.244844
     13 C                     0.151037
     14 O                    -0.723481
     15 N                    -0.178069
     16 H                    -0.265537
     17 H                     0.254293
     18 H                     0.272193
     19 H                     0.242703
     20 H                     0.271040
     21 H                     0.142668
     22 H                     0.295801
  ----------------------------------------
  Sum of atomic charges =    -1.000000

 -----------------------------------------------------------------
                    Cartesian Multipole Moments
 -----------------------------------------------------------------
    Charge (ESU x 10^10)
                -4.8032
    Dipole Moment (Debye)
         X      -5.5281      Y       4.4083      Z      -4.3234
       Tot       8.2876
    Quadrupole Moments (Debye-Ang)
        XX    -111.8345     XY       4.6912     YY     -72.6969
        XZ       2.5826     YZ      -3.5590     ZZ     -65.2058
    Octopole Moments (Debye-Ang^2)
       XXX      15.3469    XXY      31.8504    XYY     -24.6024
       YYY       7.6989    XXZ     -46.1673    XYZ     -10.2827
       YYZ       9.5650    XZZ       9.4724    YZZ      -5.6638
       ZZZ      25.1073
    Hexadecapole Moments (Debye-Ang^3)
      XXXX   -2202.0072   XXXY     163.8950   XXYY    -413.3677
      XYYY     159.9718   YYYY    -342.5688   XXXZ     259.2259
      XXYZ       9.4415   XYYZ      65.1905   YYYZ      11.1807
      XXZZ    -503.7698   XYZZ      41.4807   YYZZ    -185.7431
      XZZZ     203.5899   YZZZ     -13.9044   ZZZZ    -780.3289
 -----------------------------------------------------------------
Archival summary:
1\1\nid00549\SP\ProcedureUnspecified\BasisUnspecified\31612(1-,1)\meili\SunSep2617:18:082021SunSep2617:18:082021\0\\#,ProcedureUnspecified,BasisUnspecified,\\-1,1\O\C,1,1.2501\O,2,1.25103,1,122.672\C,2,1.52058,1,118.667,3,179.512,0\H,4,1.08787,2,109.156,1,-30.2166,0\H,4,1.09241,2,109.098,1,88.0568,0\C,4,1.52364,2,111.102,1,-150.927,0\H,7,1.08295,4,108.528,2,54.3819,0\H,7,1.09082,4,109.033,2,-62.7941,0\H,7,1.1,4,115.704,2,175.303,0\H,1,2.19938,2,98.3358,3,-80.658,0\N,11,1.01597,1,174.56,2,34.048,0\H,12,1.00827,11,120.721,1,77.7699,0\C,12,1.3259,11,120.677,1,-103.368,0\O,14,1.2294,12,122.105,11,-179.502,0\C,14,1.51581,12,116.53,11,0.72738,0\H,16,1.08636,14,109.436,12,55.1689,0\H,16,1.0909,14,108.076,12,-62.1145,0\C,16,1.52294,14,112.543,12,176.72,0\H,19,1.09127,16,109.036,14,62.6419,0\H,19,1.09214,16,108.561,14,-55.3409,0\H,19,1.1,16,113.648,14,-175.323,0\\\@

 Total job time:  38685.78s(wall), 28778.09s(cpu) 
 Sun Sep 26 17:18:10 2021

        *************************************************************
        *                                                           *
        *  Thank you very much for using Q-Chem.  Have a nice day.  *
        *                                                           *
        *************************************************************


