
Running Job 1 of 1 SSI-014ASP-017ARG-1_PCM_TZVPD.in
qchem SSI-014ASP-017ARG-1_PCM_TZVPD.in_40948.0 /tmp/qchem40948/ 0
/global/common/cori/software/qchem/5.2/exe/qcprog.exe_s SSI-014ASP-017ARG-1_PCM_TZVPD.in_40948.0 /tmp/qchem40948/
                  Welcome to Q-Chem
     A Quantum Leap Into The Future Of Chemistry


 Q-Chem 5.2, Q-Chem, Inc., Pleasanton, CA (2019)

 License issued to: National Energy Research Scientific Computing Center

 Yihan Shao,  Zhengting Gan,  E. Epifanovsky,  A. T. B. Gilbert,  M. Wormit,  
 J. Kussmann,  A. W. Lange,  A. Behn,  Jia Deng,  Xintian Feng,  D. Ghosh,  
 M. Goldey,  P. R. Horn,  L. D. Jacobson,  I. Kaliman,  T. Kus,  A. Landau,  
 Jie Liu,  E. I. Proynov,  R. M. Richard,  R. P. Steele,  E. J. Sundstrom,  
 H. L. Woodcock III,  P. M. Zimmerman,  D. Zuev,  B. Albrecht,  E. Alguire,  
 S. A. Baeppler,  D. Barton,  Z. Benda,  Y. A. Bernard,  E. J. Berquist,  
 K. B. Bravaya,  H. Burton,  D. Casanova,  Chun-Min Chang,  Yunqing Chen,  
 A. Chien,  K. D. Closser,  M. P. Coons,  S. Coriani,  S. Dasgupta,  
 A. L. Dempwolff,  M. Diedenhofen,  Hainam Do,  R. G. Edgar,  Po-Tung Fang,  
 S. Faraji,  S. Fatehi,  Qingguo Feng,  K. D. Fenk,  J. Fosso-Tande,  
 J. Gayvert,  Qinghui Ge,  A. Ghysels,  G. Gidofalvi,  J. Gomes,  
 J. Gonthier,  A. Gunina,  D. Hait,  M. W. D. Hanson-Heine,  
 P. H. P. Harbach,  A. W. Hauser,  M. F. Herbst,  J. E. Herr,  
 E. G. Hohenstein,  Z. C. Holden,  Kerwin Hui,  B. C. Huynh,  T.-C. Jagau,  
 Hyunjun Ji,  B. Kaduk,  K. Khistyaev,  Jaehoon Kim,  P. Klunzinger,  K. Koh,  
 D. Kosenkov,  L. Koulias,  T. Kowalczyk,  C. M. Krauter,  A. Kunitsa,  
 Ka Un Lao,  A. Laurent,  K. V. Lawler,  Joonho Lee,  D. Lefrancois,  
 S. Lehtola,  D. S. Levine,  Yi-Pei Li,  You-Sheng Lin,  Fenglai Liu,  
 E. Livshits,  A. Luenser,  P. Manohar,  E. Mansoor,  S. F. Manzer,  
 Shan-Ping Mao,  Yuezhi Mao,  N. Mardirossian,  A. V. Marenich,  
 T. Markovich,  L. A. Martinez-Martinez,  S. A. Maurer,  N. J. Mayhall,  
 S. C. McKenzie,  J.-M. Mewes,  P. Morgante,  A. F. Morrison,  
 J. W. Mullinax,  K. Nanda,  T. S. Nguyen-Beck,  R. Olivares-Amaya,  
 J. A. Parkhill,  Zheng Pei,  T. M. Perrine,  F. Plasser,  P. Pokhilko,  
 S. Prager,  A. Prociuk,  E. Ramos,  D. R. Rehn,  F. Rob,  M. Scheurer,  
 M. Schneider,  N. Sergueev,  S. M. Sharada,  S. Sharma,  D. W. Small,  
 T. Stauch,  T. Stein,  Yu-Chuan Su,  A. J. W. Thom,  A. Tkatchenko,  
 T. Tsuchimochi,  N. M. Tubman,  L. Vogt,  M. L. Vidal,  O. Vydrov,  
 M. A. Watson,  J. Wenzel,  M. de Wergifosse,  T. A. Wesolowski,  A. White,  
 J. Witte,  A. Yamada,  Jun Yang,  K. Yao,  S. Yeganeh,  S. R. Yost,  
 Zhi-Qiang You,  A. Zech,  Igor Ying Zhang,  Xing Zhang,  Yan Zhao,  
 Ying Zhu,  B. R. Brooks,  G. K. L. Chan,  C. J. Cramer,  M. S. Gordon,  
 W. J. Hehre,  A. Klamt,  M. W. Schmidt,  C. D. Sherrill,  D. G. Truhlar,  
 A. Aspuru-Guzik,  R. Baer,  A. T. Bell,  N. A. Besley,  Jeng-Da Chai,  
 A. E. DePrince, III,  R. A. DiStasio Jr.,  A. Dreuw,  B. D. Dunietz,  
 T. R. Furlani,  Chao-Ping Hsu,  Yousung Jung,  Jing Kong,  D. S. Lambrecht,  
 WanZhen Liang,  C. Ochsenfeld,  V. A. Rassolov,  L. V. Slipchenko,  
 J. E. Subotnik,  T. Van Voorhis,  J. M. Herbert,  A. I. Krylov,  
 P. M. W. Gill,  M. Head-Gordon

 Contributors to earlier versions of Q-Chem not listed above: 
 R. D. Adamson,  B. Austin,  J. Baker,  G. J. O. Beran,  K. Brandhorst,  
 S. T. Brown,  E. F. C. Byrd,  A. K. Chakraborty,  C.-L. Cheng,  
 Siu Hung Chien,  D. M. Chipman,  D. L. Crittenden,  H. Dachsel,  
 R. J. Doerksen,  A. D. Dutoi,  L. Fusti-Molnar,  W. A. Goddard III,  
 A. Golubeva-Zadorozhnaya,  S. R. Gwaltney,  G. Hawkins,  A. Heyden,  
 S. Hirata,  G. Kedziora,  F. J. Keil,  C. Kelley,  Jihan Kim,  R. A. King,  
 R. Z. Khaliullin,  P. P. Korambath,  W. Kurlancheek,  A. M. Lee,  M. S. Lee,  
 S. V. Levchenko,  Ching Yeh Lin,  D. Liotard,  R. C. Lochan,  I. Lotan,  
 P. E. Maslen,  N. Nair,  D. P. O'Neill,  D. Neuhauser,  E. Neuscamman,  
 C. M. Oana,  R. Olson,  B. Peters,  R. Peverati,  P. A. Pieniazek,  
 Y. M. Rhee,  J. Ritchie,  M. A. Rohrdanz,  E. Rosta,  N. J. Russ,  
 H. F. Schaefer III,  N. E. Schultz,  N. Shenvi,  A. C. Simmonett,  A. Sodt,  
 D. Stuck,  K. S. Thanthiriwatte,  V. Vanovschi,  Tao Wang,  A. Warshel,  
 C. F. Williams,  Q. Wu,  X. Xu,  W. Zhang

 Please cite Q-Chem as follows:
 Y. Shao et al., Mol. Phys. 113, 184-215 (2015)
 DOI: 10.1080/00268976.2014.952696

 Q-Chem 5.2.0 for Intel X86 EM64T Linux

 Parts of Q-Chem use Armadillo 8.300.2 (Tropical Shenanigans).
 http://arma.sourceforge.net/

 Q-Chem begins on Sun Sep 26 03:16:27 2021  

Host: cori01
0

     Scratch files written to /tmp/qchem40948//
 May1019 |scratch|qcdevops|jenkins|workspace|build_RNUM -1
Processing $rem in /global/common/cori/software/qchem/5.2/config/preferences:
	 MEM_TOTAL  96000 
NAlpha2: 72
NElect   72
Mult     1
Symmetry turned off for PCM/SM12/SMD calculation

 Q-Chem warning in module libgen/rem_setup.C, line 2803:

 Neither GIA nor STOLL is specified by user. Use STOLL as the default


Checking the input file for inconsistencies... 	...done.

--------------------------------------------------------------
User input:
--------------------------------------------------------------
$comment
SSI-014ASP-017ARG-1.pdb
$end

$molecule
0 1
--
-1 1
C   -1.189694013519    1.115642556415    2.648894924993
C    0.031305986481    0.104642556415    2.950894924993
O    0.614305986481   -0.442357443585    1.971894924993
O    0.366305986481   -0.213357443585    4.172894924993
H   -1.221694013519    1.858642556415    3.437894924993
H   -2.103694013519    0.529642556415    2.754894924993
H   -1.240494013519    1.606217556415    1.665654924993
--
1 1
C   -1.528694013519   -0.637357443585   -3.444105075007
C    0.419305986481    0.033642556415   -2.074105075007
N   -0.021694013519   -0.660357443585   -1.043105075007
N   -0.245694013519    0.032642556415   -3.218105075007
N    1.550305986481    0.701642556415   -1.974105075007
H   -0.836694013519   -1.238357443585   -1.147105075007
H    0.453305986481   -0.626357443585   -0.145105075007
H    0.163305986481    0.526642556415   -3.998105075007
H    1.921305986481    1.191642556415   -2.773105075007
H    2.087305986481    0.646642556415   -1.124105075007
H   -1.907694013519   -1.116357443585   -2.541105075007
H   -1.407694013519   -1.415357443585   -4.201105075007
H   -2.293574013519    0.075097556415   -3.786685075007
$end

$rem
JOBTYPE			EDA
EDA2			1
method			wB97X-V
BASIS			def2-TZVPD
XC_GRID			000099000590
NL_GRID			1
UNRESTRICTED		FALSE
MAX_SCF_CYCLES		200
SYMMETRY		FALSE
SYM_IGNORE		TRUE
MEM_STATIC		2000
BASIS_LIN_DEP_THRESH 	6
THRESH 			14
SCF_CONVERGENCE 	8
SCF_PRINT_FRGM 		TRUE
SOLVENT_METHOD          PCM
$end

$PCM
THEORY                  CPCM
METHOD                  SWIG
SOLVER                  INVERSION
RADII                   UFF
HPOINTS                 302
HEAVYPOINTS             302
PRINTLEVEL              0
$END

$SOLVENT
DIELECTRIC              78.390000 ! water
$END
--------------------------------------------------------------
 ----------------------------------------------------------------
             Standard Nuclear Orientation (Angstroms)
    I     Atom           X                Y                Z
 ----------------------------------------------------------------
    1      C      -1.1896940135     1.1156425564     2.6488949250
    2      C       0.0313059865     0.1046425564     2.9508949250
    3      O       0.6143059865    -0.4423574436     1.9718949250
    4      O       0.3663059865    -0.2133574436     4.1728949250
    5      H      -1.2216940135     1.8586425564     3.4378949250
    6      H      -2.1036940135     0.5296425564     2.7548949250
    7      H      -1.2404940135     1.6062175564     1.6656549250
    8      C      -1.5286940135    -0.6373574436    -3.4441050750
    9      C       0.4193059865     0.0336425564    -2.0741050750
   10      N      -0.0216940135    -0.6603574436    -1.0431050750
   11      N      -0.2456940135     0.0326425564    -3.2181050750
   12      N       1.5503059865     0.7016425564    -1.9741050750
   13      H      -0.8366940135    -1.2383574436    -1.1471050750
   14      H       0.4533059865    -0.6263574436    -0.1451050750
   15      H       0.1633059865     0.5266425564    -3.9981050750
   16      H       1.9213059865     1.1916425564    -2.7731050750
   17      H       2.0873059865     0.6466425564    -1.1241050750
   18      H      -1.9076940135    -1.1163574436    -2.5411050750
   19      H      -1.4076940135    -1.4153574436    -4.2011050750
   20      H      -2.2935740135     0.0750975564    -3.7866850750
 ----------------------------------------------------------------
 Nuclear Repulsion Energy =         432.23785072 hartrees
 There are       36 alpha and       36 beta electrons
 Requested basis set is def2-TZVPD
 There are 174 shells and 438 basis functions

 Total QAlloc Memory Limit  96000 MB
 Mega-Array Size      1956 MB
 MEM_STATIC part      2000 MB
 Discretize the solute cavity surface with Lebedev spheres
	Using 302 Lebedev grid points for each H atom
	Using 302 Lebedev grid points for other atoms
	Atomic van der Waals radii will be scaled by 1.20
 Remove points where switching function is < 1.0e-08
 Keep 2485 surface tesserae and discard 3555 interior tesserae
 Molecular Surface Area = 251.812 Angst**2
 A cutoff of  1.0D-14 yielded  13100 shell pairs
 There are     82496 function pairs (    103127 Cartesian)
 Smallest overlap matrix eigenvalue = 1.17E-05

 Scale SEOQF with 1.000000e-01/1.000000e-01/1.000000e-01

 Standard Electronic Orientation quadrupole field applied
 Nucleus-field energy     =    -0.0000000547 hartrees

 -----------------------------------------------------------------------
  General SCF calculation program by
  Eric Jon Sundstrom, Paul Horn, Yuezhi Mao, Dmitri Zuev, Alec White,
  David Stuck, Shaama M.S., Shane Yost, Joonho Lee, David Small,
  Daniel Levine, Susi Lehtola, Hugh Burton, Evgeny Epifanovsky
 -----------------------------------------------------------------------
================================================================
                 ALMO-EDA with the EDA2 driver                  
================================================================
 The second-generation ALMO-EDA (for DFT):                      
 P. R. Horn, Y. Mao and M. Head-Gordon, PCCP, 18, 23067 (2016)  
 Decomposition of the frozen energy:                            
 P. R. Horn, Y. Mao and M. Head-Gordon, JCP, 144, 114107 (2016) 
 FERF model for polarization:                                   
 P. R. Horn and M. Head-Gordon, JCP, 143, 114111 (2015)         
Using eda2 option set 1
Option set summary: Frozen orbital wavefunction, initial wavefunction decomposition, and nDQ polarization.
--------------------------------
Printing EDA Options
--------------------------------
eda_child_super_basis      0
fragmo_guess_mode          0
child_mp                   1
child_mp_orders            232
cls_elec                   1
cls_disp                   0
scfmi_mode                 1
scfmi_occs                 0
scfmi_virts                0
frz_relax                  0
frz_relax_method           0
dc_pen_start               0
dc_pen_conv                0
dc_pen_increment           0
dc_pen_steps               0
dc_pen_thresh_factor       0
dc_pen_pre_newton_thresh   0
frz_ortho_decomp           1
frz_ortho_decomp_conv      6
frgm_method                2
scfmi_freeze_ss            0
separate_rehyb             0
plot_diff_den              0
eda_nocv                   0
eda_vct_relax              1
disp_free_x                0
disp_free_c                0
eda_bsse                   0
eda_pct_a                  0
eda_covp                   0
--------------------------------
Attempting to make child job directory: /tmp/qchem40948//Frg1/
Attempting to make child job directory: /tmp/qchem40948//Frg2/
Creating input file /tmp/qchem40948/Frg1.input
using default PutDataFrgm: nothing
calling putenv with: QCSCRATCH=/tmp/qchem40948/ 
calling putenv with: QCLOCALSCR=/tmp/qchem40948/ 
Spawning Job For Fragment 0
                  Welcome to Q-Chem
     A Quantum Leap Into The Future Of Chemistry


 Q-Chem 5.2, Q-Chem, Inc., Pleasanton, CA (2019)

 License issued to: National Energy Research Scientific Computing Center

 Yihan Shao,  Zhengting Gan,  E. Epifanovsky,  A. T. B. Gilbert,  M. Wormit,  
 J. Kussmann,  A. W. Lange,  A. Behn,  Jia Deng,  Xintian Feng,  D. Ghosh,  
 M. Goldey,  P. R. Horn,  L. D. Jacobson,  I. Kaliman,  T. Kus,  A. Landau,  
 Jie Liu,  E. I. Proynov,  R. M. Richard,  R. P. Steele,  E. J. Sundstrom,  
 H. L. Woodcock III,  P. M. Zimmerman,  D. Zuev,  B. Albrecht,  E. Alguire,  
 S. A. Baeppler,  D. Barton,  Z. Benda,  Y. A. Bernard,  E. J. Berquist,  
 K. B. Bravaya,  H. Burton,  D. Casanova,  Chun-Min Chang,  Yunqing Chen,  
 A. Chien,  K. D. Closser,  M. P. Coons,  S. Coriani,  S. Dasgupta,  
 A. L. Dempwolff,  M. Diedenhofen,  Hainam Do,  R. G. Edgar,  Po-Tung Fang,  
 S. Faraji,  S. Fatehi,  Qingguo Feng,  K. D. Fenk,  J. Fosso-Tande,  
 J. Gayvert,  Qinghui Ge,  A. Ghysels,  G. Gidofalvi,  J. Gomes,  
 J. Gonthier,  A. Gunina,  D. Hait,  M. W. D. Hanson-Heine,  
 P. H. P. Harbach,  A. W. Hauser,  M. F. Herbst,  J. E. Herr,  
 E. G. Hohenstein,  Z. C. Holden,  Kerwin Hui,  B. C. Huynh,  T.-C. Jagau,  
 Hyunjun Ji,  B. Kaduk,  K. Khistyaev,  Jaehoon Kim,  P. Klunzinger,  K. Koh,  
 D. Kosenkov,  L. Koulias,  T. Kowalczyk,  C. M. Krauter,  A. Kunitsa,  
 Ka Un Lao,  A. Laurent,  K. V. Lawler,  Joonho Lee,  D. Lefrancois,  
 S. Lehtola,  D. S. Levine,  Yi-Pei Li,  You-Sheng Lin,  Fenglai Liu,  
 E. Livshits,  A. Luenser,  P. Manohar,  E. Mansoor,  S. F. Manzer,  
 Shan-Ping Mao,  Yuezhi Mao,  N. Mardirossian,  A. V. Marenich,  
 T. Markovich,  L. A. Martinez-Martinez,  S. A. Maurer,  N. J. Mayhall,  
 S. C. McKenzie,  J.-M. Mewes,  P. Morgante,  A. F. Morrison,  
 J. W. Mullinax,  K. Nanda,  T. S. Nguyen-Beck,  R. Olivares-Amaya,  
 J. A. Parkhill,  Zheng Pei,  T. M. Perrine,  F. Plasser,  P. Pokhilko,  
 S. Prager,  A. Prociuk,  E. Ramos,  D. R. Rehn,  F. Rob,  M. Scheurer,  
 M. Schneider,  N. Sergueev,  S. M. Sharada,  S. Sharma,  D. W. Small,  
 T. Stauch,  T. Stein,  Yu-Chuan Su,  A. J. W. Thom,  A. Tkatchenko,  
 T. Tsuchimochi,  N. M. Tubman,  L. Vogt,  M. L. Vidal,  O. Vydrov,  
 M. A. Watson,  J. Wenzel,  M. de Wergifosse,  T. A. Wesolowski,  A. White,  
 J. Witte,  A. Yamada,  Jun Yang,  K. Yao,  S. Yeganeh,  S. R. Yost,  
 Zhi-Qiang You,  A. Zech,  Igor Ying Zhang,  Xing Zhang,  Yan Zhao,  
 Ying Zhu,  B. R. Brooks,  G. K. L. Chan,  C. J. Cramer,  M. S. Gordon,  
 W. J. Hehre,  A. Klamt,  M. W. Schmidt,  C. D. Sherrill,  D. G. Truhlar,  
 A. Aspuru-Guzik,  R. Baer,  A. T. Bell,  N. A. Besley,  Jeng-Da Chai,  
 A. E. DePrince, III,  R. A. DiStasio Jr.,  A. Dreuw,  B. D. Dunietz,  
 T. R. Furlani,  Chao-Ping Hsu,  Yousung Jung,  Jing Kong,  D. S. Lambrecht,  
 WanZhen Liang,  C. Ochsenfeld,  V. A. Rassolov,  L. V. Slipchenko,  
 J. E. Subotnik,  T. Van Voorhis,  J. M. Herbert,  A. I. Krylov,  
 P. M. W. Gill,  M. Head-Gordon

 Contributors to earlier versions of Q-Chem not listed above: 
 R. D. Adamson,  B. Austin,  J. Baker,  G. J. O. Beran,  K. Brandhorst,  
 S. T. Brown,  E. F. C. Byrd,  A. K. Chakraborty,  C.-L. Cheng,  
 Siu Hung Chien,  D. M. Chipman,  D. L. Crittenden,  H. Dachsel,  
 R. J. Doerksen,  A. D. Dutoi,  L. Fusti-Molnar,  W. A. Goddard III,  
 A. Golubeva-Zadorozhnaya,  S. R. Gwaltney,  G. Hawkins,  A. Heyden,  
 S. Hirata,  G. Kedziora,  F. J. Keil,  C. Kelley,  Jihan Kim,  R. A. King,  
 R. Z. Khaliullin,  P. P. Korambath,  W. Kurlancheek,  A. M. Lee,  M. S. Lee,  
 S. V. Levchenko,  Ching Yeh Lin,  D. Liotard,  R. C. Lochan,  I. Lotan,  
 P. E. Maslen,  N. Nair,  D. P. O'Neill,  D. Neuhauser,  E. Neuscamman,  
 C. M. Oana,  R. Olson,  B. Peters,  R. Peverati,  P. A. Pieniazek,  
 Y. M. Rhee,  J. Ritchie,  M. A. Rohrdanz,  E. Rosta,  N. J. Russ,  
 H. F. Schaefer III,  N. E. Schultz,  N. Shenvi,  A. C. Simmonett,  A. Sodt,  
 D. Stuck,  K. S. Thanthiriwatte,  V. Vanovschi,  Tao Wang,  A. Warshel,  
 C. F. Williams,  Q. Wu,  X. Xu,  W. Zhang

 Please cite Q-Chem as follows:
 Y. Shao et al., Mol. Phys. 113, 184-215 (2015)
 DOI: 10.1080/00268976.2014.952696

 Q-Chem 5.2.0 for Intel X86 EM64T Linux

 Parts of Q-Chem use Armadillo 8.300.2 (Tropical Shenanigans).
 http://arma.sourceforge.net/

 Q-Chem begins on Sun Sep 26 03:16:31 2021  

Host: cori01
0

     Scratch files written to /tmp/qchem40948//Frg1//
 May1019 |scratch|qcdevops|jenkins|workspace|build_RNUM -1
Processing $rem in /global/common/cori/software/qchem/5.2/config/preferences:
	 MEM_TOTAL  96000 
NAlpha2: 32
NElect   32
Mult     1
Symmetry turned off for PCM/SM12/SMD calculation

Checking the input file for inconsistencies... 	...done.

--------------------------------------------------------------
User input:
--------------------------------------------------------------
$molecule
-1 1
 6	-1.1896940135	1.1156425564	2.6488949250
 6	0.0313059865	0.1046425564	2.9508949250
 8	0.6143059865	-0.4423574436	1.9718949250
 8	0.3663059865	-0.2133574436	4.1728949250
 1	-1.2216940135	1.8586425564	3.4378949250
 1	-2.1036940135	0.5296425564	2.7548949250
 1	-1.2404940135	1.6062175564	1.6656549250
$end
$rem
EDA2		1
METHOD		WB97X-V
BASIS		DEF2-TZVPD
XC_GRID		000099000590
NL_GRID		1
UNRESTRICTED		FALSE
MAX_SCF_CYCLES		200
SYMMETRY		FALSE
SYM_IGNORE		TRUE
BASIS_LIN_DEP_THRESH		6
THRESH		14
SCF_CONVERGENCE		8
SCF_PRINT_FRGM		TRUE
SOLVENT_METHOD		PCM
!required keywords
JOBTYPE		SP
SYM_IGNORE		TRUE
SUBSYSTEM		TRUE
GEN_SCFMAN		TRUE
CHILD_INSTRUCTION		2
SYM_IGNORE		TRUE
SCFMI		0
RI_K 0		
PARI_K 0		
MIN_PARI_K 0		
IARI_K 0		
OCC_RI_K 0		
PURECART		1111
MEM_STATIC		2000
MEM_TOTAL		96000
GUI		0
CHILD_MP		1
CHILD_MP_ORDERS		232
FRZ_RELAX		0
FRZ_RELAX_METHOD		0
EDA_CLS_ELEC		1
EDA_CLS_DISP		0
FRZ_ORTHO_DECOMP		1
EDA2		FALSE
FRGM_METHOD		FALSE
CIS_N_ROOTS  0
LOCAL_CIS    0
CIS_RLX_DNS  1
$end
$pcm
THEORY                  CPCM
METHOD                  SWIG
SOLVER                  INVERSION
RADII                   UFF
HPOINTS                 302
HEAVYPOINTS             302
PRINTLEVEL              0
$end
$solvent
DIELECTRIC              78.390000 ! water
$end
--------------------------------------------------------------
 ----------------------------------------------------------------
             Standard Nuclear Orientation (Angstroms)
    I     Atom           X                Y                Z
 ----------------------------------------------------------------
    1      C      -1.1896940135     1.1156425564     2.6488949250
    2      C       0.0313059865     0.1046425564     2.9508949250
    3      O       0.6143059865    -0.4423574436     1.9718949250
    4      O       0.3663059865    -0.2133574436     4.1728949250
    5      H      -1.2216940135     1.8586425564     3.4378949250
    6      H      -2.1036940135     0.5296425564     2.7548949250
    7      H      -1.2404940135     1.6062175564     1.6656549250
 ----------------------------------------------------------------
 Nuclear Repulsion Energy =         109.06508108 hartrees
 There are       16 alpha and       16 beta electrons
 Requested basis set is def2-TZVPD
 There are 69 shells and 181 basis functions

 Total QAlloc Memory Limit  96000 MB
 Mega-Array Size      1956 MB
 MEM_STATIC part      2000 MB
 Discretize the solute cavity surface with Lebedev spheres
	Using 302 Lebedev grid points for each H atom
	Using 302 Lebedev grid points for other atoms
	Atomic van der Waals radii will be scaled by 1.20
 Remove points where switching function is < 1.0e-08
 Keep 1030 surface tesserae and discard 1084 interior tesserae
 Molecular Surface Area = 122.530 Angst**2

                       Distance Matrix (Angstroms)
             C (  1)   C (  2)   O (  3)   O (  4)   H (  5)   H (  6)
   C (  2)  1.613743
   O (  3)  2.477924  1.263938
   O (  4)  2.551461  1.306382  2.226734
   H (  5)  1.084248  2.209908  3.288564  2.712039
   H (  6)  1.090884  2.185696  2.990886  2.943412  1.735124
   H (  7)  1.100002  2.350329  2.780418  3.489830  1.790225  1.758002

 
 A cutoff of  1.0D-14 yielded   2390 shell pairs
 There are     16694 function pairs (     21490 Cartesian)
 Smallest overlap matrix eigenvalue = 2.13E-05

 Scale SEOQF with 1.000000e-01/1.000000e-01/1.000000e-01

 Standard Electronic Orientation quadrupole field applied
 Nucleus-field energy     =    -0.0000000289 hartrees
 Guess from superposition of atomic densities
 Warning:  Energy on first SCF cycle will be non-variational
 SAD guess density has 30.625312 electrons

 -----------------------------------------------------------------------
  General SCF calculation program by
  Eric Jon Sundstrom, Paul Horn, Yuezhi Mao, Dmitri Zuev, Alec White,
  David Stuck, Shaama M.S., Shane Yost, Joonho Lee, David Small,
  Daniel Levine, Susi Lehtola, Hugh Burton, Evgeny Epifanovsky
 -----------------------------------------------------------------------
 Exchange:     0.1670 Hartree-Fock + 1.0000 wB97X-V + LR-HF
 Correlation:  1.0000 wB97X-V
 Using Euler-Maclaurin-Lebedev (99,590) quadrature formula
 Nonlocal Correlation:  VV10 with C = 0.0100 and b = 6.00 and scale = 1.00000
 Grid used for NLC:  SG-1 standard quadrature
Energy prior to optimization (guess energy) = -227.720367372711
Begin Timing: Total SCF Calculation
begin iterations for algorithm: DIIS         
the SCF tolerance is set to 1.00e-08
    1    -227.7203673727      1.69e-02     00000 
    2    -225.4098477561      2.62e-02     00000 
    3    -228.5655239247      4.22e-03     00000 
    4    -228.6243966024      1.64e-03     00000 
    5    -228.6321872400      5.37e-04     00000 
    6    -228.6329448519      2.54e-04     00000 
    7    -228.6331474172      5.00e-05     00000 
    8    -228.6331592375      1.62e-05     00000 
    9    -228.6331608243      4.07e-06     00000 
   10    -228.6331609518      1.22e-06     00000 
   11    -228.6331609662      2.28e-07     00000 
   12    -228.6331609669      5.76e-08     00000 
   13    -228.6331609670      1.71e-08     00000 
   14    -228.6331609670      3.56e-09     00000 Convergence criterion met
Timing for Total SCF: 299.00s (wall), 588.16s (cpu)

************** Final PCM Free Energy Summary **************
 G_electrostatic  =      -0.10266318 hartree =     -64.42211860 kcal/mol
 G_cavitation     =       0.00000000 hartree =       0.00000000 kcal/mol
 G_dispersion     =       0.00000000 hartree =       0.00000000 kcal/mol
 G_repulsion      =       0.00000000 hartree =       0.00000000 kcal/mol
 --------------------------------------------------
 Non-electrostatic Free Energy =       0.00000000 hartree =       0.00000000 kcal/mol
 Total                         =      -0.10266318 hartree =     -64.42211860 kcal/mol
 --------------------------------------------------
 SCF Energy (H0 + V/2)                       =    -228.63316097 
 Solute Internal Energy (H0)                 =    -228.53049779 
 Total Free Energy (H0 + V/2 + non-elec)     =    -228.63316097 hartree
                                             = -143469.47389144 kcal/mol
***********************************************************

E_pcm = -0.1026631813
Multipole orders to be included
        2
        3
computing dipole RHS
computing quadrupole RHS
total number of RHS in solve_reponses: 8
RHS batch sizes
        8
Beginning Block Conjugate Gradient Iterations. Batch Number: 0
computing hessian-vector products by finite difference
              1      7.50e-01     00000 Conjugate Gradient Iteration
computing hessian-vector products by finite difference
              2      2.66e-01     00000 Conjugate Gradient Iteration
computing hessian-vector products by finite difference
              3      7.33e-02     00000 Conjugate Gradient Iteration
computing hessian-vector products by finite difference
              4      2.05e-02     00000 Conjugate Gradient Iteration
computing hessian-vector products by finite difference
              5      3.66e-03     00000 Conjugate Gradient Iteration
computing hessian-vector products by finite difference
              6      8.90e-04     00000 Conjugate Gradient Iteration
computing hessian-vector products by finite difference
              7      1.53e-04     00000 Conjugate Gradient Iteration
computing hessian-vector products by finite difference
              8      1.95e-05     00000 Conjugate Gradient Iteration
computing hessian-vector products by finite difference
              9      3.08e-06     00000 Conjugate Gradient Iteration
computing hessian-vector products by finite difference
             10      4.20e-07     00000 Conjugate Gradient Iteration
computing hessian-vector products by finite difference
             11      8.85e-08     00000 Conjugate Gradient Iteration
computing hessian-vector products by finite difference
             12      1.16e-08     00000 Conjugate Gradient Iteration
computing hessian-vector products by finite difference
             13      1.52e-09     00000 CG Converged
batch 0 complete
Done Calculating Responses
TESTING ORTHOGONALIZATION OF MULTIPOLE BASIS
Multipole virts passed orthogonality test
Virts Per Order
        48
        80
 
 --------------------------------------------------------------
 
                    Orbital Energies (a.u.)
 --------------------------------------------------------------
 
 Alpha MOs
 -- Occupied --
-19.1307 -19.1278 -10.3447 -10.2519  -1.1189  -1.0180  -0.8236  -0.5962
 -0.5179  -0.5155  -0.5093  -0.4658  -0.4431  -0.3295  -0.3277  -0.3092
 -- Virtual --
  0.0629   0.0940   0.0958   0.1065   0.1292   0.1391   0.1421   0.1467
  0.1607   0.1839   0.1973   0.2158   0.2271   0.2335   0.2622   0.2652
  0.2957   0.3044   0.3327   0.3439   0.3540   0.3646   0.3661   0.3751
  0.3756   0.3900   0.4204   0.4242   0.4330   0.4521   0.4693   0.4811
  0.4867   0.4937   0.5034   0.5191   0.5461   0.5587   0.5788   0.6048
  0.6302   0.6345   0.6376   0.6532   0.6613   0.6666   0.6804   0.7099
  0.7185   0.7338   0.7744   0.7888   0.8104   0.8214   0.8269   0.8465
  0.8616   0.9867   0.9886   0.9974   1.0050   1.0352   1.0615   1.0935
  1.1415   1.2137   1.2256   1.2530   1.2889   1.2993   1.3342   1.3635
  1.4233   1.5174   1.5755   1.7458   1.8030   1.8595   1.8712   1.9038
  1.9229   1.9388   1.9461   1.9592   2.0295   2.0456   2.1157   2.1488
  2.1773   2.2196   2.2768   2.3407   2.3996   2.4304   2.4618   2.4711
  2.5451   2.5561   2.6202   2.6792   2.7056   2.8020   2.8379   2.9000
  2.9391   3.0135   3.0549   3.1251   3.1862   3.1952   3.2706   3.2821
  3.3369   3.3516   3.3752   3.4014   3.4303   3.4804   3.5550   3.5579
  3.5893   3.6351   3.6561   3.6854   3.6930   3.7495   3.8939   3.9604
  4.0208   4.1909   4.2103   4.5148   4.5592   4.6218   4.7922   4.8634
  4.9589   5.3308   5.3528   5.3570   5.3665   5.4477   5.6335   5.7293
  5.7371   5.9564   6.1292   6.2535   6.3093   6.5155   6.6184   6.7150
  6.7247   6.7350   6.8001   6.9670   7.0041   7.1668   7.2963   7.3245
  7.3761  22.5258  23.4109  44.2075  44.2808
 --------------------------------------------------------------
 
          Ground-State Mulliken Net Atomic Charges

     Atom                 Charge (a.u.)
  ----------------------------------------
      1 C                    -0.456601
      2 C                     0.309748
      3 O                    -0.648602
      4 O                    -0.694624
      5 H                     0.165962
      6 H                     0.130860
      7 H                     0.193258
  ----------------------------------------
  Sum of atomic charges =    -1.000000

 -----------------------------------------------------------------
                    Cartesian Multipole Moments
 -----------------------------------------------------------------
    Charge (ESU x 10^10)
                -4.8032
    Dipole Moment (Debye)
         X      -3.6695      Y       2.6655      Z     -15.3382
       Tot      15.9947
    Quadrupole Moments (Debye-Ang)
        XX     -28.0358     XY       1.6243     YY     -27.0496
        XZ     -10.0928     YZ       7.0680     ZZ     -85.0412
    Octopole Moments (Debye-Ang^2)
       XXX       7.1301    XXY      -4.4438    XYY       2.0808
       YYY     -14.3857    XXZ     -81.8777    XYZ       4.5316
       YYZ     -79.0862    XZZ     -28.7839    YZZ      16.6617
       ZZZ    -478.1085
    Hexadecapole Moments (Debye-Ang^3)
      XXXX    -132.7329   XXXY      45.1573   XXYY     -42.0088
      XYYY      42.4011   YYYY    -110.5063   XXXZ      15.3956
      XXYZ     -12.0066   XYYZ       4.4894   YYYZ     -37.2765
      XXZZ    -287.5617   XYZZ      26.1802   YYZZ    -272.7661
      XZZZ     -90.3875   YZZZ      34.0226   ZZZZ   -2571.7259
 -----------------------------------------------------------------
Archival summary:
1\1\nid00551\SP\ProcedureUnspecified\BasisUnspecified\223(1-,1)\meili\SunSep2604:40:552021SunSep2604:40:552021\0\\#,ProcedureUnspecified,BasisUnspecified,\\-1,1\C\O,1,1.26394\O,1,1.30638,2,120.06\C,1,1.61374,2,118.371,3,-175.9,0\H,4,1.08425,1,108.389,2,-150.113,0\H,4,1.09088,1,106.213,2,96.5634,0\H,4,1.1,1,118.791,2,-23.5503,0\\\@

 Total job time:  5067.04s(wall), 9878.65s(cpu) 
 Sun Sep 26 04:40:58 2021

        *************************************************************
        *                                                           *
        *  Thank you very much for using Q-Chem.  Have a nice day.  *
        *                                                           *
        *************************************************************


Done Job For Fragment 0
calling putenv with: QCSCRATCH=/global/cscratch1/sd/meili 
calling putenv with: QCLOCALSCR=/tmp 
calling putenv with: QCTHREADS=32 
Creating input file /tmp/qchem40948/Frg2.input
using default PutDataFrgm: nothing
calling putenv with: QCSCRATCH=/tmp/qchem40948/ 
calling putenv with: QCLOCALSCR=/tmp/qchem40948/ 
Spawning Job For Fragment 1
                  Welcome to Q-Chem
     A Quantum Leap Into The Future Of Chemistry


 Q-Chem 5.2, Q-Chem, Inc., Pleasanton, CA (2019)

 License issued to: National Energy Research Scientific Computing Center

 Yihan Shao,  Zhengting Gan,  E. Epifanovsky,  A. T. B. Gilbert,  M. Wormit,  
 J. Kussmann,  A. W. Lange,  A. Behn,  Jia Deng,  Xintian Feng,  D. Ghosh,  
 M. Goldey,  P. R. Horn,  L. D. Jacobson,  I. Kaliman,  T. Kus,  A. Landau,  
 Jie Liu,  E. I. Proynov,  R. M. Richard,  R. P. Steele,  E. J. Sundstrom,  
 H. L. Woodcock III,  P. M. Zimmerman,  D. Zuev,  B. Albrecht,  E. Alguire,  
 S. A. Baeppler,  D. Barton,  Z. Benda,  Y. A. Bernard,  E. J. Berquist,  
 K. B. Bravaya,  H. Burton,  D. Casanova,  Chun-Min Chang,  Yunqing Chen,  
 A. Chien,  K. D. Closser,  M. P. Coons,  S. Coriani,  S. Dasgupta,  
 A. L. Dempwolff,  M. Diedenhofen,  Hainam Do,  R. G. Edgar,  Po-Tung Fang,  
 S. Faraji,  S. Fatehi,  Qingguo Feng,  K. D. Fenk,  J. Fosso-Tande,  
 J. Gayvert,  Qinghui Ge,  A. Ghysels,  G. Gidofalvi,  J. Gomes,  
 J. Gonthier,  A. Gunina,  D. Hait,  M. W. D. Hanson-Heine,  
 P. H. P. Harbach,  A. W. Hauser,  M. F. Herbst,  J. E. Herr,  
 E. G. Hohenstein,  Z. C. Holden,  Kerwin Hui,  B. C. Huynh,  T.-C. Jagau,  
 Hyunjun Ji,  B. Kaduk,  K. Khistyaev,  Jaehoon Kim,  P. Klunzinger,  K. Koh,  
 D. Kosenkov,  L. Koulias,  T. Kowalczyk,  C. M. Krauter,  A. Kunitsa,  
 Ka Un Lao,  A. Laurent,  K. V. Lawler,  Joonho Lee,  D. Lefrancois,  
 S. Lehtola,  D. S. Levine,  Yi-Pei Li,  You-Sheng Lin,  Fenglai Liu,  
 E. Livshits,  A. Luenser,  P. Manohar,  E. Mansoor,  S. F. Manzer,  
 Shan-Ping Mao,  Yuezhi Mao,  N. Mardirossian,  A. V. Marenich,  
 T. Markovich,  L. A. Martinez-Martinez,  S. A. Maurer,  N. J. Mayhall,  
 S. C. McKenzie,  J.-M. Mewes,  P. Morgante,  A. F. Morrison,  
 J. W. Mullinax,  K. Nanda,  T. S. Nguyen-Beck,  R. Olivares-Amaya,  
 J. A. Parkhill,  Zheng Pei,  T. M. Perrine,  F. Plasser,  P. Pokhilko,  
 S. Prager,  A. Prociuk,  E. Ramos,  D. R. Rehn,  F. Rob,  M. Scheurer,  
 M. Schneider,  N. Sergueev,  S. M. Sharada,  S. Sharma,  D. W. Small,  
 T. Stauch,  T. Stein,  Yu-Chuan Su,  A. J. W. Thom,  A. Tkatchenko,  
 T. Tsuchimochi,  N. M. Tubman,  L. Vogt,  M. L. Vidal,  O. Vydrov,  
 M. A. Watson,  J. Wenzel,  M. de Wergifosse,  T. A. Wesolowski,  A. White,  
 J. Witte,  A. Yamada,  Jun Yang,  K. Yao,  S. Yeganeh,  S. R. Yost,  
 Zhi-Qiang You,  A. Zech,  Igor Ying Zhang,  Xing Zhang,  Yan Zhao,  
 Ying Zhu,  B. R. Brooks,  G. K. L. Chan,  C. J. Cramer,  M. S. Gordon,  
 W. J. Hehre,  A. Klamt,  M. W. Schmidt,  C. D. Sherrill,  D. G. Truhlar,  
 A. Aspuru-Guzik,  R. Baer,  A. T. Bell,  N. A. Besley,  Jeng-Da Chai,  
 A. E. DePrince, III,  R. A. DiStasio Jr.,  A. Dreuw,  B. D. Dunietz,  
 T. R. Furlani,  Chao-Ping Hsu,  Yousung Jung,  Jing Kong,  D. S. Lambrecht,  
 WanZhen Liang,  C. Ochsenfeld,  V. A. Rassolov,  L. V. Slipchenko,  
 J. E. Subotnik,  T. Van Voorhis,  J. M. Herbert,  A. I. Krylov,  
 P. M. W. Gill,  M. Head-Gordon

 Contributors to earlier versions of Q-Chem not listed above: 
 R. D. Adamson,  B. Austin,  J. Baker,  G. J. O. Beran,  K. Brandhorst,  
 S. T. Brown,  E. F. C. Byrd,  A. K. Chakraborty,  C.-L. Cheng,  
 Siu Hung Chien,  D. M. Chipman,  D. L. Crittenden,  H. Dachsel,  
 R. J. Doerksen,  A. D. Dutoi,  L. Fusti-Molnar,  W. A. Goddard III,  
 A. Golubeva-Zadorozhnaya,  S. R. Gwaltney,  G. Hawkins,  A. Heyden,  
 S. Hirata,  G. Kedziora,  F. J. Keil,  C. Kelley,  Jihan Kim,  R. A. King,  
 R. Z. Khaliullin,  P. P. Korambath,  W. Kurlancheek,  A. M. Lee,  M. S. Lee,  
 S. V. Levchenko,  Ching Yeh Lin,  D. Liotard,  R. C. Lochan,  I. Lotan,  
 P. E. Maslen,  N. Nair,  D. P. O'Neill,  D. Neuhauser,  E. Neuscamman,  
 C. M. Oana,  R. Olson,  B. Peters,  R. Peverati,  P. A. Pieniazek,  
 Y. M. Rhee,  J. Ritchie,  M. A. Rohrdanz,  E. Rosta,  N. J. Russ,  
 H. F. Schaefer III,  N. E. Schultz,  N. Shenvi,  A. C. Simmonett,  A. Sodt,  
 D. Stuck,  K. S. Thanthiriwatte,  V. Vanovschi,  Tao Wang,  A. Warshel,  
 C. F. Williams,  Q. Wu,  X. Xu,  W. Zhang

 Please cite Q-Chem as follows:
 Y. Shao et al., Mol. Phys. 113, 184-215 (2015)
 DOI: 10.1080/00268976.2014.952696

 Q-Chem 5.2.0 for Intel X86 EM64T Linux

 Parts of Q-Chem use Armadillo 8.300.2 (Tropical Shenanigans).
 http://arma.sourceforge.net/

 Q-Chem begins on Sun Sep 26 04:41:01 2021  

Host: cori01
0

     Scratch files written to /tmp/qchem40948//Frg2//
 May1019 |scratch|qcdevops|jenkins|workspace|build_RNUM -1
Processing $rem in /global/common/cori/software/qchem/5.2/config/preferences:
	 MEM_TOTAL  96000 
NAlpha2: 40
NElect   40
Mult     1
Symmetry turned off for PCM/SM12/SMD calculation

Checking the input file for inconsistencies... 	...done.

--------------------------------------------------------------
User input:
--------------------------------------------------------------
$molecule
1 1
 6	-1.5286940135	-0.6373574436	-3.4441050750
 6	0.4193059865	0.0336425564	-2.0741050750
 7	-0.0216940135	-0.6603574436	-1.0431050750
 7	-0.2456940135	0.0326425564	-3.2181050750
 7	1.5503059865	0.7016425564	-1.9741050750
 1	-0.8366940135	-1.2383574436	-1.1471050750
 1	0.4533059865	-0.6263574436	-0.1451050750
 1	0.1633059865	0.5266425564	-3.9981050750
 1	1.9213059865	1.1916425564	-2.7731050750
 1	2.0873059865	0.6466425564	-1.1241050750
 1	-1.9076940135	-1.1163574436	-2.5411050750
 1	-1.4076940135	-1.4153574436	-4.2011050750
 1	-2.2935740135	0.0750975564	-3.7866850750
$end
$rem
EDA2		1
METHOD		WB97X-V
BASIS		DEF2-TZVPD
XC_GRID		000099000590
NL_GRID		1
UNRESTRICTED		FALSE
MAX_SCF_CYCLES		200
SYMMETRY		FALSE
SYM_IGNORE		TRUE
BASIS_LIN_DEP_THRESH		6
THRESH		14
SCF_CONVERGENCE		8
SCF_PRINT_FRGM		TRUE
SOLVENT_METHOD		PCM
!required keywords
JOBTYPE		SP
SYM_IGNORE		TRUE
SUBSYSTEM		TRUE
GEN_SCFMAN		TRUE
CHILD_INSTRUCTION		2
SYM_IGNORE		TRUE
SCFMI		0
RI_K 0		
PARI_K 0		
MIN_PARI_K 0		
IARI_K 0		
OCC_RI_K 0		
PURECART		1111
MEM_STATIC		2000
MEM_TOTAL		96000
GUI		0
CHILD_MP		1
CHILD_MP_ORDERS		232
FRZ_RELAX		0
FRZ_RELAX_METHOD		0
EDA_CLS_ELEC		1
EDA_CLS_DISP		0
FRZ_ORTHO_DECOMP		1
EDA2		FALSE
FRGM_METHOD		FALSE
CIS_N_ROOTS  0
LOCAL_CIS    0
CIS_RLX_DNS  1
$end
$pcm
THEORY                  CPCM
METHOD                  SWIG
SOLVER                  INVERSION
RADII                   UFF
HPOINTS                 302
HEAVYPOINTS             302
PRINTLEVEL              0
$end
$solvent
DIELECTRIC              78.390000 ! water
$end
--------------------------------------------------------------
 ----------------------------------------------------------------
             Standard Nuclear Orientation (Angstroms)
    I     Atom           X                Y                Z
 ----------------------------------------------------------------
    1      C      -1.5286940135    -0.6373574436    -3.4441050750
    2      C       0.4193059865     0.0336425564    -2.0741050750
    3      N      -0.0216940135    -0.6603574436    -1.0431050750
    4      N      -0.2456940135     0.0326425564    -3.2181050750
    5      N       1.5503059865     0.7016425564    -1.9741050750
    6      H      -0.8366940135    -1.2383574436    -1.1471050750
    7      H       0.4533059865    -0.6263574436    -0.1451050750
    8      H       0.1633059865     0.5266425564    -3.9981050750
    9      H       1.9213059865     1.1916425564    -2.7731050750
   10      H       2.0873059865     0.6466425564    -1.1241050750
   11      H      -1.9076940135    -1.1163574436    -2.5411050750
   12      H      -1.4076940135    -1.4153574436    -4.2011050750
   13      H      -2.2935740135     0.0750975564    -3.7866850750
 ----------------------------------------------------------------
 Nuclear Repulsion Energy =         194.41950402 hartrees
 There are       20 alpha and       20 beta electrons
 Requested basis set is def2-TZVPD
 There are 105 shells and 257 basis functions

 Total QAlloc Memory Limit  96000 MB
 Mega-Array Size      1956 MB
 MEM_STATIC part      2000 MB
 Discretize the solute cavity surface with Lebedev spheres
	Using 302 Lebedev grid points for each H atom
	Using 302 Lebedev grid points for other atoms
	Atomic van der Waals radii will be scaled by 1.20
 Remove points where switching function is < 1.0e-08
 Keep 1575 surface tesserae and discard 2351 interior tesserae
 Molecular Surface Area = 151.653 Angst**2

                       Distance Matrix (Angstroms)
             C (  1)   C (  2)   N (  3)   N (  4)   N (  5)   H (  6)
   C (  2)  2.474236
   N (  3)  2.834851  1.318741
   N (  4)  1.464945  1.323239  2.293698
   N (  5)  3.665251  1.317340  2.278813  2.284888
   H (  6)  2.473110  2.013666  1.004552  2.500752  3.185168
   H (  7)  3.848616  2.039068  1.016457  3.219660  2.512416  1.744319
   H (  8)  2.127129  2.002589  3.189862  1.009810  2.459872  3.499061
   H (  9)  3.962068  2.021279  3.193439  2.497438  1.008039  4.019371
   H ( 10)  4.484029  2.015067  2.482477  3.194483  1.006923  3.479013
   H ( 11)  1.090179  2.637332  2.451313  2.130909  3.947705  1.762147
   H ( 12)  1.092233  3.156210  3.530437  2.100771  4.265089  3.111959
   H ( 13)  1.099998  3.208484  3.637247  2.125770  4.295744  3.288624
             H (  7)   H (  8)   H (  9)   H ( 10)   H ( 11)   H ( 12)
   H (  8)  4.032260
   H (  9)  3.516608  2.243527
   H ( 10)  2.291053  3.460643  1.744644
   H ( 11)  3.399299  3.018499  4.476821  4.590870
   H ( 12)  4.531774  2.506115  4.462945  5.092622  1.759261
   H ( 13)  4.615029  2.506960  4.476520  5.158305  1.766335  1.782690

 
 A cutoff of  1.0D-14 yielded   5439 shell pairs
 There are     33169 function pairs (     41503 Cartesian)
 Smallest overlap matrix eigenvalue = 1.44E-05

 Scale SEOQF with 1.000000e-01/1.000000e-01/1.000000e-01

 Standard Electronic Orientation quadrupole field applied
 Nucleus-field energy     =    -0.0000000258 hartrees
 Guess from superposition of atomic densities
 Warning:  Energy on first SCF cycle will be non-variational
 SAD guess density has 40.388232 electrons

 -----------------------------------------------------------------------
  General SCF calculation program by
  Eric Jon Sundstrom, Paul Horn, Yuezhi Mao, Dmitri Zuev, Alec White,
  David Stuck, Shaama M.S., Shane Yost, Joonho Lee, David Small,
  Daniel Levine, Susi Lehtola, Hugh Burton, Evgeny Epifanovsky
 -----------------------------------------------------------------------
 Exchange:     0.1670 Hartree-Fock + 1.0000 wB97X-V + LR-HF
 Correlation:  1.0000 wB97X-V
 Using Euler-Maclaurin-Lebedev (99,590) quadrature formula
 Nonlocal Correlation:  VV10 with C = 0.0100 and b = 6.00 and scale = 1.00000
 Grid used for NLC:  SG-1 standard quadrature
Energy prior to optimization (guess energy) = -244.723565844570
Begin Timing: Total SCF Calculation
begin iterations for algorithm: DIIS         
the SCF tolerance is set to 1.00e-08
    1    -244.7235658446      7.93e-03     00000 
    2    -244.9404082576      6.21e-03     00000 
    3    -245.1778546651      2.95e-04     00000 
    4    -245.1784465767      1.67e-04     00000 
    5    -245.1786357547      3.43e-05     00000 
    6    -245.1786444896      1.38e-05     00000 
    7    -245.1786460639      2.18e-06     00000 
    8    -245.1786461388      7.65e-07     00000 
    9    -245.1786461481      3.06e-07     00000 
   10    -245.1786461496      8.67e-08     00000 
   11    -245.1786461497      3.99e-08     00000 
   12    -245.1786461498      1.01e-08     00000 
   13    -245.1786461498      1.57e-09     00000 Convergence criterion met
Timing for Total SCF: 805.00s (wall), 1591.49s (cpu)

************** Final PCM Free Energy Summary **************
 G_electrostatic  =      -0.08159741 hartree =     -51.20314545 kcal/mol
 G_cavitation     =       0.00000000 hartree =       0.00000000 kcal/mol
 G_dispersion     =       0.00000000 hartree =       0.00000000 kcal/mol
 G_repulsion      =       0.00000000 hartree =       0.00000000 kcal/mol
 --------------------------------------------------
 Non-electrostatic Free Energy =       0.00000000 hartree =       0.00000000 kcal/mol
 Total                         =      -0.08159741 hartree =     -51.20314545 kcal/mol
 --------------------------------------------------
 SCF Energy (H0 + V/2)                       =    -245.17864615 
 Solute Internal Energy (H0)                 =    -245.09704874 
 Total Free Energy (H0 + V/2 + non-elec)     =    -245.17864615 hartree
                                             = -153851.92254594 kcal/mol
***********************************************************

E_pcm = -0.0815974066
Multipole orders to be included
        2
        3
computing dipole RHS
computing quadrupole RHS
total number of RHS in solve_reponses: 8
RHS batch sizes
        8
Beginning Block Conjugate Gradient Iterations. Batch Number: 0
computing hessian-vector products by finite difference
              1      4.52e-01     00000 Conjugate Gradient Iteration
computing hessian-vector products by finite difference
              2      1.76e-01     00000 Conjugate Gradient Iteration
computing hessian-vector products by finite difference
              3      4.70e-02     00000 Conjugate Gradient Iteration
computing hessian-vector products by finite difference
              4      1.24e-02     00000 Conjugate Gradient Iteration
computing hessian-vector products by finite difference
              5      1.85e-03     00000 Conjugate Gradient Iteration
computing hessian-vector products by finite difference
              6      2.96e-04     00000 Conjugate Gradient Iteration
computing hessian-vector products by finite difference
              7      3.95e-05     00000 Conjugate Gradient Iteration
computing hessian-vector products by finite difference
              8      5.05e-06     00000 Conjugate Gradient Iteration
computing hessian-vector products by finite difference
              9      7.21e-07     00000 Conjugate Gradient Iteration
computing hessian-vector products by finite difference
             10      1.02e-07     00000 Conjugate Gradient Iteration
computing hessian-vector products by finite difference
             11      1.36e-08     00000 Conjugate Gradient Iteration
computing hessian-vector products by finite difference
             12      1.64e-09     00000 CG Converged
batch 0 complete
Done Calculating Responses
TESTING ORTHOGONALIZATION OF MULTIPOLE BASIS
Multipole virts passed orthogonality test
Virts Per Order
           60
          100
 
 --------------------------------------------------------------
 
                    Orbital Energies (a.u.)
 --------------------------------------------------------------
 
 Alpha MOs
 -- Occupied --
-14.4830 -14.4755 -14.4742 -10.4495 -10.3320  -1.2020  -1.0833  -1.0716
 -0.8804  -0.7948  -0.7548  -0.7180  -0.6466  -0.6438  -0.6194  -0.5985
 -0.5518  -0.5353  -0.4255  -0.4015
 -- Virtual --
  0.0482   0.0755   0.0822   0.0867   0.1141   0.1168   0.1244   0.1420
  0.1568   0.1698   0.1803   0.1840   0.1903   0.2014   0.2079   0.2186
  0.2299   0.2366   0.2402   0.2534   0.2694   0.2727   0.2895   0.2932
  0.2959   0.3044   0.3102   0.3126   0.3181   0.3356   0.3405   0.3509
  0.3514   0.3556   0.3630   0.3728   0.3988   0.4075   0.4120   0.4204
  0.4282   0.4310   0.4474   0.4617   0.4641   0.4724   0.4807   0.4863
  0.5004   0.5031   0.5078   0.5104   0.5182   0.5267   0.5330   0.5387
  0.5483   0.5595   0.5751   0.5837   0.5913   0.6077   0.6213   0.6381
  0.6436   0.6640   0.6809   0.6883   0.6905   0.7062   0.7315   0.7500
  0.7806   0.7875   0.7908   0.8054   0.8173   0.8226   0.8404   0.8529
  0.8587   0.8693   0.8805   0.9116   0.9274   0.9552   0.9746   0.9826
  1.0221   1.0444   1.0679   1.0742   1.0865   1.0969   1.1114   1.1363
  1.1562   1.1622   1.2025   1.2249   1.2531   1.3201   1.3661   1.4010
  1.4142   1.4250   1.4629   1.4810   1.5385   1.5476   1.6105   1.6436
  1.6695   1.6758   1.7202   1.7635   1.7836   1.8073   1.8560   1.8757
  1.8801   1.8891   1.9162   1.9559   1.9808   1.9941   2.0042   2.0447
  2.0662   2.0888   2.1541   2.2009   2.2098   2.2173   2.2442   2.2604
  2.2766   2.3392   2.3512   2.3766   2.4242   2.4428   2.4946   2.5191
  2.5564   2.5785   2.6044   2.6225   2.6328   2.6446   2.6904   2.7059
  2.7150   2.7966   2.8171   2.8478   2.8674   2.8974   2.9095   2.9464
  3.0291   3.1146   3.1187   3.1264   3.1498   3.1694   3.2002   3.2259
  3.2568   3.2734   3.2816   3.2856   3.3380   3.3526   3.4276   3.4363
  3.4990   3.5119   3.5279   3.5420   3.5593   3.6438   3.7050   3.7340
  3.7741   3.8624   3.8878   3.9756   4.0318   4.1341   4.1592   4.2167
  4.2355   4.2814   4.3010   4.3297   4.4049   4.5132   4.5472   4.5959
  4.6443   4.7993   4.8326   4.8435   4.8972   4.9671   5.0016   5.0190
  5.0918   5.0939   5.1180   5.1608   5.1836   5.1975   5.2482   5.3377
  5.3714   5.3977   5.4155   5.4552   5.4608   5.4744   5.5601   5.6258
  5.6864   5.7459   5.7829   5.8788   6.1334   6.1693   6.3493   6.4733
 22.6269  23.6312  32.3118  32.4212  32.7992
 --------------------------------------------------------------
 
          Ground-State Mulliken Net Atomic Charges

     Atom                 Charge (a.u.)
  ----------------------------------------
      1 C                    -0.721033
      2 C                     0.620508
      3 N                    -0.223475
      4 N                    -0.096311
      5 N                    -0.260604
      6 H                     0.104649
      7 H                     0.209191
      8 H                     0.209586
      9 H                     0.201172
     10 H                     0.196504
     11 H                     0.271280
     12 H                     0.254809
     13 H                     0.233724
  ----------------------------------------
  Sum of atomic charges =     1.000000

 -----------------------------------------------------------------
                    Cartesian Multipole Moments
 -----------------------------------------------------------------
    Charge (ESU x 10^10)
                 4.8032
    Dipole Moment (Debye)
         X       1.5732      Y      -0.2285      Z     -10.4847
       Tot      10.6045
    Quadrupole Moments (Debye-Ang)
        XX     -18.4365     XY       6.6132     YY     -26.7452
        XZ       0.0985     YZ      -2.9761     ZZ       5.9791
    Octopole Moments (Debye-Ang^2)
       XXX      10.8759    XXY       9.1777    XYY       0.3711
       YYY      10.5834    XXZ      46.3897    XYZ     -15.8226
       YYZ      62.7966    XZZ      -2.5937    YZZ      16.2562
       ZZZ      80.2014
    Hexadecapole Moments (Debye-Ang^3)
      XXXX    -204.7933   XXXY     -24.2879   XXYY     -45.3533
      XYYY     -38.4586   YYYY     -93.9949   XXXZ     -61.6710
      XXYZ     -23.2611   XYYZ     -22.0793   YYYZ     -29.1946
      XXZZ    -171.5383   XYZZ      29.2235   YYZZ    -187.7035
      XZZZ     -40.3768   YZZZ     -75.1590   ZZZZ    -700.6341
 -----------------------------------------------------------------
Archival summary:
1\1\nid00551\SP\ProcedureUnspecified\BasisUnspecified\328(1+,1)\meili\SunSep2608:31:442021SunSep2608:31:442021\0\\#,ProcedureUnspecified,BasisUnspecified,\\1,1\C\N,1,1.31734\H,2,1.00692,1,119.621\H,2,1.00804,1,120.152,3,174.046,0\N,1,1.31874,2,119.644,3,2.46691,0\H,5,1.00455,1,119.549,2,-174.232,0\H,5,1.01646,1,121.119,2,5.29984,0\N,1,1.32324,2,119.833,3,-175.615,0\H,8,1.00981,1,117.638,2,2.19475,0\C,8,1.46495,1,125.02,2,-178.172,0\H,10,1.09018,8,112.187,1,2.16427,0\H,10,1.09223,8,109.614,1,-117.1,0\H,10,1.1,8,111.15,1,122.569,0\\\@

 Total job time:  13847.04s(wall), 27347.94s(cpu) 
 Sun Sep 26 08:31:47 2021

        *************************************************************
        *                                                           *
        *  Thank you very much for using Q-Chem.  Have a nice day.  *
        *                                                           *
        *************************************************************


Done Job For Fragment 1
calling putenv with: QCSCRATCH=/global/cscratch1/sd/meili 
calling putenv with: QCLOCALSCR=/tmp 
calling putenv with: QCTHREADS=32 
Doing General SCFMI
 Exchange:     0.1670 Hartree-Fock + 1.0000 wB97X-V + LR-HF
 Correlation:  1.0000 wB97X-V
 Using Euler-Maclaurin-Lebedev (99,590) quadrature formula
 Nonlocal Correlation:  VV10 with C = 0.0100 and b = 6.00 and scale = 1.00000
 Grid used for NLC:  SG-1 standard quadrature
performing fock build before subrot guess so that all methods have access
Printing subrot_rss_gen Method Specification:
Occupied Subspace Method is 0
Virtual Subspace Method is 0
Energy of the unrelaxed supersystem initial determinant -473.743985921423
performing fock build before subrot guess so that all methods have access
Printing subrot_rss_gen Method Specification:
Occupied Subspace Method is 0
Virtual Subspace Method is 0
Energy of the unrelaxed supersystem initial determinant w/ solvent -473.821589390139
write pseudocanon occs and virts to disk
write pseudocanon orbital energies to disk
Tolerance of ortho_decomp_scf: 1.00e-06
GDM subspace size: 20
Beginning the Orthogonal Decomposition of the Initial Supersystem Wavefunction
    1    -473.6018537736      5.54e-02     ortho_decomp Preconditoned Steepest Descent
    2    -473.6067517025      1.42e-03     ortho_decomp BFGS Step
    3    -473.6067686397      1.10e-04     ortho_decomp BFGS Step
    4    -473.6067686697      4.46e-06     ortho_decomp BFGS Step
    5    -473.6067686698      1.30e-07     ortho_decomp 00000 Convergence criterion met
 Hartree-Fock
 Hartree-Fock
 Hartree-Fock
Doing General SCFMI
 Exchange:     0.1670 Hartree-Fock + 1.0000 wB97X-V + LR-HF
 Correlation:  1.0000 wB97X-V
 Using Euler-Maclaurin-Lebedev (99,590) quadrature formula
 Nonlocal Correlation:  VV10 with C = 0.0100 and b = 6.00 and scale = 1.00000
 Grid used for NLC:  SG-1 standard quadrature
performing fock build at end of subrot_r(subrot) constructor so that all methods have access
<S^2> of initial wavefunction before polarization iterations 0.0000000000
Beginning iterations for the determination of the polarized wavefunction
Energy prior to optimization (guess energy) = -473.821589390139
Begin Timing: Total SCF Calculation
begin iterations for algorithm: DIIS         
the SCF tolerance is set to 1.00e-08
    1    -473.8215893901      1.54e-04     00000 
    2    -473.8229790701      5.51e-05     00000 
    3    -473.8231090036      3.57e-05     00000 
    4    -473.8231461893      1.18e-05     00000 
    5    -473.8231507964      5.64e-06     00000 
    6    -473.8231518730      2.44e-06     00000 
    7    -473.8231521110      7.97e-07     00000 
    8    -473.8231521436      2.42e-07     00000 
    9    -473.8231521472      7.37e-08     00000 
   10    -473.8231521474      2.80e-08     00000 
   11    -473.8231521475      9.65e-09     00000 Convergence criterion met
write pseudocanon occs and virts to disk
write pseudocanon orbital energies to disk
Timing for Total SCF: 2494.00s (wall), 4953.86s (cpu)
<S^2> of polarized wavefunction after polarization iterations 0.0000000000
relaxing scfmi constraint to allow all rotations in the entire AO span
Doing General SCFMI
 Exchange:     0.1670 Hartree-Fock + 1.0000 wB97X-V + LR-HF
 Correlation:  1.0000 wB97X-V
 Using Euler-Maclaurin-Lebedev (99,590) quadrature formula
 Nonlocal Correlation:  VV10 with C = 0.0100 and b = 6.00 and scale = 1.00000
 Grid used for NLC:  SG-1 standard quadrature
performing fock build at end of subrot_r(subrot) constructor so that all methods have access
<S^2> of polarized wavefunction before ct-allowed iterations 0.0000000000
Beginning iterations for the determination of the CT-Allowed wavefunction
Energy prior to optimization (guess energy) = -473.823152147466
Begin Timing: Total SCF Calculation
begin iterations for algorithm: DIIS         
the SCF tolerance is set to 1.00e-08
    1    -473.8231521475      1.29e-04     00000 
    2    -473.8251548619      2.04e-05     00000 
    3    -473.8252455318      9.50e-06     00000 
    4    -473.8252519836      5.64e-06     00000 
    5    -473.8252547745      1.28e-06     00000 
    6    -473.8252549406      5.14e-07     00000 
    7    -473.8252549818      2.05e-07     00000 
    8    -473.8252549871      5.16e-08     00000 
    9    -473.8252549877      2.24e-08     00000 
   10    -473.8252549878      6.93e-09     00000 Convergence criterion met
write pseudocanon occs and virts to disk
write pseudocanon orbital energies to disk
Timing for Total SCF: 2260.00s (wall), 4489.29s (cpu)
<S^2> of ct_allowed wavefunction after ct-allowed iterations 0.0000000000

================================
        Results of EDA2         
================================
Basic EDA Quantities
--------------------
Fragment Energies (Ha):
1 -228.6331609670
2 -245.1786461498
--------------------
  E_prp (kJ/mol) = 0.0000
  E_sol (kJ/mol) = 280.0316
  E_frz (kJ/mol) = -305.7153
  E_pol (kJ/mol) = -4.1031
  E_vct (kJ/mol) = -5.5211
  E_int (kJ/mol) = -35.3078
--------------------


Initial Wavefunction Decomposition
--------------------
  --------------------
  Orthogonal Fragment Subspace Decomposition:
  --------------------
     E_elec   (ELEC)   (kJ/mol) = -340.5193
     E_pauli  (PAULI)  (kJ/mol) = 44.2648
     E_disp   (DISP)   (kJ/mol) = -9.4607
     --------------------
     Terms summing to E_pauli:
     --------------------
        E_kep_pauli       (kJ/mol) = 54.5529
        E_disp_free_pauli (kJ/mol) = -10.2882
  --------------------
  Classical Frozen Decomposition:
  --------------------
     E_cls_elec  (CLS ELEC)  (kJ/mol) = -321.1903
     E_cls_pauli (CLS PAULI) (kJ/mol) = 15.4751
    [E_mod_pauli (MOD PAULI) (kJ/mol) = 24.9358 (CLS PAULI - DISP from orthogonal decomposition) ]
  --------------------
--------------------

Simplified EDA Summary (kJ/mol)
--------------------
 PREPARATION     0.0000
 SOLVATION       280.0316
 FROZEN          -296.2546      (does not include dispersion)
[PAULI           44.2648]     (if this is negligible, then frozen describes electrostatics)
 DISPERSION      -9.4607
 POLARIZATION    -4.1031
 CHARGE TRANSFER -5.5211
 TOTAL           -35.3078     (PRP + SOL + FRZ + DISP + POL + CT)
--------------------
 
 --------------------------------------------------------------
 
                    Orbital Energies (a.u.)
 --------------------------------------------------------------
 
 Alpha MOs
 -- Occupied --
-19.1416 -19.1340 -14.4769 -14.4683 -14.4593 -10.4409 -10.3529 -10.3286
-10.2557  -1.1938  -1.1279  -1.0769  -1.0610  -1.0261  -0.8756  -0.8277
 -0.7854  -0.7463  -0.7112  -0.6390  -0.6338  -0.6130  -0.6016  -0.5936
 -0.5469  -0.5314  -0.5232  -0.5228  -0.5155  -0.4725  -0.4495  -0.4156
 -0.3958  -0.3368  -0.3359  -0.3183
 -- Virtual --
  0.0484   0.0672   0.0745   0.0824   0.0927   0.0960   0.1019   0.1148
  0.1185   0.1253   0.1310   0.1345   0.1413   0.1467   0.1530   0.1666
  0.1692   0.1774   0.1792   0.1840   0.1922   0.2011   0.2055   0.2127
  0.2153   0.2210   0.2256   0.2336   0.2390   0.2456   0.2481   0.2610
  0.2661   0.2727   0.2800   0.2831   0.2881   0.2929   0.2987   0.3027
  0.3067   0.3124   0.3165   0.3210   0.3250   0.3291   0.3382   0.3422
  0.3466   0.3544   0.3570   0.3624   0.3639   0.3700   0.3717   0.3797
  0.3862   0.3968   0.4056   0.4100   0.4138   0.4194   0.4212   0.4326
  0.4374   0.4398   0.4431   0.4504   0.4575   0.4603   0.4634   0.4706
  0.4762   0.4805   0.4861   0.4902   0.4929   0.4966   0.5047   0.5078
  0.5138   0.5185   0.5214   0.5304   0.5378   0.5407   0.5428   0.5465
  0.5586   0.5623   0.5710   0.5787   0.5791   0.5883   0.5972   0.6012
  0.6076   0.6147   0.6245   0.6293   0.6329   0.6440   0.6506   0.6583
  0.6633   0.6715   0.6812   0.6842   0.6889   0.6975   0.7058   0.7122
  0.7250   0.7277   0.7444   0.7480   0.7494   0.7567   0.7722   0.7869
  0.7909   0.7936   0.7988   0.8004   0.8182   0.8252   0.8299   0.8356
  0.8526   0.8541   0.8616   0.8658   0.8761   0.8781   0.8900   0.8982
  0.9073   0.9237   0.9375   0.9479   0.9779   0.9897   1.0000   1.0142
  1.0186   1.0344   1.0432   1.0498   1.0609   1.0635   1.0814   1.0847
  1.0993   1.1093   1.1173   1.1237   1.1327   1.1497   1.1560   1.1795
  1.1892   1.2004   1.2188   1.2306   1.2454   1.2546   1.2667   1.2734
  1.3125   1.3360   1.3479   1.3520   1.3627   1.3919   1.4088   1.4289
  1.4433   1.4502   1.4612   1.5015   1.5079   1.5593   1.5759   1.5857
  1.5973   1.6623   1.6847   1.7014   1.7084   1.7335   1.7656   1.7987
  1.8300   1.8324   1.8527   1.8699   1.8806   1.8929   1.8969   1.9080
  1.9190   1.9210   1.9423   1.9508   1.9630   1.9721   1.9809   1.9897
  2.0093   2.0232   2.0402   2.0578   2.0692   2.0791   2.0983   2.1275
  2.1365   2.1613   2.1833   2.1913   2.2233   2.2278   2.2368   2.2554
  2.2831   2.2882   2.3018   2.3264   2.3575   2.3676   2.3769   2.4177
  2.4268   2.4574   2.4589   2.4900   2.5115   2.5166   2.5297   2.5474
  2.5747   2.5899   2.5905   2.6164   2.6300   2.6451   2.6508   2.6600
  2.6639   2.6923   2.7064   2.7152   2.7267   2.7581   2.8180   2.8206
  2.8358   2.8599   2.8747   2.8975   2.9095   2.9251   2.9429   2.9558
  2.9640   3.0407   3.0672   3.0984   3.1274   3.1350   3.1386   3.1443
  3.1811   3.1880   3.1966   3.2133   3.2192   3.2667   3.2731   3.2863
  3.2994   3.3054   3.3131   3.3197   3.3554   3.3579   3.3737   3.3892
  3.4073   3.4275   3.4364   3.4497   3.4645   3.5044   3.5111   3.5265
  3.5492   3.5660   3.5763   3.5781   3.5898   3.6353   3.6592   3.6667
  3.6862   3.6994   3.7144   3.7322   3.7448   3.7610   3.7854   3.8746
  3.8972   3.9054   3.9844   3.9953   4.0253   4.0491   4.1506   4.1779
  4.2105   4.2166   4.2310   4.2466   4.2961   4.3243   4.3430   4.4237
  4.5203   4.5251   4.5566   4.5699   4.6099   4.6388   4.6534   4.8158
  4.8243   4.8554   4.8851   4.9128   4.9146   4.9649   4.9995   5.0228
  5.0346   5.1130   5.1313   5.1404   5.1942   5.1972   5.2215   5.2606
  5.3214   5.3437   5.3524   5.3667   5.3693   5.3981   5.4141   5.4329
  5.4437   5.4694   5.4754   5.4989   5.5792   5.6318   5.6634   5.7061
  5.7218   5.7339   5.7630   5.8047   5.8951   5.9666   6.1304   6.1474
  6.1864   6.2618   6.3372   6.3777   6.4878   6.5466   6.6315   6.7234
  6.7306   6.7514   6.8158   6.9669   7.0036   7.1639   7.3106   7.3294
  7.4181  22.5357  22.6386  23.4229  23.6525  32.3713  32.4903  32.8334
 44.3060  44.3112
 --------------------------------------------------------------
 
          Ground-State Mulliken Net Atomic Charges

     Atom                 Charge (a.u.)
  ----------------------------------------
      1 C                    -0.489563
      2 C                     0.269337
      3 O                    -0.634483
      4 O                    -0.696999
      5 H                     0.182964
      6 H                     0.150071
      7 H                     0.184248
      8 C                    -0.711617
      9 C                     0.681838
     10 N                    -0.096389
     11 N                    -0.101831
     12 N                    -0.241675
     13 H                     0.111922
     14 H                     0.051816
     15 H                     0.203595
     16 H                     0.198360
     17 H                     0.182700
     18 H                     0.268684
     19 H                     0.249480
     20 H                     0.237541
  ----------------------------------------
  Sum of atomic charges =     0.000000

 -----------------------------------------------------------------
                    Cartesian Multipole Moments
 -----------------------------------------------------------------
    Charge (ESU x 10^10)
                -0.0000
    Dipole Moment (Debye)
         X      -2.1226      Y       2.4761      Z     -24.9371
       Tot      25.1494
    Quadrupole Moments (Debye-Ang)
        XX     -46.5985     XY       8.0179     YY     -53.8124
        XZ     -10.0827     YZ       4.1242     ZZ     -78.4638
    Octopole Moments (Debye-Ang^2)
       XXX      17.7968    XXY       4.8248    XYY       2.3292
       YYY      -3.5302    XXZ     -33.5555    XYZ     -11.2421
       YYZ     -14.8831    XZZ     -30.8138    YZZ      33.1191
       ZZZ    -383.7185
    Hexadecapole Moments (Debye-Ang^3)
      XXXX    -338.4475   XXXY      19.8253   XXYY     -87.3999
      XYYY       3.0928   YYYY    -204.3624   XXXZ     -47.0171
      XXYZ     -34.9274   XYYZ     -17.9536   YYYZ     -66.2619
      XXZZ    -459.3576   XYZZ      53.5045   YYZZ    -459.5277
      XZZZ    -131.8146   YZZZ     -41.4544   ZZZZ   -3250.6810
 -----------------------------------------------------------------
Archival summary:
1\1\nid00551\SP\ProcedureUnspecified\BasisUnspecified\23411\meili\SunSep2610:47:322021SunSep2610:47:322021\0\\#,ProcedureUnspecified,BasisUnspecified,\\0,1\O\C,1,1.26394\O,2,1.30638,1,120.06\C,2,1.61374,1,118.371,3,-175.9,0\H,4,1.08425,2,108.389,1,-150.113,0\H,4,1.09088,2,106.213,1,96.5634,0\H,4,1.1,2,118.791,1,-23.5503,0\H,1,2.13107,2,140.531,3,169.472,0\N,8,1.01646,1,156.322,2,-28.7711,0\H,9,1.00455,8,119.33,1,-47.8855,0\C,9,1.31874,8,121.119,1,132.582,0\N,11,1.31734,9,119.644,8,5.29984,0\H,12,1.00692,11,119.621,9,2.46691,0\H,12,1.00804,11,120.152,9,176.513,0\N,11,1.32324,9,120.494,8,-176.631,0\H,15,1.00981,11,117.638,9,-175.871,0\C,15,1.46495,11,125.02,9,3.762,0\H,17,1.09018,15,112.187,11,2.16427,0\H,17,1.09223,15,109.614,11,-117.1,0\H,17,1.1,15,111.15,11,122.569,0\\\@

 Total job time:  27068.03s(wall), 16201.01s(cpu) 
 Sun Sep 26 10:47:35 2021

        *************************************************************
        *                                                           *
        *  Thank you very much for using Q-Chem.  Have a nice day.  *
        *                                                           *
        *************************************************************


