
Running Job 1 of 1 SSI-029TRP-308ASP-1_PCM_TZVPD.in
qchem SSI-029TRP-308ASP-1_PCM_TZVPD.in_3101.0 /tmp/qchem3101/ 0
/global/common/cori/software/qchem/5.2/exe/qcprog.exe_s SSI-029TRP-308ASP-1_PCM_TZVPD.in_3101.0 /tmp/qchem3101/
                  Welcome to Q-Chem
     A Quantum Leap Into The Future Of Chemistry


 Q-Chem 5.2, Q-Chem, Inc., Pleasanton, CA (2019)

 License issued to: National Energy Research Scientific Computing Center

 Yihan Shao,  Zhengting Gan,  E. Epifanovsky,  A. T. B. Gilbert,  M. Wormit,  
 J. Kussmann,  A. W. Lange,  A. Behn,  Jia Deng,  Xintian Feng,  D. Ghosh,  
 M. Goldey,  P. R. Horn,  L. D. Jacobson,  I. Kaliman,  T. Kus,  A. Landau,  
 Jie Liu,  E. I. Proynov,  R. M. Richard,  R. P. Steele,  E. J. Sundstrom,  
 H. L. Woodcock III,  P. M. Zimmerman,  D. Zuev,  B. Albrecht,  E. Alguire,  
 S. A. Baeppler,  D. Barton,  Z. Benda,  Y. A. Bernard,  E. J. Berquist,  
 K. B. Bravaya,  H. Burton,  D. Casanova,  Chun-Min Chang,  Yunqing Chen,  
 A. Chien,  K. D. Closser,  M. P. Coons,  S. Coriani,  S. Dasgupta,  
 A. L. Dempwolff,  M. Diedenhofen,  Hainam Do,  R. G. Edgar,  Po-Tung Fang,  
 S. Faraji,  S. Fatehi,  Qingguo Feng,  K. D. Fenk,  J. Fosso-Tande,  
 J. Gayvert,  Qinghui Ge,  A. Ghysels,  G. Gidofalvi,  J. Gomes,  
 J. Gonthier,  A. Gunina,  D. Hait,  M. W. D. Hanson-Heine,  
 P. H. P. Harbach,  A. W. Hauser,  M. F. Herbst,  J. E. Herr,  
 E. G. Hohenstein,  Z. C. Holden,  Kerwin Hui,  B. C. Huynh,  T.-C. Jagau,  
 Hyunjun Ji,  B. Kaduk,  K. Khistyaev,  Jaehoon Kim,  P. Klunzinger,  K. Koh,  
 D. Kosenkov,  L. Koulias,  T. Kowalczyk,  C. M. Krauter,  A. Kunitsa,  
 Ka Un Lao,  A. Laurent,  K. V. Lawler,  Joonho Lee,  D. Lefrancois,  
 S. Lehtola,  D. S. Levine,  Yi-Pei Li,  You-Sheng Lin,  Fenglai Liu,  
 E. Livshits,  A. Luenser,  P. Manohar,  E. Mansoor,  S. F. Manzer,  
 Shan-Ping Mao,  Yuezhi Mao,  N. Mardirossian,  A. V. Marenich,  
 T. Markovich,  L. A. Martinez-Martinez,  S. A. Maurer,  N. J. Mayhall,  
 S. C. McKenzie,  J.-M. Mewes,  P. Morgante,  A. F. Morrison,  
 J. W. Mullinax,  K. Nanda,  T. S. Nguyen-Beck,  R. Olivares-Amaya,  
 J. A. Parkhill,  Zheng Pei,  T. M. Perrine,  F. Plasser,  P. Pokhilko,  
 S. Prager,  A. Prociuk,  E. Ramos,  D. R. Rehn,  F. Rob,  M. Scheurer,  
 M. Schneider,  N. Sergueev,  S. M. Sharada,  S. Sharma,  D. W. Small,  
 T. Stauch,  T. Stein,  Yu-Chuan Su,  A. J. W. Thom,  A. Tkatchenko,  
 T. Tsuchimochi,  N. M. Tubman,  L. Vogt,  M. L. Vidal,  O. Vydrov,  
 M. A. Watson,  J. Wenzel,  M. de Wergifosse,  T. A. Wesolowski,  A. White,  
 J. Witte,  A. Yamada,  Jun Yang,  K. Yao,  S. Yeganeh,  S. R. Yost,  
 Zhi-Qiang You,  A. Zech,  Igor Ying Zhang,  Xing Zhang,  Yan Zhao,  
 Ying Zhu,  B. R. Brooks,  G. K. L. Chan,  C. J. Cramer,  M. S. Gordon,  
 W. J. Hehre,  A. Klamt,  M. W. Schmidt,  C. D. Sherrill,  D. G. Truhlar,  
 A. Aspuru-Guzik,  R. Baer,  A. T. Bell,  N. A. Besley,  Jeng-Da Chai,  
 A. E. DePrince, III,  R. A. DiStasio Jr.,  A. Dreuw,  B. D. Dunietz,  
 T. R. Furlani,  Chao-Ping Hsu,  Yousung Jung,  Jing Kong,  D. S. Lambrecht,  
 WanZhen Liang,  C. Ochsenfeld,  V. A. Rassolov,  L. V. Slipchenko,  
 J. E. Subotnik,  T. Van Voorhis,  J. M. Herbert,  A. I. Krylov,  
 P. M. W. Gill,  M. Head-Gordon

 Contributors to earlier versions of Q-Chem not listed above: 
 R. D. Adamson,  B. Austin,  J. Baker,  G. J. O. Beran,  K. Brandhorst,  
 S. T. Brown,  E. F. C. Byrd,  A. K. Chakraborty,  C.-L. Cheng,  
 Siu Hung Chien,  D. M. Chipman,  D. L. Crittenden,  H. Dachsel,  
 R. J. Doerksen,  A. D. Dutoi,  L. Fusti-Molnar,  W. A. Goddard III,  
 A. Golubeva-Zadorozhnaya,  S. R. Gwaltney,  G. Hawkins,  A. Heyden,  
 S. Hirata,  G. Kedziora,  F. J. Keil,  C. Kelley,  Jihan Kim,  R. A. King,  
 R. Z. Khaliullin,  P. P. Korambath,  W. Kurlancheek,  A. M. Lee,  M. S. Lee,  
 S. V. Levchenko,  Ching Yeh Lin,  D. Liotard,  R. C. Lochan,  I. Lotan,  
 P. E. Maslen,  N. Nair,  D. P. O'Neill,  D. Neuhauser,  E. Neuscamman,  
 C. M. Oana,  R. Olson,  B. Peters,  R. Peverati,  P. A. Pieniazek,  
 Y. M. Rhee,  J. Ritchie,  M. A. Rohrdanz,  E. Rosta,  N. J. Russ,  
 H. F. Schaefer III,  N. E. Schultz,  N. Shenvi,  A. C. Simmonett,  A. Sodt,  
 D. Stuck,  K. S. Thanthiriwatte,  V. Vanovschi,  Tao Wang,  A. Warshel,  
 C. F. Williams,  Q. Wu,  X. Xu,  W. Zhang

 Please cite Q-Chem as follows:
 Y. Shao et al., Mol. Phys. 113, 184-215 (2015)
 DOI: 10.1080/00268976.2014.952696

 Q-Chem 5.2.0 for Intel X86 EM64T Linux

 Parts of Q-Chem use Armadillo 8.300.2 (Tropical Shenanigans).
 http://arma.sourceforge.net/

 Q-Chem begins on Sun Sep 26 04:42:58 2021  

Host: cori01
0

     Scratch files written to /tmp/qchem3101//
 May1019 |scratch|qcdevops|jenkins|workspace|build_RNUM -1
Processing $rem in /global/common/cori/software/qchem/5.2/config/preferences:
	 MEM_TOTAL  96000 
NAlpha2: 102
NElect   102
Mult     1
Symmetry turned off for PCM/SM12/SMD calculation

 Q-Chem warning in module libgen/rem_setup.C, line 2803:

 Neither GIA nor STOLL is specified by user. Use STOLL as the default


Checking the input file for inconsistencies... 	...done.

--------------------------------------------------------------
User input:
--------------------------------------------------------------
$comment
SSI-029TRP-308ASP-1.pdb
$end

$molecule
-1 1
--
0 1
C   -1.343981714584   -2.259502937045   -3.738522278060
C   -0.440981714584   -0.228502937045   -0.707522278060
C   -1.206981714584   -1.253502937045   -1.317522278060
C   -0.809981714584   -1.324502937045   -2.696522278060
C    0.148018285416   -0.373502937045   -2.864522278060
C   -0.576981714584    0.107497062955    0.630477721940
C   -1.496981714584   -0.597502937045    1.381477721940
C   -2.269981714584   -1.617502937045    0.809477721940
C   -2.134981714584   -1.952502937045   -0.535522278060
N    0.375018285416    0.286497062955   -1.679522278060
H    0.022018285416    0.890497062955    1.067477721940
H   -1.604981714584   -0.363502937045    2.431477721940
H    1.064018285416    1.019497062955   -1.548522278060
H   -2.982981714584   -2.151502937045    1.425477721940
H    0.645018285416   -0.159502937045   -3.800522278060
H   -2.733981714584   -2.734502937045   -0.977522278060
H   -1.101981714584   -1.856502937045   -4.723522278060
H   -2.431981714584   -2.281502937045   -3.650522278060
H   -0.961087714584   -3.287992937045   -3.663672278060
--
-1 1
C    1.113018285416    3.048497062955    2.510477721940
C    2.208018285416    1.996497062955    2.466477721940
O    2.582018285416    1.475497062955    3.537477721940
O    2.679018285416    1.681497062955    1.351477721940
H    0.236018285416    2.620497062955    2.999477721940
H    0.827018285416    3.305497062955    1.494477721940
H    1.422723285416    3.953897062955    3.052997721940
$end

$rem
JOBTYPE			EDA
EDA2			1
method			wB97X-V
BASIS			def2-TZVPD
XC_GRID			000099000590
NL_GRID			1
UNRESTRICTED		FALSE
MAX_SCF_CYCLES		200
SYMMETRY		FALSE
SYM_IGNORE		TRUE
MEM_STATIC		2000
BASIS_LIN_DEP_THRESH 	6
THRESH 			14
SCF_CONVERGENCE 	8
SCF_PRINT_FRGM 		TRUE
SOLVENT_METHOD          PCM
$end

$PCM
THEORY                  CPCM
METHOD                  SWIG
SOLVER                  INVERSION
RADII                   UFF
HPOINTS                 302
HEAVYPOINTS             302
PRINTLEVEL              0
$END

$SOLVENT
DIELECTRIC              78.390000 ! water
$END
--------------------------------------------------------------
 ----------------------------------------------------------------
             Standard Nuclear Orientation (Angstroms)
    I     Atom           X                Y                Z
 ----------------------------------------------------------------
    1      C      -1.3439817146    -2.2595029370    -3.7385222781
    2      C      -0.4409817146    -0.2285029370    -0.7075222781
    3      C      -1.2069817146    -1.2535029370    -1.3175222781
    4      C      -0.8099817146    -1.3245029370    -2.6965222781
    5      C       0.1480182854    -0.3735029370    -2.8645222781
    6      C      -0.5769817146     0.1074970630     0.6304777219
    7      C      -1.4969817146    -0.5975029370     1.3814777219
    8      C      -2.2699817146    -1.6175029370     0.8094777219
    9      C      -2.1349817146    -1.9525029370    -0.5355222781
   10      N       0.3750182854     0.2864970630    -1.6795222781
   11      H       0.0220182854     0.8904970630     1.0674777219
   12      H      -1.6049817146    -0.3635029370     2.4314777219
   13      H       1.0640182854     1.0194970630    -1.5485222781
   14      H      -2.9829817146    -2.1515029370     1.4254777219
   15      H       0.6450182854    -0.1595029370    -3.8005222781
   16      H      -2.7339817146    -2.7345029370    -0.9775222781
   17      H      -1.1019817146    -1.8565029370    -4.7235222781
   18      H      -2.4319817146    -2.2815029370    -3.6505222781
   19      H      -0.9610877146    -3.2879929370    -3.6636722781
   20      C       1.1130182854     3.0484970630     2.5104777219
   21      C       2.2080182854     1.9964970630     2.4664777219
   22      O       2.5820182854     1.4754970630     3.5374777219
   23      O       2.6790182854     1.6814970630     1.3514777219
   24      H       0.2360182854     2.6204970630     2.9994777219
   25      H       0.8270182854     3.3054970630     1.4944777219
   26      H       1.4227232854     3.9538970630     3.0529977219
 ----------------------------------------------------------------
 Nuclear Repulsion Energy =         801.94127640 hartrees
 There are       51 alpha and       51 beta electrons
 Requested basis set is def2-TZVPD
 There are 244 shells and 632 basis functions

 Total QAlloc Memory Limit  96000 MB
 Mega-Array Size      1956 MB
 MEM_STATIC part      2000 MB
 Discretize the solute cavity surface with Lebedev spheres
	Using 302 Lebedev grid points for each H atom
	Using 302 Lebedev grid points for other atoms
	Atomic van der Waals radii will be scaled by 1.20
 Remove points where switching function is < 1.0e-08
 Keep 2963 surface tesserae and discard 4889 interior tesserae
 Molecular Surface Area = 308.597 Angst**2
 A cutoff of  1.0D-14 yielded  25291 shell pairs
 There are    169995 function pairs (    216463 Cartesian)
 Smallest overlap matrix eigenvalue = 3.54E-07
 Linear dependence detected in AO basis
 Tighter screening thresholds may be required for diffuse basis sets
 Use S2THRESH > 14 and THRESH = 14 in case of SCF convergence issues
 Number of orthogonalized atomic orbitals = 628
 Maximum deviation from orthogonality = 2.280E-10

 Scale SEOQF with 1.000000e-01/1.000000e-01/1.000000e-01

 Standard Electronic Orientation quadrupole field applied
 Nucleus-field energy     =    -0.0000000252 hartrees

 -----------------------------------------------------------------------
  General SCF calculation program by
  Eric Jon Sundstrom, Paul Horn, Yuezhi Mao, Dmitri Zuev, Alec White,
  David Stuck, Shaama M.S., Shane Yost, Joonho Lee, David Small,
  Daniel Levine, Susi Lehtola, Hugh Burton, Evgeny Epifanovsky
 -----------------------------------------------------------------------
================================================================
                 ALMO-EDA with the EDA2 driver                  
================================================================
 The second-generation ALMO-EDA (for DFT):                      
 P. R. Horn, Y. Mao and M. Head-Gordon, PCCP, 18, 23067 (2016)  
 Decomposition of the frozen energy:                            
 P. R. Horn, Y. Mao and M. Head-Gordon, JCP, 144, 114107 (2016) 
 FERF model for polarization:                                   
 P. R. Horn and M. Head-Gordon, JCP, 143, 114111 (2015)         
Using eda2 option set 1
Option set summary: Frozen orbital wavefunction, initial wavefunction decomposition, and nDQ polarization.
--------------------------------
Printing EDA Options
--------------------------------
eda_child_super_basis      0
fragmo_guess_mode          0
child_mp                   1
child_mp_orders            232
cls_elec                   1
cls_disp                   0
scfmi_mode                 1
scfmi_occs                 0
scfmi_virts                0
frz_relax                  0
frz_relax_method           0
dc_pen_start               0
dc_pen_conv                0
dc_pen_increment           0
dc_pen_steps               0
dc_pen_thresh_factor       0
dc_pen_pre_newton_thresh   0
frz_ortho_decomp           1
frz_ortho_decomp_conv      6
frgm_method                2
scfmi_freeze_ss            0
separate_rehyb             0
plot_diff_den              0
eda_nocv                   0
eda_vct_relax              1
disp_free_x                0
disp_free_c                0
eda_bsse                   0
eda_pct_a                  0
eda_covp                   0
--------------------------------
Attempting to make child job directory: /tmp/qchem3101//Frg1/
Attempting to make child job directory: /tmp/qchem3101//Frg2/
Creating input file /tmp/qchem3101/Frg1.input
using default PutDataFrgm: nothing
calling putenv with: QCSCRATCH=/tmp/qchem3101/ 
calling putenv with: QCLOCALSCR=/tmp/qchem3101/ 
Spawning Job For Fragment 0
                  Welcome to Q-Chem
     A Quantum Leap Into The Future Of Chemistry


 Q-Chem 5.2, Q-Chem, Inc., Pleasanton, CA (2019)

 License issued to: National Energy Research Scientific Computing Center

 Yihan Shao,  Zhengting Gan,  E. Epifanovsky,  A. T. B. Gilbert,  M. Wormit,  
 J. Kussmann,  A. W. Lange,  A. Behn,  Jia Deng,  Xintian Feng,  D. Ghosh,  
 M. Goldey,  P. R. Horn,  L. D. Jacobson,  I. Kaliman,  T. Kus,  A. Landau,  
 Jie Liu,  E. I. Proynov,  R. M. Richard,  R. P. Steele,  E. J. Sundstrom,  
 H. L. Woodcock III,  P. M. Zimmerman,  D. Zuev,  B. Albrecht,  E. Alguire,  
 S. A. Baeppler,  D. Barton,  Z. Benda,  Y. A. Bernard,  E. J. Berquist,  
 K. B. Bravaya,  H. Burton,  D. Casanova,  Chun-Min Chang,  Yunqing Chen,  
 A. Chien,  K. D. Closser,  M. P. Coons,  S. Coriani,  S. Dasgupta,  
 A. L. Dempwolff,  M. Diedenhofen,  Hainam Do,  R. G. Edgar,  Po-Tung Fang,  
 S. Faraji,  S. Fatehi,  Qingguo Feng,  K. D. Fenk,  J. Fosso-Tande,  
 J. Gayvert,  Qinghui Ge,  A. Ghysels,  G. Gidofalvi,  J. Gomes,  
 J. Gonthier,  A. Gunina,  D. Hait,  M. W. D. Hanson-Heine,  
 P. H. P. Harbach,  A. W. Hauser,  M. F. Herbst,  J. E. Herr,  
 E. G. Hohenstein,  Z. C. Holden,  Kerwin Hui,  B. C. Huynh,  T.-C. Jagau,  
 Hyunjun Ji,  B. Kaduk,  K. Khistyaev,  Jaehoon Kim,  P. Klunzinger,  K. Koh,  
 D. Kosenkov,  L. Koulias,  T. Kowalczyk,  C. M. Krauter,  A. Kunitsa,  
 Ka Un Lao,  A. Laurent,  K. V. Lawler,  Joonho Lee,  D. Lefrancois,  
 S. Lehtola,  D. S. Levine,  Yi-Pei Li,  You-Sheng Lin,  Fenglai Liu,  
 E. Livshits,  A. Luenser,  P. Manohar,  E. Mansoor,  S. F. Manzer,  
 Shan-Ping Mao,  Yuezhi Mao,  N. Mardirossian,  A. V. Marenich,  
 T. Markovich,  L. A. Martinez-Martinez,  S. A. Maurer,  N. J. Mayhall,  
 S. C. McKenzie,  J.-M. Mewes,  P. Morgante,  A. F. Morrison,  
 J. W. Mullinax,  K. Nanda,  T. S. Nguyen-Beck,  R. Olivares-Amaya,  
 J. A. Parkhill,  Zheng Pei,  T. M. Perrine,  F. Plasser,  P. Pokhilko,  
 S. Prager,  A. Prociuk,  E. Ramos,  D. R. Rehn,  F. Rob,  M. Scheurer,  
 M. Schneider,  N. Sergueev,  S. M. Sharada,  S. Sharma,  D. W. Small,  
 T. Stauch,  T. Stein,  Yu-Chuan Su,  A. J. W. Thom,  A. Tkatchenko,  
 T. Tsuchimochi,  N. M. Tubman,  L. Vogt,  M. L. Vidal,  O. Vydrov,  
 M. A. Watson,  J. Wenzel,  M. de Wergifosse,  T. A. Wesolowski,  A. White,  
 J. Witte,  A. Yamada,  Jun Yang,  K. Yao,  S. Yeganeh,  S. R. Yost,  
 Zhi-Qiang You,  A. Zech,  Igor Ying Zhang,  Xing Zhang,  Yan Zhao,  
 Ying Zhu,  B. R. Brooks,  G. K. L. Chan,  C. J. Cramer,  M. S. Gordon,  
 W. J. Hehre,  A. Klamt,  M. W. Schmidt,  C. D. Sherrill,  D. G. Truhlar,  
 A. Aspuru-Guzik,  R. Baer,  A. T. Bell,  N. A. Besley,  Jeng-Da Chai,  
 A. E. DePrince, III,  R. A. DiStasio Jr.,  A. Dreuw,  B. D. Dunietz,  
 T. R. Furlani,  Chao-Ping Hsu,  Yousung Jung,  Jing Kong,  D. S. Lambrecht,  
 WanZhen Liang,  C. Ochsenfeld,  V. A. Rassolov,  L. V. Slipchenko,  
 J. E. Subotnik,  T. Van Voorhis,  J. M. Herbert,  A. I. Krylov,  
 P. M. W. Gill,  M. Head-Gordon

 Contributors to earlier versions of Q-Chem not listed above: 
 R. D. Adamson,  B. Austin,  J. Baker,  G. J. O. Beran,  K. Brandhorst,  
 S. T. Brown,  E. F. C. Byrd,  A. K. Chakraborty,  C.-L. Cheng,  
 Siu Hung Chien,  D. M. Chipman,  D. L. Crittenden,  H. Dachsel,  
 R. J. Doerksen,  A. D. Dutoi,  L. Fusti-Molnar,  W. A. Goddard III,  
 A. Golubeva-Zadorozhnaya,  S. R. Gwaltney,  G. Hawkins,  A. Heyden,  
 S. Hirata,  G. Kedziora,  F. J. Keil,  C. Kelley,  Jihan Kim,  R. A. King,  
 R. Z. Khaliullin,  P. P. Korambath,  W. Kurlancheek,  A. M. Lee,  M. S. Lee,  
 S. V. Levchenko,  Ching Yeh Lin,  D. Liotard,  R. C. Lochan,  I. Lotan,  
 P. E. Maslen,  N. Nair,  D. P. O'Neill,  D. Neuhauser,  E. Neuscamman,  
 C. M. Oana,  R. Olson,  B. Peters,  R. Peverati,  P. A. Pieniazek,  
 Y. M. Rhee,  J. Ritchie,  M. A. Rohrdanz,  E. Rosta,  N. J. Russ,  
 H. F. Schaefer III,  N. E. Schultz,  N. Shenvi,  A. C. Simmonett,  A. Sodt,  
 D. Stuck,  K. S. Thanthiriwatte,  V. Vanovschi,  Tao Wang,  A. Warshel,  
 C. F. Williams,  Q. Wu,  X. Xu,  W. Zhang

 Please cite Q-Chem as follows:
 Y. Shao et al., Mol. Phys. 113, 184-215 (2015)
 DOI: 10.1080/00268976.2014.952696

 Q-Chem 5.2.0 for Intel X86 EM64T Linux

 Parts of Q-Chem use Armadillo 8.300.2 (Tropical Shenanigans).
 http://arma.sourceforge.net/

 Q-Chem begins on Sun Sep 26 04:43:04 2021  

Host: cori01
0

     Scratch files written to /tmp/qchem3101//Frg1//
 May1019 |scratch|qcdevops|jenkins|workspace|build_RNUM -1
Processing $rem in /global/common/cori/software/qchem/5.2/config/preferences:
	 MEM_TOTAL  96000 
NAlpha2: 70
NElect   70
Mult     1
Symmetry turned off for PCM/SM12/SMD calculation

Checking the input file for inconsistencies... 	...done.

--------------------------------------------------------------
User input:
--------------------------------------------------------------
$molecule
0 1
 6	-1.3439817146	-2.2595029370	-3.7385222781
 6	-0.4409817146	-0.2285029370	-0.7075222781
 6	-1.2069817146	-1.2535029370	-1.3175222781
 6	-0.8099817146	-1.3245029370	-2.6965222781
 6	0.1480182854	-0.3735029370	-2.8645222781
 6	-0.5769817146	0.1074970630	0.6304777219
 6	-1.4969817146	-0.5975029370	1.3814777219
 6	-2.2699817146	-1.6175029370	0.8094777219
 6	-2.1349817146	-1.9525029370	-0.5355222781
 7	0.3750182854	0.2864970630	-1.6795222781
 1	0.0220182854	0.8904970630	1.0674777219
 1	-1.6049817146	-0.3635029370	2.4314777219
 1	1.0640182854	1.0194970630	-1.5485222781
 1	-2.9829817146	-2.1515029370	1.4254777219
 1	0.6450182854	-0.1595029370	-3.8005222781
 1	-2.7339817146	-2.7345029370	-0.9775222781
 1	-1.1019817146	-1.8565029370	-4.7235222781
 1	-2.4319817146	-2.2815029370	-3.6505222781
 1	-0.9610877146	-3.2879929370	-3.6636722781
$end
$rem
EDA2		1
METHOD		WB97X-V
BASIS		DEF2-TZVPD
XC_GRID		000099000590
NL_GRID		1
UNRESTRICTED		FALSE
MAX_SCF_CYCLES		200
SYMMETRY		FALSE
SYM_IGNORE		TRUE
BASIS_LIN_DEP_THRESH		6
THRESH		14
SCF_CONVERGENCE		8
SCF_PRINT_FRGM		TRUE
SOLVENT_METHOD		PCM
!required keywords
JOBTYPE		SP
SYM_IGNORE		TRUE
SUBSYSTEM		TRUE
GEN_SCFMAN		TRUE
CHILD_INSTRUCTION		2
SYM_IGNORE		TRUE
SCFMI		0
RI_K 0		
PARI_K 0		
MIN_PARI_K 0		
IARI_K 0		
OCC_RI_K 0		
PURECART		1111
MEM_STATIC		2000
MEM_TOTAL		96000
GUI		0
CHILD_MP		1
CHILD_MP_ORDERS		232
FRZ_RELAX		0
FRZ_RELAX_METHOD		0
EDA_CLS_ELEC		1
EDA_CLS_DISP		0
FRZ_ORTHO_DECOMP		1
EDA2		FALSE
FRGM_METHOD		FALSE
CIS_N_ROOTS  0
LOCAL_CIS    0
CIS_RLX_DNS  1
$end
$pcm
THEORY                  CPCM
METHOD                  SWIG
SOLVER                  INVERSION
RADII                   UFF
HPOINTS                 302
HEAVYPOINTS             302
PRINTLEVEL              0
$end
$solvent
DIELECTRIC              78.390000 ! water
$end
--------------------------------------------------------------
 ----------------------------------------------------------------
             Standard Nuclear Orientation (Angstroms)
    I     Atom           X                Y                Z
 ----------------------------------------------------------------
    1      C      -1.3439817146    -2.2595029370    -3.7385222781
    2      C      -0.4409817146    -0.2285029370    -0.7075222781
    3      C      -1.2069817146    -1.2535029370    -1.3175222781
    4      C      -0.8099817146    -1.3245029370    -2.6965222781
    5      C       0.1480182854    -0.3735029370    -2.8645222781
    6      C      -0.5769817146     0.1074970630     0.6304777219
    7      C      -1.4969817146    -0.5975029370     1.3814777219
    8      C      -2.2699817146    -1.6175029370     0.8094777219
    9      C      -2.1349817146    -1.9525029370    -0.5355222781
   10      N       0.3750182854     0.2864970630    -1.6795222781
   11      H       0.0220182854     0.8904970630     1.0674777219
   12      H      -1.6049817146    -0.3635029370     2.4314777219
   13      H       1.0640182854     1.0194970630    -1.5485222781
   14      H      -2.9829817146    -2.1515029370     1.4254777219
   15      H       0.6450182854    -0.1595029370    -3.8005222781
   16      H      -2.7339817146    -2.7345029370    -0.9775222781
   17      H      -1.1019817146    -1.8565029370    -4.7235222781
   18      H      -2.4319817146    -2.2815029370    -3.6505222781
   19      H      -0.9610877146    -3.2879929370    -3.6636722781
 ----------------------------------------------------------------
 Nuclear Repulsion Energy =         485.18349136 hartrees
 There are       35 alpha and       35 beta electrons
 Requested basis set is def2-TZVPD
 There are 175 shells and 451 basis functions

 Total QAlloc Memory Limit  96000 MB
 Mega-Array Size      1956 MB
 MEM_STATIC part      2000 MB
 Discretize the solute cavity surface with Lebedev spheres
	Using 302 Lebedev grid points for each H atom
	Using 302 Lebedev grid points for other atoms
	Atomic van der Waals radii will be scaled by 1.20
 Remove points where switching function is < 1.0e-08
 Keep 2142 surface tesserae and discard 3596 interior tesserae
 Molecular Surface Area = 215.258 Angst**2
 A cutoff of  1.0D-14 yielded  14469 shell pairs
 There are     98241 function pairs (    126414 Cartesian)
 Smallest overlap matrix eigenvalue = 4.98E-07
 Linear dependence detected in AO basis
 Tighter screening thresholds may be required for diffuse basis sets
 Use S2THRESH > 14 and THRESH = 14 in case of SCF convergence issues
 Number of orthogonalized atomic orbitals = 448
 Maximum deviation from orthogonality = 1.436E-10

 Scale SEOQF with 1.000000e-01/1.000000e-01/1.000000e-01

 Standard Electronic Orientation quadrupole field applied
 Nucleus-field energy     =    -0.0000000191 hartrees
 Guess from superposition of atomic densities
 Warning:  Energy on first SCF cycle will be non-variational
 SAD guess density has 69.692991 electrons

 -----------------------------------------------------------------------
  General SCF calculation program by
  Eric Jon Sundstrom, Paul Horn, Yuezhi Mao, Dmitri Zuev, Alec White,
  David Stuck, Shaama M.S., Shane Yost, Joonho Lee, David Small,
  Daniel Levine, Susi Lehtola, Hugh Burton, Evgeny Epifanovsky
 -----------------------------------------------------------------------
 Exchange:     0.1670 Hartree-Fock + 1.0000 wB97X-V + LR-HF
 Correlation:  1.0000 wB97X-V
 Using Euler-Maclaurin-Lebedev (99,590) quadrature formula
 Nonlocal Correlation:  VV10 with C = 0.0100 and b = 6.00 and scale = 1.00000
 Grid used for NLC:  SG-1 standard quadrature
Energy prior to optimization (guess energy) = -402.927834358237
Begin Timing: Total SCF Calculation
begin iterations for algorithm: DIIS         
the SCF tolerance is set to 1.00e-08
    1    -402.9278343582      3.30e-03     00000 
    2    -402.9614078008      3.10e-03     00000 
    3    -403.1662861595      3.71e-04     00000 
    4    -403.1694890438      1.54e-04     00000 
    5    -403.1701266986      2.65e-05     00000 
    6    -403.1701502336      1.51e-05     00000 
    7    -403.1701574427      2.94e-06     00000 
    8    -403.1701583275      1.68e-06     00000 
    9    -403.1701585248      6.83e-07     00000 
   10    -403.1701586007      2.65e-07     00000 
   11    -403.1701586113      9.26e-08     00000 
   12    -403.1701586121      4.14e-08     00000 
   13    -403.1701586122      1.13e-08     00000 
   14    -403.1701586123      5.36e-09     00000 Convergence criterion met
Timing for Total SCF: 4419.00s (wall), 8787.46s (cpu)

************** Final PCM Free Energy Summary **************
 G_electrostatic  =      -0.00636769 hartree =      -3.99578324 kcal/mol
 G_cavitation     =       0.00000000 hartree =       0.00000000 kcal/mol
 G_dispersion     =       0.00000000 hartree =       0.00000000 kcal/mol
 G_repulsion      =       0.00000000 hartree =       0.00000000 kcal/mol
 --------------------------------------------------
 Non-electrostatic Free Energy =       0.00000000 hartree =       0.00000000 kcal/mol
 Total                         =      -0.00636769 hartree =      -3.99578324 kcal/mol
 --------------------------------------------------
 SCF Energy (H0 + V/2)                       =    -403.17015861 
 Solute Internal Energy (H0)                 =    -403.16379093 
 Total Free Energy (H0 + V/2 + non-elec)     =    -403.17015861 hartree
                                             = -252993.09295376 kcal/mol
***********************************************************

E_pcm = -0.0063676859
Multipole orders to be included
        2
        3
computing dipole RHS
computing quadrupole RHS
total number of RHS in solve_reponses: 8
RHS batch sizes
        8
Beginning Block Conjugate Gradient Iterations. Batch Number: 0
computing hessian-vector products by finite difference
              1      5.90e-01     00000 Conjugate Gradient Iteration
computing hessian-vector products by finite difference
              2      1.97e-01     00000 Conjugate Gradient Iteration
computing hessian-vector products by finite difference
              3      5.62e-02     00000 Conjugate Gradient Iteration
computing hessian-vector products by finite difference
              4      1.98e-02     00000 Conjugate Gradient Iteration
computing hessian-vector products by finite difference
              5      7.06e-03     00000 Conjugate Gradient Iteration
computing hessian-vector products by finite difference
              6      2.17e-03     00000 Conjugate Gradient Iteration
computing hessian-vector products by finite difference
              7      5.29e-04     00000 Conjugate Gradient Iteration
computing hessian-vector products by finite difference
              8      1.11e-04     00000 Conjugate Gradient Iteration
computing hessian-vector products by finite difference
              9      2.13e-05     00000 Conjugate Gradient Iteration
computing hessian-vector products by finite difference
             10      5.54e-06     00000 Conjugate Gradient Iteration
computing hessian-vector products by finite difference
             11      9.92e-07     00000 Conjugate Gradient Iteration
computing hessian-vector products by finite difference
             12      1.69e-07     00000 Conjugate Gradient Iteration
computing hessian-vector products by finite difference
             13      2.67e-08     00000 Conjugate Gradient Iteration
computing hessian-vector products by finite difference
             14      8.16e-09     00000 CG Converged
batch 0 complete
Done Calculating Responses
TESTING ORTHOGONALIZATION OF MULTIPOLE BASIS
Multipole virts passed orthogonality test
Virts Per Order
          105
          175
 
 --------------------------------------------------------------
 
                    Orbital Energies (a.u.)
 --------------------------------------------------------------
 
 Alpha MOs
 -- Occupied --
-14.4501 -10.3019 -10.2962 -10.2714 -10.2711 -10.2686 -10.2665 -10.2652
-10.2631 -10.2622  -1.1169  -0.9802  -0.9326  -0.8699  -0.8623  -0.8184
 -0.7473  -0.7154  -0.6784  -0.6530  -0.6011  -0.5842  -0.5558  -0.5513
 -0.5398  -0.5174  -0.5134  -0.4952  -0.4824  -0.4537  -0.4529  -0.4337
 -0.3791  -0.3165  -0.2930
 -- Virtual --
  0.0537   0.0597   0.0747   0.0763   0.0905   0.0969   0.0988   0.1054
  0.1266   0.1322   0.1350   0.1467   0.1550   0.1631   0.1706   0.1759
  0.1859   0.1922   0.2004   0.2065   0.2088   0.2172   0.2234   0.2458
  0.2465   0.2540   0.2588   0.2613   0.2652   0.2720   0.2740   0.2753
  0.2799   0.2836   0.2863   0.2892   0.3009   0.3078   0.3133   0.3183
  0.3278   0.3305   0.3334   0.3358   0.3410   0.3430   0.3460   0.3497
  0.3542   0.3577   0.3694   0.3743   0.3764   0.3866   0.3887   0.3922
  0.4001   0.4066   0.4095   0.4121   0.4170   0.4185   0.4248   0.4354
  0.4375   0.4471   0.4512   0.4552   0.4560   0.4605   0.4642   0.4708
  0.4844   0.4910   0.4927   0.4960   0.5001   0.5113   0.5199   0.5206
  0.5259   0.5370   0.5397   0.5443   0.5480   0.5510   0.5568   0.5639
  0.5671   0.5771   0.5823   0.5874   0.6022   0.6073   0.6122   0.6225
  0.6333   0.6393   0.6425   0.6482   0.6545   0.6611   0.6771   0.6829
  0.6872   0.6947   0.6977   0.7016   0.7060   0.7148   0.7234   0.7306
  0.7395   0.7450   0.7483   0.7590   0.7642   0.7689   0.7708   0.7746
  0.7802   0.7812   0.7840   0.7897   0.7944   0.8024   0.8087   0.8104
  0.8177   0.8262   0.8303   0.8338   0.8384   0.8469   0.8522   0.8558
  0.8611   0.8644   0.8756   0.8933   0.9019   0.9072   0.9145   0.9389
  0.9448   0.9487   0.9662   0.9872   0.9894   1.0077   1.0123   1.0162
  1.0363   1.0428   1.0558   1.0615   1.0728   1.0802   1.0936   1.0973
  1.1156   1.1331   1.1377   1.1464   1.1675   1.1844   1.1990   1.2139
  1.2433   1.2539   1.2616   1.2685   1.2941   1.3120   1.3302   1.3438
  1.3778   1.3925   1.3960   1.4083   1.4262   1.4446   1.4504   1.4765
  1.5155   1.5354   1.5576   1.5678   1.5814   1.6011   1.6133   1.6199
  1.6446   1.6581   1.6938   1.7022   1.7202   1.7239   1.7463   1.7612
  1.7906   1.8178   1.8424   1.8482   1.8619   1.8675   1.8791   1.8867
  1.9001   1.9180   1.9296   1.9380   1.9511   1.9645   1.9742   1.9895
  1.9965   1.9981   1.9995   2.0237   2.0320   2.0604   2.0652   2.0754
  2.0901   2.1190   2.1308   2.1713   2.1820   2.1900   2.2079   2.2220
  2.2509   2.2929   2.3001   2.3136   2.3279   2.3455   2.3625   2.3891
  2.4025   2.4271   2.4436   2.4595   2.4896   2.5033   2.5113   2.5327
  2.5637   2.5788   2.5970   2.6083   2.6231   2.6465   2.6601   2.6808
  2.6864   2.7232   2.7542   2.7613   2.7680   2.7793   2.7870   2.8046
  2.8195   2.8299   2.8517   2.8585   2.8803   2.8896   2.8966   2.9127
  2.9226   2.9439   2.9610   2.9700   2.9887   3.0040   3.0271   3.0355
  3.0432   3.0646   3.0747   3.0997   3.1176   3.1250   3.1374   3.1549
  3.1662   3.1829   3.2083   3.2163   3.2315   3.2445   3.2621   3.2733
  3.2884   3.2982   3.3105   3.3211   3.3469   3.3598   3.3755   3.3884
  3.3985   3.4165   3.4249   3.4404   3.4454   3.4546   3.4735   3.4799
  3.4846   3.5032   3.5140   3.5169   3.5220   3.5386   3.5509   3.5734
  3.5856   3.5937   3.6126   3.6299   3.6396   3.6583   3.6626   3.6726
  3.7069   3.7151   3.7186   3.7272   3.7558   3.7646   3.7723   3.7879
  3.8158   3.8593   3.8808   3.9118   3.9330   3.9439   3.9693   4.0317
  4.0455   4.0612   4.1163   4.1467   4.1782   4.1909   4.2129   4.2270
  4.2520   4.2744   4.2813   4.2954   4.3183   4.3544   4.3641   4.3740
  4.4076   4.4179   4.4344   4.4625   4.4849   4.5175   4.5457   4.6120
  4.6406   4.6459   4.6632   4.7539   4.7741   4.8166   4.8352   4.9255
  4.9365   4.9592   4.9812   4.9919   5.0014   5.0638   5.0692   5.1153
  5.1299   5.1538   5.2006   5.2209   5.2685   5.3909   5.4080   5.4500
  5.4976   5.5578   5.5949   5.6415   5.7084   5.8132   5.8228   5.9561
  5.9693   6.2785   6.3460  22.6442  22.7501  22.9296  22.9526  22.9817
 23.2020  23.2660  23.4621  23.7996  32.8391
 --------------------------------------------------------------
 
          Ground-State Mulliken Net Atomic Charges

     Atom                 Charge (a.u.)
  ----------------------------------------
      1 C                    -1.002645
      2 C                    -0.041609
      3 C                     0.387416
      4 C                     0.776744
      5 C                    -0.724419
      6 C                    -0.677015
      7 C                    -0.392664
      8 C                    -0.601026
      9 C                    -0.442928
     10 N                     0.164310
     11 H                     0.342875
     12 H                     0.339166
     13 H                     0.185505
     14 H                     0.340942
     15 H                     0.252195
     16 H                     0.354679
     17 H                     0.269346
     18 H                     0.261372
     19 H                     0.207755
  ----------------------------------------
  Sum of atomic charges =     0.000000

 -----------------------------------------------------------------
                    Cartesian Multipole Moments
 -----------------------------------------------------------------
    Charge (ESU x 10^10)
                 0.0000
    Dipole Moment (Debye)
         X       1.9046      Y       1.5425      Z      -1.1579
       Tot       2.7106
    Quadrupole Moments (Debye-Ang)
        XX     -59.6609     XY       5.0000     YY     -58.5146
        XZ      -3.2271     YZ       0.5257     ZZ     -51.7220
    Octopole Moments (Debye-Ang^2)
       XXX     182.7407    XXY      50.3044    XYY      54.4202
       YYY     171.2434    XXZ      65.9921    XYZ      -5.3028
       YYZ      60.5834    XZZ      62.0190    YZZ      54.3427
       ZZZ     175.6421
    Hexadecapole Moments (Debye-Ang^3)
      XXXX    -729.0386   XXXY    -256.4129   XXYY    -210.3549
      XYYY    -265.4810   YYYY    -698.2015   XXXZ    -102.2885
      XXYZ     -95.8637   XYYZ     -26.4888   YYYZ    -260.3111
      XXZZ    -373.3155   XYZZ     -75.5226   YYZZ    -374.5619
      XZZZ    -130.4446   YZZZ    -261.0224   ZZZZ   -1458.2112
 -----------------------------------------------------------------
Archival summary:
1\1\nid00561\SP\ProcedureUnspecified\BasisUnspecified\199\meili\MonSep2703:35:272021MonSep2703:35:272021\0\\#,ProcedureUnspecified,BasisUnspecified,\\0,1\C\C,1,1.40047\H,2,1.07967,1,120.036\C,2,1.39265,1,118.911,3,-179.796,0\H,4,1.08304,2,119.638,1,-179.905,0\C,4,1.40182,2,121.041,1,0.122914,0\H,6,1.08117,4,119.912,2,-178.989,0\C,6,1.3811,4,121.123,2,-0.015983,0\H,8,1.07836,6,121.353,4,-179.785,0\C,8,1.38623,6,117.806,4,-0.126262,0\N,10,1.36962,8,130.716,6,-179.98,0\H,11,1.01448,10,125.78,8,2.00731,0\C,11,1.37527,10,109.433,8,-179.843,0\H,13,1.08116,11,125.107,10,179.027,0\C,13,1.36029,11,110.202,10,-0.0260209,0\C,15,1.49838,13,126.967,11,-179.94,0\H,16,1.09142,15,108.553,13,-18.7883,0\H,16,1.09177,15,108.16,13,-135.173,0\H,16,1.1,15,114.335,13,103.434,0\\\@

 Total job time:  82345.70s(wall), 163757.34s(cpu) 
 Mon Sep 27 03:35:30 2021

        *************************************************************
        *                                                           *
        *  Thank you very much for using Q-Chem.  Have a nice day.  *
        *                                                           *
        *************************************************************


Done Job For Fragment 0
calling putenv with: QCSCRATCH=/global/cscratch1/sd/meili 
calling putenv with: QCLOCALSCR=/tmp 
calling putenv with: QCTHREADS=32 
Creating input file /tmp/qchem3101/Frg2.input
using default PutDataFrgm: nothing
calling putenv with: QCSCRATCH=/tmp/qchem3101/ 
calling putenv with: QCLOCALSCR=/tmp/qchem3101/ 
Spawning Job For Fragment 1
                  Welcome to Q-Chem
     A Quantum Leap Into The Future Of Chemistry


 Q-Chem 5.2, Q-Chem, Inc., Pleasanton, CA (2019)

 License issued to: National Energy Research Scientific Computing Center

 Yihan Shao,  Zhengting Gan,  E. Epifanovsky,  A. T. B. Gilbert,  M. Wormit,  
 J. Kussmann,  A. W. Lange,  A. Behn,  Jia Deng,  Xintian Feng,  D. Ghosh,  
 M. Goldey,  P. R. Horn,  L. D. Jacobson,  I. Kaliman,  T. Kus,  A. Landau,  
 Jie Liu,  E. I. Proynov,  R. M. Richard,  R. P. Steele,  E. J. Sundstrom,  
 H. L. Woodcock III,  P. M. Zimmerman,  D. Zuev,  B. Albrecht,  E. Alguire,  
 S. A. Baeppler,  D. Barton,  Z. Benda,  Y. A. Bernard,  E. J. Berquist,  
 K. B. Bravaya,  H. Burton,  D. Casanova,  Chun-Min Chang,  Yunqing Chen,  
 A. Chien,  K. D. Closser,  M. P. Coons,  S. Coriani,  S. Dasgupta,  
 A. L. Dempwolff,  M. Diedenhofen,  Hainam Do,  R. G. Edgar,  Po-Tung Fang,  
 S. Faraji,  S. Fatehi,  Qingguo Feng,  K. D. Fenk,  J. Fosso-Tande,  
 J. Gayvert,  Qinghui Ge,  A. Ghysels,  G. Gidofalvi,  J. Gomes,  
 J. Gonthier,  A. Gunina,  D. Hait,  M. W. D. Hanson-Heine,  
 P. H. P. Harbach,  A. W. Hauser,  M. F. Herbst,  J. E. Herr,  
 E. G. Hohenstein,  Z. C. Holden,  Kerwin Hui,  B. C. Huynh,  T.-C. Jagau,  
 Hyunjun Ji,  B. Kaduk,  K. Khistyaev,  Jaehoon Kim,  P. Klunzinger,  K. Koh,  
 D. Kosenkov,  L. Koulias,  T. Kowalczyk,  C. M. Krauter,  A. Kunitsa,  
 Ka Un Lao,  A. Laurent,  K. V. Lawler,  Joonho Lee,  D. Lefrancois,  
 S. Lehtola,  D. S. Levine,  Yi-Pei Li,  You-Sheng Lin,  Fenglai Liu,  
 E. Livshits,  A. Luenser,  P. Manohar,  E. Mansoor,  S. F. Manzer,  
 Shan-Ping Mao,  Yuezhi Mao,  N. Mardirossian,  A. V. Marenich,  
 T. Markovich,  L. A. Martinez-Martinez,  S. A. Maurer,  N. J. Mayhall,  
 S. C. McKenzie,  J.-M. Mewes,  P. Morgante,  A. F. Morrison,  
 J. W. Mullinax,  K. Nanda,  T. S. Nguyen-Beck,  R. Olivares-Amaya,  
 J. A. Parkhill,  Zheng Pei,  T. M. Perrine,  F. Plasser,  P. Pokhilko,  
 S. Prager,  A. Prociuk,  E. Ramos,  D. R. Rehn,  F. Rob,  M. Scheurer,  
 M. Schneider,  N. Sergueev,  S. M. Sharada,  S. Sharma,  D. W. Small,  
 T. Stauch,  T. Stein,  Yu-Chuan Su,  A. J. W. Thom,  A. Tkatchenko,  
 T. Tsuchimochi,  N. M. Tubman,  L. Vogt,  M. L. Vidal,  O. Vydrov,  
 M. A. Watson,  J. Wenzel,  M. de Wergifosse,  T. A. Wesolowski,  A. White,  
 J. Witte,  A. Yamada,  Jun Yang,  K. Yao,  S. Yeganeh,  S. R. Yost,  
 Zhi-Qiang You,  A. Zech,  Igor Ying Zhang,  Xing Zhang,  Yan Zhao,  
 Ying Zhu,  B. R. Brooks,  G. K. L. Chan,  C. J. Cramer,  M. S. Gordon,  
 W. J. Hehre,  A. Klamt,  M. W. Schmidt,  C. D. Sherrill,  D. G. Truhlar,  
 A. Aspuru-Guzik,  R. Baer,  A. T. Bell,  N. A. Besley,  Jeng-Da Chai,  
 A. E. DePrince, III,  R. A. DiStasio Jr.,  A. Dreuw,  B. D. Dunietz,  
 T. R. Furlani,  Chao-Ping Hsu,  Yousung Jung,  Jing Kong,  D. S. Lambrecht,  
 WanZhen Liang,  C. Ochsenfeld,  V. A. Rassolov,  L. V. Slipchenko,  
 J. E. Subotnik,  T. Van Voorhis,  J. M. Herbert,  A. I. Krylov,  
 P. M. W. Gill,  M. Head-Gordon

 Contributors to earlier versions of Q-Chem not listed above: 
 R. D. Adamson,  B. Austin,  J. Baker,  G. J. O. Beran,  K. Brandhorst,  
 S. T. Brown,  E. F. C. Byrd,  A. K. Chakraborty,  C.-L. Cheng,  
 Siu Hung Chien,  D. M. Chipman,  D. L. Crittenden,  H. Dachsel,  
 R. J. Doerksen,  A. D. Dutoi,  L. Fusti-Molnar,  W. A. Goddard III,  
 A. Golubeva-Zadorozhnaya,  S. R. Gwaltney,  G. Hawkins,  A. Heyden,  
 S. Hirata,  G. Kedziora,  F. J. Keil,  C. Kelley,  Jihan Kim,  R. A. King,  
 R. Z. Khaliullin,  P. P. Korambath,  W. Kurlancheek,  A. M. Lee,  M. S. Lee,  
 S. V. Levchenko,  Ching Yeh Lin,  D. Liotard,  R. C. Lochan,  I. Lotan,  
 P. E. Maslen,  N. Nair,  D. P. O'Neill,  D. Neuhauser,  E. Neuscamman,  
 C. M. Oana,  R. Olson,  B. Peters,  R. Peverati,  P. A. Pieniazek,  
 Y. M. Rhee,  J. Ritchie,  M. A. Rohrdanz,  E. Rosta,  N. J. Russ,  
 H. F. Schaefer III,  N. E. Schultz,  N. Shenvi,  A. C. Simmonett,  A. Sodt,  
 D. Stuck,  K. S. Thanthiriwatte,  V. Vanovschi,  Tao Wang,  A. Warshel,  
 C. F. Williams,  Q. Wu,  X. Xu,  W. Zhang

 Please cite Q-Chem as follows:
 Y. Shao et al., Mol. Phys. 113, 184-215 (2015)
 DOI: 10.1080/00268976.2014.952696

 Q-Chem 5.2.0 for Intel X86 EM64T Linux

 Parts of Q-Chem use Armadillo 8.300.2 (Tropical Shenanigans).
 http://arma.sourceforge.net/

 Q-Chem begins on Mon Sep 27 03:35:35 2021  

Host: cori01
0

     Scratch files written to /tmp/qchem3101//Frg2//
 May1019 |scratch|qcdevops|jenkins|workspace|build_RNUM -1
Processing $rem in /global/common/cori/software/qchem/5.2/config/preferences:
	 MEM_TOTAL  96000 
NAlpha2: 32
NElect   32
Mult     1
Symmetry turned off for PCM/SM12/SMD calculation

Checking the input file for inconsistencies... 	...done.

--------------------------------------------------------------
User input:
--------------------------------------------------------------
$molecule
-1 1
 6	1.1130182854	3.0484970630	2.5104777219
 6	2.2080182854	1.9964970630	2.4664777219
 8	2.5820182854	1.4754970630	3.5374777219
 8	2.6790182854	1.6814970630	1.3514777219
 1	0.2360182854	2.6204970630	2.9994777219
 1	0.8270182854	3.3054970630	1.4944777219
 1	1.4227232854	3.9538970630	3.0529977219
$end
$rem
EDA2		1
METHOD		WB97X-V
BASIS		DEF2-TZVPD
XC_GRID		000099000590
NL_GRID		1
UNRESTRICTED		FALSE
MAX_SCF_CYCLES		200
SYMMETRY		FALSE
SYM_IGNORE		TRUE
BASIS_LIN_DEP_THRESH		6
THRESH		14
SCF_CONVERGENCE		8
SCF_PRINT_FRGM		TRUE
SOLVENT_METHOD		PCM
!required keywords
JOBTYPE		SP
SYM_IGNORE		TRUE
SUBSYSTEM		TRUE
GEN_SCFMAN		TRUE
CHILD_INSTRUCTION		2
SYM_IGNORE		TRUE
SCFMI		0
RI_K 0		
PARI_K 0		
MIN_PARI_K 0		
IARI_K 0		
OCC_RI_K 0		
PURECART		1111
MEM_STATIC		2000
MEM_TOTAL		96000
GUI		0
CHILD_MP		1
CHILD_MP_ORDERS		232
FRZ_RELAX		0
FRZ_RELAX_METHOD		0
EDA_CLS_ELEC		1
EDA_CLS_DISP		0
FRZ_ORTHO_DECOMP		1
EDA2		FALSE
FRGM_METHOD		FALSE
CIS_N_ROOTS  0
LOCAL_CIS    0
CIS_RLX_DNS  1
$end
$pcm
THEORY                  CPCM
METHOD                  SWIG
SOLVER                  INVERSION
RADII                   UFF
HPOINTS                 302
HEAVYPOINTS             302
PRINTLEVEL              0
$end
$solvent
DIELECTRIC              78.390000 ! water
$end
--------------------------------------------------------------
 ----------------------------------------------------------------
             Standard Nuclear Orientation (Angstroms)
    I     Atom           X                Y                Z
 ----------------------------------------------------------------
    1      C       1.1130182854     3.0484970630     2.5104777219
    2      C       2.2080182854     1.9964970630     2.4664777219
    3      O       2.5820182854     1.4754970630     3.5374777219
    4      O       2.6790182854     1.6814970630     1.3514777219
    5      H       0.2360182854     2.6204970630     2.9994777219
    6      H       0.8270182854     3.3054970630     1.4944777219
    7      H       1.4227232854     3.9538970630     3.0529977219
 ----------------------------------------------------------------
 Nuclear Repulsion Energy =         112.82435569 hartrees
 There are       16 alpha and       16 beta electrons
 Requested basis set is def2-TZVPD
 There are 69 shells and 181 basis functions

 Total QAlloc Memory Limit  96000 MB
 Mega-Array Size      1956 MB
 MEM_STATIC part      2000 MB
 Discretize the solute cavity surface with Lebedev spheres
	Using 302 Lebedev grid points for each H atom
	Using 302 Lebedev grid points for other atoms
	Atomic van der Waals radii will be scaled by 1.20
 Remove points where switching function is < 1.0e-08
 Keep 1009 surface tesserae and discard 1105 interior tesserae
 Molecular Surface Area = 120.058 Angst**2

                       Distance Matrix (Angstroms)
             C (  1)   C (  2)   O (  3)   O (  4)   H (  5)   H (  6)
   C (  2)  1.519100
   O (  3)  2.384747  1.248342
   O (  4)  2.379984  1.250716  2.197826
   H (  5)  1.091528  2.135942  2.665368  3.092875
   H (  6)  1.086325  2.136686  3.256190  2.467332  1.755999
   H (  7)  1.099997  2.189089  2.778696  3.104392  1.785802  1.790048

 
 A cutoff of  1.0D-14 yielded   2390 shell pairs
 There are     16694 function pairs (     21490 Cartesian)
 Smallest overlap matrix eigenvalue = 1.61E-05

 Scale SEOQF with 1.000000e-01/1.000000e-01/1.000000e-01

 Standard Electronic Orientation quadrupole field applied
 Nucleus-field energy     =    -0.0000000062 hartrees
 Guess from superposition of atomic densities
 Warning:  Energy on first SCF cycle will be non-variational
 SAD guess density has 30.625312 electrons

 -----------------------------------------------------------------------
  General SCF calculation program by
  Eric Jon Sundstrom, Paul Horn, Yuezhi Mao, Dmitri Zuev, Alec White,
  David Stuck, Shaama M.S., Shane Yost, Joonho Lee, David Small,
  Daniel Levine, Susi Lehtola, Hugh Burton, Evgeny Epifanovsky
 -----------------------------------------------------------------------
 Exchange:     0.1670 Hartree-Fock + 1.0000 wB97X-V + LR-HF
 Correlation:  1.0000 wB97X-V
 Using Euler-Maclaurin-Lebedev (99,590) quadrature formula
 Nonlocal Correlation:  VV10 with C = 0.0100 and b = 6.00 and scale = 1.00000
 Grid used for NLC:  SG-1 standard quadrature
Energy prior to optimization (guess energy) = -227.764983750085
Begin Timing: Total SCF Calculation
begin iterations for algorithm: DIIS         
the SCF tolerance is set to 1.00e-08
    1    -227.7649837501      1.66e-02     00000 
    2    -225.6000075724      2.54e-02     00000 
    3    -228.5763606367      4.16e-03     00000 
    4    -228.6353511304      1.46e-03     00000 
    5    -228.6417944314      3.90e-04     00000 
    6    -228.6421707982      2.56e-04     00000 
    7    -228.6423595848      4.47e-05     00000 
    8    -228.6423695575      1.37e-05     00000 
    9    -228.6423708394      2.84e-06     00000 
   10    -228.6423709420      4.97e-07     00000 
   11    -228.6423709449      2.39e-07     00000 
   12    -228.6423709454      5.97e-08     00000 
   13    -228.6423709455      1.69e-08     00000 
   14    -228.6423709455      2.66e-09     00000 Convergence criterion met
Timing for Total SCF: 273.00s (wall), 532.83s (cpu)

************** Final PCM Free Energy Summary **************
 G_electrostatic  =      -0.10174054 hartree =     -63.84315160 kcal/mol
 G_cavitation     =       0.00000000 hartree =       0.00000000 kcal/mol
 G_dispersion     =       0.00000000 hartree =       0.00000000 kcal/mol
 G_repulsion      =       0.00000000 hartree =       0.00000000 kcal/mol
 --------------------------------------------------
 Non-electrostatic Free Energy =       0.00000000 hartree =       0.00000000 kcal/mol
 Total                         =      -0.10174054 hartree =     -63.84315160 kcal/mol
 --------------------------------------------------
 SCF Energy (H0 + V/2)                       =    -228.64237095 
 Solute Internal Energy (H0)                 =    -228.54063041 
 Total Free Energy (H0 + V/2 + non-elec)     =    -228.64237095 hartree
                                             = -143475.25324019 kcal/mol
***********************************************************

E_pcm = -0.1017405387
Multipole orders to be included
        2
        3
computing dipole RHS
computing quadrupole RHS
total number of RHS in solve_reponses: 8
RHS batch sizes
        8
Beginning Block Conjugate Gradient Iterations. Batch Number: 0
computing hessian-vector products by finite difference
              1      7.34e-01     00000 Conjugate Gradient Iteration
computing hessian-vector products by finite difference
              2      2.62e-01     00000 Conjugate Gradient Iteration
computing hessian-vector products by finite difference
              3      7.02e-02     00000 Conjugate Gradient Iteration
computing hessian-vector products by finite difference
              4      1.89e-02     00000 Conjugate Gradient Iteration
computing hessian-vector products by finite difference
              5      3.34e-03     00000 Conjugate Gradient Iteration
computing hessian-vector products by finite difference
              6      8.10e-04     00000 Conjugate Gradient Iteration
computing hessian-vector products by finite difference
              7      1.32e-04     00000 Conjugate Gradient Iteration
computing hessian-vector products by finite difference
              8      1.60e-05     00000 Conjugate Gradient Iteration
computing hessian-vector products by finite difference
              9      2.50e-06     00000 Conjugate Gradient Iteration
computing hessian-vector products by finite difference
             10      2.78e-07     00000 Conjugate Gradient Iteration
computing hessian-vector products by finite difference
             11      8.30e-08     00000 Conjugate Gradient Iteration
computing hessian-vector products by finite difference
             12      1.57e-08     00000 Conjugate Gradient Iteration
computing hessian-vector products by finite difference
             13      1.71e-09     00000 CG Converged
batch 0 complete
Done Calculating Responses
TESTING ORTHOGONALIZATION OF MULTIPOLE BASIS
Multipole virts passed orthogonality test
Virts Per Order
        48
        80
 
 --------------------------------------------------------------
 
                    Orbital Energies (a.u.)
 --------------------------------------------------------------
 
 Alpha MOs
 -- Occupied --
-19.1214 -19.1210 -10.3237 -10.2382  -1.1328  -1.0320  -0.8289  -0.5917
 -0.5298  -0.5183  -0.5151  -0.4624  -0.4439  -0.3291  -0.3255  -0.3084
 -- Virtual --
  0.0633   0.0954   0.0960   0.1052   0.1304   0.1411   0.1436   0.1448
  0.1683   0.1906   0.1989   0.2243   0.2304   0.2366   0.2643   0.2690
  0.2978   0.3147   0.3344   0.3476   0.3532   0.3615   0.3754   0.3858
  0.3941   0.4040   0.4243   0.4288   0.4323   0.4609   0.4735   0.4761
  0.4941   0.5011   0.5071   0.5188   0.5627   0.5807   0.5998   0.6151
  0.6172   0.6366   0.6466   0.6665   0.6741   0.6809   0.6926   0.7152
  0.7237   0.7372   0.7731   0.8007   0.8095   0.8174   0.8500   0.8617
  0.8684   0.9777   0.9922   0.9944   1.0008   1.0556   1.0590   1.1333
  1.1900   1.2070   1.2646   1.2839   1.2944   1.3204   1.3503   1.3513
  1.4550   1.5837   1.6109   1.7387   1.8261   1.8643   1.8706   1.9221
  1.9327   1.9546   1.9633   1.9795   2.0127   2.1219   2.1416   2.1788
  2.2094   2.2265   2.3321   2.3550   2.4104   2.4449   2.4932   2.5064
  2.5789   2.5949   2.6159   2.6661   2.7991   2.8235   2.8962   2.9322
  2.9581   2.9900   3.0382   3.1872   3.2102   3.2603   3.2898   3.3188
  3.3421   3.3580   3.4042   3.4141   3.4397   3.5629   3.5730   3.5816
  3.6360   3.6471   3.7073   3.7397   3.7912   3.9086   3.9450   4.0666
  4.0940   4.1940   4.3513   4.5245   4.6589   4.6718   4.8116   4.8528
  4.9955   5.3336   5.3605   5.3711   5.3769   5.5071   5.7219   5.7743
  5.8262   6.0306   6.2479   6.3498   6.3579   6.6317   6.6324   6.7222
  6.7467   6.7627   6.9671   6.9804   7.0455   7.2529   7.3648   7.3945
  7.4204  22.5997  23.7567  44.2201  44.3509
 --------------------------------------------------------------
 
          Ground-State Mulliken Net Atomic Charges

     Atom                 Charge (a.u.)
  ----------------------------------------
      1 C                    -0.400128
      2 C                     0.291772
      3 O                    -0.678679
      4 O                    -0.675215
      5 H                     0.148929
      6 H                     0.157061
      7 H                     0.156259
  ----------------------------------------
  Sum of atomic charges =    -1.000000

 -----------------------------------------------------------------
                    Cartesian Multipole Moments
 -----------------------------------------------------------------
    Charge (ESU x 10^10)
                -4.8032
    Dipole Moment (Debye)
         X     -13.8210      Y      -6.4507      Z     -11.6994
       Tot      19.2226
    Quadrupole Moments (Debye-Ang)
        XX     -65.2867     XY     -18.5463     YY     -34.2464
        XZ     -33.1866     YZ     -14.6549     ZZ     -64.5843
    Octopole Moments (Debye-Ang^2)
       XXX    -273.3431    XXY    -108.5097    XYY     -77.0533
       YYY    -173.5008    XXZ    -157.2341    XYZ     -41.4296
       YYZ     -80.1910    XZZ    -160.0015    YZZ    -104.1514
       ZZZ    -336.7678
    Hexadecapole Moments (Debye-Ang^3)
      XXXX   -1100.6807   XXXY    -458.7964   XXYY    -335.1123
      XYYY    -325.8281   YYYY    -804.9161   XXXZ    -657.5856
      XXYZ    -253.1551   XYYZ    -175.2995   YYYZ    -410.7344
      XXZZ    -600.6418   XYZZ    -236.6148   YYZZ    -369.5435
      XZZZ    -780.7400   YZZZ    -597.4043   ZZZZ   -1640.5969
 -----------------------------------------------------------------
Archival summary:
1\1\nid00561\SP\ProcedureUnspecified\BasisUnspecified\223(1-,1)\meili\MonSep2704:51:112021MonSep2704:51:112021\0\\#,ProcedureUnspecified,BasisUnspecified,\\-1,1\C\O,1,1.24834\O,1,1.25072,2,123.155\C,1,1.5191,2,118.694,3,178.995,0\H,4,1.08632,1,109.058,2,-173.173,0\H,4,1.09153,1,108.698,2,-56.2843,0\H,4,1.1,1,112.417,2,64.66,0\\\@

 Total job time:  4540.14s(wall), 8872.42s(cpu) 
 Mon Sep 27 04:51:15 2021

        *************************************************************
        *                                                           *
        *  Thank you very much for using Q-Chem.  Have a nice day.  *
        *                                                           *
        *************************************************************


Done Job For Fragment 1
calling putenv with: QCSCRATCH=/global/cscratch1/sd/meili 
calling putenv with: QCLOCALSCR=/tmp 
calling putenv with: QCTHREADS=32 
Doing General SCFMI
 Exchange:     0.1670 Hartree-Fock + 1.0000 wB97X-V + LR-HF
 Correlation:  1.0000 wB97X-V
 Using Euler-Maclaurin-Lebedev (99,590) quadrature formula
 Nonlocal Correlation:  VV10 with C = 0.0100 and b = 6.00 and scale = 1.00000
 Grid used for NLC:  SG-1 standard quadrature
performing fock build before subrot guess so that all methods have access
Printing subrot_rss_gen Method Specification:
Occupied Subspace Method is 0
Virtual Subspace Method is 0
Energy of the unrelaxed supersystem initial determinant -631.714065949703
performing fock build before subrot guess so that all methods have access
Printing subrot_rss_gen Method Specification:
Occupied Subspace Method is 0
Virtual Subspace Method is 0
Energy of the unrelaxed supersystem initial determinant w/ solvent -631.814849166078
write pseudocanon occs and virts to disk
write pseudocanon orbital energies to disk
Tolerance of ortho_decomp_scf: 1.00e-06
GDM subspace size: 20
Beginning the Orthogonal Decomposition of the Initial Supersystem Wavefunction
    1    -631.6925882757      2.03e-02     ortho_decomp Preconditoned Steepest Descent
    2    -631.6944032506      6.40e-04     ortho_decomp BFGS Step
    3    -631.6944107112      3.75e-05     ortho_decomp BFGS Step
    4    -631.6944107184      1.53e-06     ortho_decomp BFGS Step
    5    -631.6944107184      5.99e-08     ortho_decomp 00000 Convergence criterion met
 Hartree-Fock
 Hartree-Fock
 Hartree-Fock
Doing General SCFMI
 Exchange:     0.1670 Hartree-Fock + 1.0000 wB97X-V + LR-HF
 Correlation:  1.0000 wB97X-V
 Using Euler-Maclaurin-Lebedev (99,590) quadrature formula
 Nonlocal Correlation:  VV10 with C = 0.0100 and b = 6.00 and scale = 1.00000
 Grid used for NLC:  SG-1 standard quadrature
performing fock build at end of subrot_r(subrot) constructor so that all methods have access
<S^2> of initial wavefunction before polarization iterations 0.0000000000
Beginning iterations for the determination of the polarized wavefunction
Energy prior to optimization (guess energy) = -631.814849166078
Begin Timing: Total SCF Calculation
begin iterations for algorithm: DIIS         
the SCF tolerance is set to 1.00e-08
    1    -631.8148491661      4.20e-05     00000 
    2    -631.8150517216      2.30e-05     00000 
    3    -631.8150774360      1.30e-05     00000 
    4    -631.8150876404      3.68e-06     00000 
    5    -631.8150884597      2.07e-06     00000 
    6    -631.8150887244      6.99e-07     00000 
    7    -631.8150887597      3.91e-07     00000 
    8    -631.8150887674      1.75e-07     00000 
    9    -631.8150887687      8.18e-08     00000 
   10    -631.8150887690      3.23e-08     00000 
   11    -631.8150887691      1.15e-08     00000 
   12    -631.8150887691      5.51e-09     00000 Convergence criterion met
write pseudocanon occs and virts to disk
write pseudocanon orbital energies to disk
Timing for Total SCF: 7461.00s (wall), 14854.11s (cpu)
<S^2> of polarized wavefunction after polarization iterations 0.0000000000
relaxing scfmi constraint to allow all rotations in the entire AO span
Doing General SCFMI
 Exchange:     0.1670 Hartree-Fock + 1.0000 wB97X-V + LR-HF
 Correlation:  1.0000 wB97X-V
 Using Euler-Maclaurin-Lebedev (99,590) quadrature formula
 Nonlocal Correlation:  VV10 with C = 0.0100 and b = 6.00 and scale = 1.00000
 Grid used for NLC:  SG-1 standard quadrature
performing fock build at end of subrot_r(subrot) constructor so that all methods have access
<S^2> of polarized wavefunction before ct-allowed iterations 0.0000000000
Beginning iterations for the determination of the CT-Allowed wavefunction
Energy prior to optimization (guess energy) = -631.815088769117
Begin Timing: Total SCF Calculation
begin iterations for algorithm: DIIS         
the SCF tolerance is set to 1.00e-08
    1    -631.8150887691      5.91e-05     00000 
    2    -631.8156604107      5.63e-06     00000 
    3    -631.8156765857      1.37e-06     00000 
    4    -631.8156770282      1.47e-06     00000 
    5    -631.8156773275      1.72e-07     00000 
    6    -631.8156773371      1.10e-07     00000 
    7    -631.8156773401      2.65e-08     00000 
    8    -631.8156773404      1.09e-08     00000 
    9    -631.8156773404      3.01e-09     00000 Convergence criterion met
write pseudocanon occs and virts to disk
write pseudocanon orbital energies to disk
Timing for Total SCF: 6624.00s (wall), 13179.24s (cpu)
<S^2> of ct_allowed wavefunction after ct-allowed iterations 0.0000000000

================================
        Results of EDA2         
================================
Basic EDA Quantities
--------------------
Fragment Energies (Ha):
1 -403.1701586123
2 -228.6423709455
--------------------
  E_prp (kJ/mol) = -0.0000
  E_sol (kJ/mol) = 19.2320
  E_frz (kJ/mol) = -25.3222
  E_pol (kJ/mol) = -0.6291
  E_vct (kJ/mol) = -1.5453
  E_int (kJ/mol) = -8.2646
--------------------


Initial Wavefunction Decomposition
--------------------
  --------------------
  Orthogonal Fragment Subspace Decomposition:
  --------------------
     E_elec   (ELEC)   (kJ/mol) = -34.3147
     E_pauli  (PAULI)  (kJ/mol) = 20.1726
     E_disp   (DISP)   (kJ/mol) = -11.1801
     --------------------
     Terms summing to E_pauli:
     --------------------
        E_kep_pauli       (kJ/mol) = 26.2832
        E_disp_free_pauli (kJ/mol) = -6.1106
  --------------------
  Classical Frozen Decomposition:
  --------------------
     E_cls_elec  (CLS ELEC)  (kJ/mol) = -24.5376
     E_cls_pauli (CLS PAULI) (kJ/mol) = -0.7847
    [E_mod_pauli (MOD PAULI) (kJ/mol) = 10.3955 (CLS PAULI - DISP from orthogonal decomposition) ]
  --------------------
--------------------

Simplified EDA Summary (kJ/mol)
--------------------
 PREPARATION     -0.0000
 SOLVATION       19.2320
 FROZEN          -14.1421      (does not include dispersion)
[PAULI           20.1726]     (if this is negligible, then frozen describes electrostatics)
 DISPERSION      -11.1801
 POLARIZATION    -0.6291
 CHARGE TRANSFER -1.5453
 TOTAL           -8.2646     (PRP + SOL + FRZ + DISP + POL + CT)
--------------------
 
 --------------------------------------------------------------
 
                    Orbital Energies (a.u.)
 --------------------------------------------------------------
 
 Alpha MOs
 -- Occupied --
-19.1228 -19.1221 -14.4471 -10.3249 -10.2986 -10.2940 -10.2689 -10.2660
-10.2652 -10.2639 -10.2629 -10.2618 -10.2601 -10.2401  -1.1340  -1.1139
 -1.0332  -0.9772  -0.9300  -0.8668  -0.8597  -0.8310  -0.8163  -0.7443
 -0.7125  -0.6755  -0.6500  -0.5984  -0.5931  -0.5816  -0.5535  -0.5502
 -0.5393  -0.5263  -0.5196  -0.5165  -0.5152  -0.5116  -0.4931  -0.4801
 -0.4638  -0.4512  -0.4502  -0.4454  -0.4301  -0.3762  -0.3298  -0.3267
 -0.3138  -0.3094  -0.2905
 -- Virtual --
  0.0557   0.0562   0.0677   0.0725   0.0850   0.0874   0.0930   0.0960
  0.0990   0.1100   0.1167   0.1251   0.1267   0.1364   0.1375   0.1440
  0.1477   0.1512   0.1555   0.1566   0.1657   0.1703   0.1783   0.1830
  0.1875   0.1957   0.1983   0.2040   0.2090   0.2158   0.2217   0.2282
  0.2292   0.2349   0.2363   0.2455   0.2534   0.2601   0.2617   0.2662
  0.2707   0.2714   0.2745   0.2821   0.2839   0.2866   0.2885   0.2909
  0.2969   0.3003   0.3114   0.3121   0.3195   0.3204   0.3216   0.3260
  0.3320   0.3337   0.3373   0.3383   0.3415   0.3472   0.3514   0.3547
  0.3564   0.3592   0.3687   0.3690   0.3715   0.3772   0.3803   0.3860
  0.3864   0.3904   0.3924   0.3978   0.4003   0.4045   0.4101   0.4148
  0.4160   0.4198   0.4222   0.4237   0.4333   0.4377   0.4397   0.4404
  0.4503   0.4511   0.4534   0.4589   0.4608   0.4656   0.4679   0.4751
  0.4821   0.4829   0.4882   0.4892   0.4919   0.4957   0.5002   0.5072
  0.5130   0.5180   0.5240   0.5279   0.5310   0.5337   0.5389   0.5435
  0.5450   0.5488   0.5563   0.5611   0.5644   0.5733   0.5745   0.5807
  0.5871   0.5923   0.5945   0.5955   0.6003   0.6066   0.6102   0.6191
  0.6310   0.6359   0.6390   0.6431   0.6474   0.6496   0.6536   0.6594
  0.6645   0.6684   0.6719   0.6746   0.6785   0.6845   0.6907   0.6985
  0.7011   0.7044   0.7098   0.7143   0.7179   0.7230   0.7253   0.7364
  0.7426   0.7447   0.7490   0.7540   0.7556   0.7593   0.7612   0.7698
  0.7729   0.7790   0.7800   0.7851   0.7867   0.7905   0.7927   0.7964
  0.8026   0.8060   0.8077   0.8095   0.8185   0.8212   0.8258   0.8299
  0.8361   0.8390   0.8439   0.8490   0.8536   0.8629   0.8685   0.8743
  0.8776   0.8820   0.8822   0.8849   0.8923   0.8985   0.9075   0.9127
  0.9196   0.9240   0.9319   0.9410   0.9414   0.9536   0.9639   0.9829
  0.9853   0.9905   1.0030   1.0073   1.0173   1.0198   1.0282   1.0301
  1.0465   1.0486   1.0596   1.0695   1.0738   1.0850   1.0943   1.1072
  1.1114   1.1235   1.1290   1.1327   1.1465   1.1486   1.1673   1.1697
  1.1837   1.1866   1.1889   1.2029   1.2159   1.2267   1.2355   1.2511
  1.2635   1.2713   1.2797   1.2836   1.2973   1.3205   1.3273   1.3305
  1.3376   1.3490   1.3559   1.3747   1.3802   1.3861   1.4011   1.4067
  1.4127   1.4261   1.4421   1.4535   1.4668   1.4696   1.4960   1.5074
  1.5347   1.5543   1.5672   1.5772   1.5893   1.6063   1.6091   1.6310
  1.6429   1.6525   1.6665   1.6803   1.6963   1.7178   1.7370   1.7455
  1.7637   1.7741   1.8146   1.8209   1.8328   1.8531   1.8646   1.8693
  1.8854   1.8865   1.8935   1.9003   1.9128   1.9159   1.9354   1.9368
  1.9494   1.9549   1.9586   1.9662   1.9716   1.9845   1.9909   1.9957
  1.9986   2.0108   2.0160   2.0172   2.0185   2.0393   2.0450   2.0573
  2.0748   2.0892   2.1028   2.1046   2.1383   2.1386   2.1499   2.1812
  2.1842   2.1953   2.2059   2.2138   2.2235   2.2304   2.2408   2.2689
  2.2831   2.3077   2.3135   2.3198   2.3318   2.3484   2.3518   2.3575
  2.3723   2.3922   2.4032   2.4382   2.4420   2.4501   2.4690   2.4771
  2.5057   2.5104   2.5155   2.5201   2.5234   2.5426   2.5495   2.5785
  2.5959   2.6089   2.6099   2.6166   2.6317   2.6496   2.6546   2.6637
  2.6722   2.6940   2.7036   2.7263   2.7332   2.7685   2.7793   2.7862
  2.7894   2.8047   2.8182   2.8289   2.8304   2.8420   2.8519   2.8567
  2.8714   2.8903   2.9005   2.9035   2.9216   2.9265   2.9392   2.9516
  2.9603   2.9699   2.9857   2.9996   3.0040   3.0227   3.0403   3.0532
  3.0568   3.0653   3.0784   3.0880   3.1139   3.1268   3.1349   3.1415
  3.1594   3.1608   3.1907   3.2045   3.2132   3.2255   3.2334   3.2408
  3.2494   3.2539   3.2713   3.2865   3.2944   3.3023   3.3148   3.3170
  3.3244   3.3301   3.3525   3.3593   3.3670   3.3780   3.3830   3.3958
  3.4008   3.4191   3.4233   3.4339   3.4366   3.4514   3.4589   3.4634
  3.4664   3.4754   3.4850   3.4952   3.5043   3.5158   3.5275   3.5336
  3.5483   3.5638   3.5745   3.5841   3.5965   3.6050   3.6118   3.6188
  3.6264   3.6298   3.6412   3.6532   3.6620   3.6704   3.6715   3.6922
  3.7070   3.7180   3.7212   3.7265   3.7363   3.7467   3.7571   3.7717
  3.7761   3.7823   3.8060   3.8239   3.8260   3.8698   3.8845   3.9200
  3.9254   3.9369   3.9518   3.9599   3.9806   4.0536   4.0558   4.0714
  4.0898   4.1072   4.1160   4.1548   4.1872   4.2026   4.2091   4.2185
  4.2591   4.2627   4.2847   4.2925   4.3107   4.3262   4.3594   4.3640
  4.3732   4.3827   4.4209   4.4274   4.4429   4.4752   4.4903   4.5259
  4.5504   4.5905   4.6183   4.6496   4.6554   4.6661   4.6726   4.6917
  4.7600   4.7812   4.8214   4.8342   4.8455   4.8733   4.9394   4.9497
  4.9714   4.9895   5.0011   5.0080   5.0203   5.0752   5.0890   5.1280
  5.1375   5.1599   5.2099   5.2295   5.2763   5.3376   5.3662   5.3773
  5.3889   5.4025   5.4136   5.4629   5.5056   5.5102   5.5711   5.6055
  5.6549   5.7239   5.7280   5.7805   5.8211   5.8268   5.8383   5.9619
  5.9836   6.0339   6.2647   6.2894   6.3486   6.3611   6.3660   6.6401
  6.6566   6.7467   6.7822   6.7855   6.9789   7.0170   7.0636   7.2621
  7.3690   7.4002   7.4356  22.6487  22.7090  22.7830  22.9532  22.9720
 22.9922  23.2311  23.2728  23.4697  23.7884  23.8168  32.8804  44.3391
 44.4177
 --------------------------------------------------------------
 
          Ground-State Mulliken Net Atomic Charges

     Atom                 Charge (a.u.)
  ----------------------------------------
      1 C                    -1.008066
      2 C                    -0.519924
      3 C                     0.439180
      4 C                     0.603922
      5 C                    -0.596102
      6 C                    -0.414538
      7 C                    -0.340044
      8 C                    -0.638208
      9 C                    -0.437998
     10 N                     0.193330
     11 H                     0.432642
     12 H                     0.358841
     13 H                     0.148160
     14 H                     0.355833
     15 H                     0.248776
     16 H                     0.347849
     17 H                     0.271508
     18 H                     0.261714
     19 H                     0.209268
     20 C                    -0.551920
     21 C                     0.428373
     22 O                    -0.699303
     23 O                    -0.674536
     24 H                     0.174114
     25 H                     0.208621
     26 H                     0.198507
  ----------------------------------------
  Sum of atomic charges =    -1.000000

 -----------------------------------------------------------------
                    Cartesian Multipole Moments
 -----------------------------------------------------------------
    Charge (ESU x 10^10)
                -4.8032
    Dipole Moment (Debye)
         X     -11.6698      Y      -4.7021      Z     -12.7157
       Tot      17.8881
    Quadrupole Moments (Debye-Ang)
        XX    -125.1083     XY     -13.5944     YY     -92.7901
        XZ     -36.2135     YZ     -14.0137     ZZ    -116.5303
    Octopole Moments (Debye-Ang^2)
       XXX     -88.8528    XXY     -57.2435    XYY     -21.5958
       YYY      -0.3397    XXZ     -90.6618    XYZ     -46.2012
       YYZ     -18.4989    XZZ     -96.8431    YZZ     -48.4727
       ZZZ    -159.0574
    Hexadecapole Moments (Debye-Ang^3)
      XXXX   -1831.0982   XXXY    -715.9320   XXYY    -546.1704
      XYYY    -591.3321   YYYY   -1501.1508   XXXZ    -758.1607
      XXYZ    -348.3393   XYYZ    -200.8846   YYYZ    -668.7596
      XXZZ    -973.6968   XYZZ    -311.6297   YYZZ    -743.1939
      XZZZ    -909.4200   YZZZ    -857.4779   ZZZZ   -3101.9341
 -----------------------------------------------------------------
Archival summary:
1\1\nid00561\SP\ProcedureUnspecified\BasisUnspecified\211112(1-,1)\meili\MonSep2711:36:132021MonSep2711:36:132021\0\\#,ProcedureUnspecified,BasisUnspecified,\\-1,1\N\H,1,1.01448\C,1,1.36962,2,125.78\C,1,1.37527,2,124.758,3,-177.876,0\H,4,1.08116,1,125.107,2,-2.80022,0\C,4,1.36029,1,110.202,2,178.147,0\C,3,1.38623,1,130.716,2,2.00731,0\H,7,1.07836,3,120.84,1,-0.319273,0\C,7,1.3811,3,117.806,1,-179.98,0\H,9,1.08117,7,118.957,3,178.856,0\C,9,1.40182,7,121.123,3,-0.126262,0\H,11,1.08304,9,119.321,7,-179.988,0\C,11,1.39265,9,121.041,7,-0.015983,0\H,13,1.07967,11,121.053,9,-179.671,0\C,13,1.40047,11,118.911,9,0.122914,0\C,6,1.49838,4,126.967,1,-179.94,0\H,16,1.09142,6,108.553,4,-18.7883,0\H,16,1.09177,6,108.16,4,-135.173,0\H,16,1.1,6,114.335,4,103.434,0\H,8,2.5812,7,156.871,3,69.9563,0\C,20,1.08632,8,90.887,7,149.74,0\H,21,1.09153,20,107.471,8,-54.932,0\H,21,1.1,20,109.918,8,-173.604,0\C,21,1.5191,20,109.058,8,62.7335,0\O,24,1.24834,21,118.694,20,-173.173,0\O,24,1.25072,21,118.144,20,5.87352,0\\\@

 Total job time:  111197.12s(wall), 48413.23s(cpu) 
 Mon Sep 27 11:36:15 2021

        *************************************************************
        *                                                           *
        *  Thank you very much for using Q-Chem.  Have a nice day.  *
        *                                                           *
        *************************************************************


