
Running Job 1 of 1 SSI-035PHE-047TYR-1_SMD_TZVPD.in
qchem SSI-035PHE-047TYR-1_SMD_TZVPD.in_18394.0 /tmp/qchem18394/ 0
/global/common/cori/software/qchem/5.2/exe/qcprog.exe_s SSI-035PHE-047TYR-1_SMD_TZVPD.in_18394.0 /tmp/qchem18394/
                  Welcome to Q-Chem
     A Quantum Leap Into The Future Of Chemistry


 Q-Chem 5.2, Q-Chem, Inc., Pleasanton, CA (2019)

 License issued to: National Energy Research Scientific Computing Center

 Yihan Shao,  Zhengting Gan,  E. Epifanovsky,  A. T. B. Gilbert,  M. Wormit,  
 J. Kussmann,  A. W. Lange,  A. Behn,  Jia Deng,  Xintian Feng,  D. Ghosh,  
 M. Goldey,  P. R. Horn,  L. D. Jacobson,  I. Kaliman,  T. Kus,  A. Landau,  
 Jie Liu,  E. I. Proynov,  R. M. Richard,  R. P. Steele,  E. J. Sundstrom,  
 H. L. Woodcock III,  P. M. Zimmerman,  D. Zuev,  B. Albrecht,  E. Alguire,  
 S. A. Baeppler,  D. Barton,  Z. Benda,  Y. A. Bernard,  E. J. Berquist,  
 K. B. Bravaya,  H. Burton,  D. Casanova,  Chun-Min Chang,  Yunqing Chen,  
 A. Chien,  K. D. Closser,  M. P. Coons,  S. Coriani,  S. Dasgupta,  
 A. L. Dempwolff,  M. Diedenhofen,  Hainam Do,  R. G. Edgar,  Po-Tung Fang,  
 S. Faraji,  S. Fatehi,  Qingguo Feng,  K. D. Fenk,  J. Fosso-Tande,  
 J. Gayvert,  Qinghui Ge,  A. Ghysels,  G. Gidofalvi,  J. Gomes,  
 J. Gonthier,  A. Gunina,  D. Hait,  M. W. D. Hanson-Heine,  
 P. H. P. Harbach,  A. W. Hauser,  M. F. Herbst,  J. E. Herr,  
 E. G. Hohenstein,  Z. C. Holden,  Kerwin Hui,  B. C. Huynh,  T.-C. Jagau,  
 Hyunjun Ji,  B. Kaduk,  K. Khistyaev,  Jaehoon Kim,  P. Klunzinger,  K. Koh,  
 D. Kosenkov,  L. Koulias,  T. Kowalczyk,  C. M. Krauter,  A. Kunitsa,  
 Ka Un Lao,  A. Laurent,  K. V. Lawler,  Joonho Lee,  D. Lefrancois,  
 S. Lehtola,  D. S. Levine,  Yi-Pei Li,  You-Sheng Lin,  Fenglai Liu,  
 E. Livshits,  A. Luenser,  P. Manohar,  E. Mansoor,  S. F. Manzer,  
 Shan-Ping Mao,  Yuezhi Mao,  N. Mardirossian,  A. V. Marenich,  
 T. Markovich,  L. A. Martinez-Martinez,  S. A. Maurer,  N. J. Mayhall,  
 S. C. McKenzie,  J.-M. Mewes,  P. Morgante,  A. F. Morrison,  
 J. W. Mullinax,  K. Nanda,  T. S. Nguyen-Beck,  R. Olivares-Amaya,  
 J. A. Parkhill,  Zheng Pei,  T. M. Perrine,  F. Plasser,  P. Pokhilko,  
 S. Prager,  A. Prociuk,  E. Ramos,  D. R. Rehn,  F. Rob,  M. Scheurer,  
 M. Schneider,  N. Sergueev,  S. M. Sharada,  S. Sharma,  D. W. Small,  
 T. Stauch,  T. Stein,  Yu-Chuan Su,  A. J. W. Thom,  A. Tkatchenko,  
 T. Tsuchimochi,  N. M. Tubman,  L. Vogt,  M. L. Vidal,  O. Vydrov,  
 M. A. Watson,  J. Wenzel,  M. de Wergifosse,  T. A. Wesolowski,  A. White,  
 J. Witte,  A. Yamada,  Jun Yang,  K. Yao,  S. Yeganeh,  S. R. Yost,  
 Zhi-Qiang You,  A. Zech,  Igor Ying Zhang,  Xing Zhang,  Yan Zhao,  
 Ying Zhu,  B. R. Brooks,  G. K. L. Chan,  C. J. Cramer,  M. S. Gordon,  
 W. J. Hehre,  A. Klamt,  M. W. Schmidt,  C. D. Sherrill,  D. G. Truhlar,  
 A. Aspuru-Guzik,  R. Baer,  A. T. Bell,  N. A. Besley,  Jeng-Da Chai,  
 A. E. DePrince, III,  R. A. DiStasio Jr.,  A. Dreuw,  B. D. Dunietz,  
 T. R. Furlani,  Chao-Ping Hsu,  Yousung Jung,  Jing Kong,  D. S. Lambrecht,  
 WanZhen Liang,  C. Ochsenfeld,  V. A. Rassolov,  L. V. Slipchenko,  
 J. E. Subotnik,  T. Van Voorhis,  J. M. Herbert,  A. I. Krylov,  
 P. M. W. Gill,  M. Head-Gordon

 Contributors to earlier versions of Q-Chem not listed above: 
 R. D. Adamson,  B. Austin,  J. Baker,  G. J. O. Beran,  K. Brandhorst,  
 S. T. Brown,  E. F. C. Byrd,  A. K. Chakraborty,  C.-L. Cheng,  
 Siu Hung Chien,  D. M. Chipman,  D. L. Crittenden,  H. Dachsel,  
 R. J. Doerksen,  A. D. Dutoi,  L. Fusti-Molnar,  W. A. Goddard III,  
 A. Golubeva-Zadorozhnaya,  S. R. Gwaltney,  G. Hawkins,  A. Heyden,  
 S. Hirata,  G. Kedziora,  F. J. Keil,  C. Kelley,  Jihan Kim,  R. A. King,  
 R. Z. Khaliullin,  P. P. Korambath,  W. Kurlancheek,  A. M. Lee,  M. S. Lee,  
 S. V. Levchenko,  Ching Yeh Lin,  D. Liotard,  R. C. Lochan,  I. Lotan,  
 P. E. Maslen,  N. Nair,  D. P. O'Neill,  D. Neuhauser,  E. Neuscamman,  
 C. M. Oana,  R. Olson,  B. Peters,  R. Peverati,  P. A. Pieniazek,  
 Y. M. Rhee,  J. Ritchie,  M. A. Rohrdanz,  E. Rosta,  N. J. Russ,  
 H. F. Schaefer III,  N. E. Schultz,  N. Shenvi,  A. C. Simmonett,  A. Sodt,  
 D. Stuck,  K. S. Thanthiriwatte,  V. Vanovschi,  Tao Wang,  A. Warshel,  
 C. F. Williams,  Q. Wu,  X. Xu,  W. Zhang

 Please cite Q-Chem as follows:
 Y. Shao et al., Mol. Phys. 113, 184-215 (2015)
 DOI: 10.1080/00268976.2014.952696

 Q-Chem 5.2.0 for Intel X86 EM64T Linux

 Parts of Q-Chem use Armadillo 8.300.2 (Tropical Shenanigans).
 http://arma.sourceforge.net/

 Q-Chem begins on Sun Sep 26 05:41:30 2021  

Host: cori01
0

     Scratch files written to /tmp/qchem18394//
 May1019 |scratch|qcdevops|jenkins|workspace|build_RNUM -1
Processing $rem in /global/common/cori/software/qchem/5.2/config/preferences:
	 MEM_TOTAL  96000 
NAlpha2: 108
NElect   108
Mult     1
Symmetry turned off for PCM/SM12/SMD calculation

 Q-Chem warning in module libgen/rem_setup.C, line 2803:

 Neither GIA nor STOLL is specified by user. Use STOLL as the default


Checking the input file for inconsistencies... 	...done.

--------------------------------------------------------------
User input:
--------------------------------------------------------------
$comment
SSI-035PHE-047TYR-1.pdb
$end

$molecule
0 1
--
0 1
C    3.303903776270   -1.705344081543   -1.745964911149
C   -0.468096223730   -1.906344081543   -1.593964911149
C    0.814903776270   -1.507344081543   -1.921964911149
C   -0.671096223730   -2.922344081543   -0.679964911149
C    1.910903776270   -2.119344081543   -1.336964911149
C    0.412903776270   -3.534344081543   -0.086964911149
C    1.699903776270   -3.150344081543   -0.428964911149
H   -1.317096223730   -1.434344081543   -2.055964911149
H    0.954903776270   -0.713344081543   -2.641964911149
H   -1.674096223730   -3.240344081543   -0.435964911149
H    0.253903776270   -4.325344081543    0.632035088851
H    3.262903776270   -1.372344081543   -2.785964911149
H    3.960903776270   -2.576344081543   -1.717964911149
H    2.540903776270   -3.639344081543    0.035035088851
H    3.731183776270   -0.897054081543   -1.134324911149
--
0 1
C   -2.016096223730    2.215655918457    3.667035088851
C   -0.034096223730    0.989655918457    0.667035088851
C   -0.353096223730    1.942655918457   -0.302964911149
C   -0.565096223730    1.108655918457    1.946035088851
C   -1.418096223730    2.149655918457    2.279035088851
C   -1.205096223730    2.991655918457    0.019035088851
C   -1.737096223730    3.089655918457    1.299035088851
O    0.162903776270    1.833655918457   -1.564964911149
H    0.610903776270    0.161655918457    0.416035088851
H   -0.327096223730    0.352655918457    2.682035088851
H   -1.461096223730    3.725655918457   -0.728964911149
H   -0.282096223730    2.441655918457   -2.177964911149
H   -1.481096223730    1.528655918457    4.326035088851
H   -3.034096223730    1.851655918457    3.585035088851
H   -2.422096223730    3.896655918457    1.520035088851
H   -2.028385223730    3.212545918457    4.131865088851
$end

$rem
JOBTYPE			EDA
EDA2			1
method			wB97X-V
BASIS			def2-TZVPD
XC_GRID			000099000590
NL_GRID			1
UNRESTRICTED		FALSE
MAX_SCF_CYCLES		200
SYMMETRY		FALSE
SYM_IGNORE		TRUE
MEM_STATIC		2000
BASIS_LIN_DEP_THRESH 	6
THRESH 			14
SCF_CONVERGENCE 	8
SCF_PRINT_FRGM 		TRUE
SOLVENT_METHOD          SMD
$end

$SMX
SOLVENT			WATER
$END
--------------------------------------------------------------
 ----------------------------------------------------------------
             Standard Nuclear Orientation (Angstroms)
    I     Atom           X                Y                Z
 ----------------------------------------------------------------
    1      C       3.3039037763    -1.7053440815    -1.7459649111
    2      C      -0.4680962237    -1.9063440815    -1.5939649111
    3      C       0.8149037763    -1.5073440815    -1.9219649111
    4      C      -0.6710962237    -2.9223440815    -0.6799649111
    5      C       1.9109037763    -2.1193440815    -1.3369649111
    6      C       0.4129037763    -3.5343440815    -0.0869649111
    7      C       1.6999037763    -3.1503440815    -0.4289649111
    8      H      -1.3170962237    -1.4343440815    -2.0559649111
    9      H       0.9549037763    -0.7133440815    -2.6419649111
   10      H      -1.6740962237    -3.2403440815    -0.4359649111
   11      H       0.2539037763    -4.3253440815     0.6320350889
   12      H       3.2629037763    -1.3723440815    -2.7859649111
   13      H       3.9609037763    -2.5763440815    -1.7179649111
   14      H       2.5409037763    -3.6393440815     0.0350350889
   15      H       3.7311837763    -0.8970540815    -1.1343249111
   16      C      -2.0160962237     2.2156559185     3.6670350889
   17      C      -0.0340962237     0.9896559185     0.6670350889
   18      C      -0.3530962237     1.9426559185    -0.3029649111
   19      C      -0.5650962237     1.1086559185     1.9460350889
   20      C      -1.4180962237     2.1496559185     2.2790350889
   21      C      -1.2050962237     2.9916559185     0.0190350889
   22      C      -1.7370962237     3.0896559185     1.2990350889
   23      O       0.1629037763     1.8336559185    -1.5649649111
   24      H       0.6109037763     0.1616559185     0.4160350889
   25      H      -0.3270962237     0.3526559185     2.6820350889
   26      H      -1.4610962237     3.7256559185    -0.7289649111
   27      H      -0.2820962237     2.4416559185    -2.1779649111
   28      H      -1.4810962237     1.5286559185     4.3260350889
   29      H      -3.0340962237     1.8516559185     3.5850350889
   30      H      -2.4220962237     3.8966559185     1.5200350889
   31      H      -2.0283852237     3.2125459185     4.1318650889
 ----------------------------------------------------------------
 Nuclear Repulsion Energy =         892.09536905 hartrees
 There are       54 alpha and       54 beta electrons
 Requested basis set is def2-TZVPD
 There are 276 shells and 702 basis functions

 Total QAlloc Memory Limit  96000 MB
 Mega-Array Size      1956 MB
 MEM_STATIC part      2000 MB
 
 Citation of the SMD model:
 Marenich, A.V.; Cramer, C.J.; Truhlar, D.G.
 J. Phys. Chem. B 2009, 113, 6378-6396.
 iSolventCode=           1
 Solvent: water                                                           
 
 vradii
            1           2           3           4           5           6
    1   1.8500000   1.8500000   1.8500000   1.8500000   1.8500000   1.8500000
            7           8           9          10          11          12
    1   1.8500000   1.2000000   1.2000000   1.2000000   1.2000000   1.2000000
           13          14          15          16          17          18
    1   1.2000000   1.2000000   1.2000000   1.8500000   1.8500000   1.8500000
           19          20          21          22          23          24
    1   1.8500000   1.8500000   1.8500000   1.8500000   1.5200000   1.2000000
           25          26          27          28          29          30
    1   1.2000000   1.2000000   1.2000000   1.2000000   1.2000000   1.2000000
           31
    1   1.2000000
 Changing PCM_VDW_RADII to SMD_RADIUS
 Discretize the solute cavity surface with Lebedev spheres
	Using 110 Lebedev grid points for each H atom
	Using 194 Lebedev grid points for other atoms
	Atomic van der Waals radii will be scaled by 1.20
 Remove points where switching function is < 1.0e-08
 Keep 2269 surface tesserae and discard 2401 interior tesserae
 Molecular Surface Area = 270.960 Angst**2
 A cutoff of  1.0D-14 yielded  32187 shell pairs
 There are    208897 function pairs (    263812 Cartesian)
 Smallest overlap matrix eigenvalue = 4.33E-07
 Linear dependence detected in AO basis
 Tighter screening thresholds may be required for diffuse basis sets
 Use S2THRESH > 14 and THRESH = 14 in case of SCF convergence issues
 Number of orthogonalized atomic orbitals = 698
 Maximum deviation from orthogonality = 1.539E-10

 Scale SEOQF with 1.000000e-01/1.000000e-01/1.000000e-01

 Standard Electronic Orientation quadrupole field applied
 Nucleus-field energy     =     0.0000000173 hartrees

 -----------------------------------------------------------------------
  General SCF calculation program by
  Eric Jon Sundstrom, Paul Horn, Yuezhi Mao, Dmitri Zuev, Alec White,
  David Stuck, Shaama M.S., Shane Yost, Joonho Lee, David Small,
  Daniel Levine, Susi Lehtola, Hugh Burton, Evgeny Epifanovsky
 -----------------------------------------------------------------------
================================================================
                 ALMO-EDA with the EDA2 driver                  
================================================================
 The second-generation ALMO-EDA (for DFT):                      
 P. R. Horn, Y. Mao and M. Head-Gordon, PCCP, 18, 23067 (2016)  
 Decomposition of the frozen energy:                            
 P. R. Horn, Y. Mao and M. Head-Gordon, JCP, 144, 114107 (2016) 
 FERF model for polarization:                                   
 P. R. Horn and M. Head-Gordon, JCP, 143, 114111 (2015)         
Using eda2 option set 1
Option set summary: Frozen orbital wavefunction, initial wavefunction decomposition, and nDQ polarization.
--------------------------------
Printing EDA Options
--------------------------------
eda_child_super_basis      0
fragmo_guess_mode          0
child_mp                   1
child_mp_orders            232
cls_elec                   1
cls_disp                   0
scfmi_mode                 1
scfmi_occs                 0
scfmi_virts                0
frz_relax                  0
frz_relax_method           0
dc_pen_start               0
dc_pen_conv                0
dc_pen_increment           0
dc_pen_steps               0
dc_pen_thresh_factor       0
dc_pen_pre_newton_thresh   0
frz_ortho_decomp           1
frz_ortho_decomp_conv      6
frgm_method                2
scfmi_freeze_ss            0
separate_rehyb             0
plot_diff_den              0
eda_nocv                   0
eda_vct_relax              1
disp_free_x                0
disp_free_c                0
eda_bsse                   0
eda_pct_a                  0
eda_covp                   0
--------------------------------
Attempting to make child job directory: /tmp/qchem18394//Frg1/
Attempting to make child job directory: /tmp/qchem18394//Frg2/
Creating input file /tmp/qchem18394/Frg1.input
using default PutDataFrgm: nothing
calling putenv with: QCSCRATCH=/tmp/qchem18394/ 
calling putenv with: QCLOCALSCR=/tmp/qchem18394/ 
Spawning Job For Fragment 0
                  Welcome to Q-Chem
     A Quantum Leap Into The Future Of Chemistry


 Q-Chem 5.2, Q-Chem, Inc., Pleasanton, CA (2019)

 License issued to: National Energy Research Scientific Computing Center

 Yihan Shao,  Zhengting Gan,  E. Epifanovsky,  A. T. B. Gilbert,  M. Wormit,  
 J. Kussmann,  A. W. Lange,  A. Behn,  Jia Deng,  Xintian Feng,  D. Ghosh,  
 M. Goldey,  P. R. Horn,  L. D. Jacobson,  I. Kaliman,  T. Kus,  A. Landau,  
 Jie Liu,  E. I. Proynov,  R. M. Richard,  R. P. Steele,  E. J. Sundstrom,  
 H. L. Woodcock III,  P. M. Zimmerman,  D. Zuev,  B. Albrecht,  E. Alguire,  
 S. A. Baeppler,  D. Barton,  Z. Benda,  Y. A. Bernard,  E. J. Berquist,  
 K. B. Bravaya,  H. Burton,  D. Casanova,  Chun-Min Chang,  Yunqing Chen,  
 A. Chien,  K. D. Closser,  M. P. Coons,  S. Coriani,  S. Dasgupta,  
 A. L. Dempwolff,  M. Diedenhofen,  Hainam Do,  R. G. Edgar,  Po-Tung Fang,  
 S. Faraji,  S. Fatehi,  Qingguo Feng,  K. D. Fenk,  J. Fosso-Tande,  
 J. Gayvert,  Qinghui Ge,  A. Ghysels,  G. Gidofalvi,  J. Gomes,  
 J. Gonthier,  A. Gunina,  D. Hait,  M. W. D. Hanson-Heine,  
 P. H. P. Harbach,  A. W. Hauser,  M. F. Herbst,  J. E. Herr,  
 E. G. Hohenstein,  Z. C. Holden,  Kerwin Hui,  B. C. Huynh,  T.-C. Jagau,  
 Hyunjun Ji,  B. Kaduk,  K. Khistyaev,  Jaehoon Kim,  P. Klunzinger,  K. Koh,  
 D. Kosenkov,  L. Koulias,  T. Kowalczyk,  C. M. Krauter,  A. Kunitsa,  
 Ka Un Lao,  A. Laurent,  K. V. Lawler,  Joonho Lee,  D. Lefrancois,  
 S. Lehtola,  D. S. Levine,  Yi-Pei Li,  You-Sheng Lin,  Fenglai Liu,  
 E. Livshits,  A. Luenser,  P. Manohar,  E. Mansoor,  S. F. Manzer,  
 Shan-Ping Mao,  Yuezhi Mao,  N. Mardirossian,  A. V. Marenich,  
 T. Markovich,  L. A. Martinez-Martinez,  S. A. Maurer,  N. J. Mayhall,  
 S. C. McKenzie,  J.-M. Mewes,  P. Morgante,  A. F. Morrison,  
 J. W. Mullinax,  K. Nanda,  T. S. Nguyen-Beck,  R. Olivares-Amaya,  
 J. A. Parkhill,  Zheng Pei,  T. M. Perrine,  F. Plasser,  P. Pokhilko,  
 S. Prager,  A. Prociuk,  E. Ramos,  D. R. Rehn,  F. Rob,  M. Scheurer,  
 M. Schneider,  N. Sergueev,  S. M. Sharada,  S. Sharma,  D. W. Small,  
 T. Stauch,  T. Stein,  Yu-Chuan Su,  A. J. W. Thom,  A. Tkatchenko,  
 T. Tsuchimochi,  N. M. Tubman,  L. Vogt,  M. L. Vidal,  O. Vydrov,  
 M. A. Watson,  J. Wenzel,  M. de Wergifosse,  T. A. Wesolowski,  A. White,  
 J. Witte,  A. Yamada,  Jun Yang,  K. Yao,  S. Yeganeh,  S. R. Yost,  
 Zhi-Qiang You,  A. Zech,  Igor Ying Zhang,  Xing Zhang,  Yan Zhao,  
 Ying Zhu,  B. R. Brooks,  G. K. L. Chan,  C. J. Cramer,  M. S. Gordon,  
 W. J. Hehre,  A. Klamt,  M. W. Schmidt,  C. D. Sherrill,  D. G. Truhlar,  
 A. Aspuru-Guzik,  R. Baer,  A. T. Bell,  N. A. Besley,  Jeng-Da Chai,  
 A. E. DePrince, III,  R. A. DiStasio Jr.,  A. Dreuw,  B. D. Dunietz,  
 T. R. Furlani,  Chao-Ping Hsu,  Yousung Jung,  Jing Kong,  D. S. Lambrecht,  
 WanZhen Liang,  C. Ochsenfeld,  V. A. Rassolov,  L. V. Slipchenko,  
 J. E. Subotnik,  T. Van Voorhis,  J. M. Herbert,  A. I. Krylov,  
 P. M. W. Gill,  M. Head-Gordon

 Contributors to earlier versions of Q-Chem not listed above: 
 R. D. Adamson,  B. Austin,  J. Baker,  G. J. O. Beran,  K. Brandhorst,  
 S. T. Brown,  E. F. C. Byrd,  A. K. Chakraborty,  C.-L. Cheng,  
 Siu Hung Chien,  D. M. Chipman,  D. L. Crittenden,  H. Dachsel,  
 R. J. Doerksen,  A. D. Dutoi,  L. Fusti-Molnar,  W. A. Goddard III,  
 A. Golubeva-Zadorozhnaya,  S. R. Gwaltney,  G. Hawkins,  A. Heyden,  
 S. Hirata,  G. Kedziora,  F. J. Keil,  C. Kelley,  Jihan Kim,  R. A. King,  
 R. Z. Khaliullin,  P. P. Korambath,  W. Kurlancheek,  A. M. Lee,  M. S. Lee,  
 S. V. Levchenko,  Ching Yeh Lin,  D. Liotard,  R. C. Lochan,  I. Lotan,  
 P. E. Maslen,  N. Nair,  D. P. O'Neill,  D. Neuhauser,  E. Neuscamman,  
 C. M. Oana,  R. Olson,  B. Peters,  R. Peverati,  P. A. Pieniazek,  
 Y. M. Rhee,  J. Ritchie,  M. A. Rohrdanz,  E. Rosta,  N. J. Russ,  
 H. F. Schaefer III,  N. E. Schultz,  N. Shenvi,  A. C. Simmonett,  A. Sodt,  
 D. Stuck,  K. S. Thanthiriwatte,  V. Vanovschi,  Tao Wang,  A. Warshel,  
 C. F. Williams,  Q. Wu,  X. Xu,  W. Zhang

 Please cite Q-Chem as follows:
 Y. Shao et al., Mol. Phys. 113, 184-215 (2015)
 DOI: 10.1080/00268976.2014.952696

 Q-Chem 5.2.0 for Intel X86 EM64T Linux

 Parts of Q-Chem use Armadillo 8.300.2 (Tropical Shenanigans).
 http://arma.sourceforge.net/

 Q-Chem begins on Sun Sep 26 05:41:38 2021  

Host: cori01
0

     Scratch files written to /tmp/qchem18394//Frg1//
 May1019 |scratch|qcdevops|jenkins|workspace|build_RNUM -1
Processing $rem in /global/common/cori/software/qchem/5.2/config/preferences:
	 MEM_TOTAL  96000 
NAlpha2: 50
NElect   50
Mult     1
Symmetry turned off for PCM/SM12/SMD calculation

Checking the input file for inconsistencies... 	...done.

--------------------------------------------------------------
User input:
--------------------------------------------------------------
$molecule
0 1
 6	3.3039037763	-1.7053440815	-1.7459649111
 6	-0.4680962237	-1.9063440815	-1.5939649111
 6	0.8149037763	-1.5073440815	-1.9219649111
 6	-0.6710962237	-2.9223440815	-0.6799649111
 6	1.9109037763	-2.1193440815	-1.3369649111
 6	0.4129037763	-3.5343440815	-0.0869649111
 6	1.6999037763	-3.1503440815	-0.4289649111
 1	-1.3170962237	-1.4343440815	-2.0559649111
 1	0.9549037763	-0.7133440815	-2.6419649111
 1	-1.6740962237	-3.2403440815	-0.4359649111
 1	0.2539037763	-4.3253440815	0.6320350889
 1	3.2629037763	-1.3723440815	-2.7859649111
 1	3.9609037763	-2.5763440815	-1.7179649111
 1	2.5409037763	-3.6393440815	0.0350350889
 1	3.7311837763	-0.8970540815	-1.1343249111
$end
$rem
EDA2		1
METHOD		WB97X-V
BASIS		DEF2-TZVPD
XC_GRID		000099000590
NL_GRID		1
UNRESTRICTED		FALSE
MAX_SCF_CYCLES		200
SYMMETRY		FALSE
SYM_IGNORE		TRUE
BASIS_LIN_DEP_THRESH		6
THRESH		14
SCF_CONVERGENCE		8
SCF_PRINT_FRGM		TRUE
SOLVENT_METHOD		SMD
!required keywords
JOBTYPE		SP
SYM_IGNORE		TRUE
SUBSYSTEM		TRUE
GEN_SCFMAN		TRUE
CHILD_INSTRUCTION		2
SYM_IGNORE		TRUE
SCFMI		0
RI_K 0		
PARI_K 0		
MIN_PARI_K 0		
IARI_K 0		
OCC_RI_K 0		
PURECART		1111
MEM_STATIC		2000
MEM_TOTAL		96000
GUI		0
CHILD_MP		1
CHILD_MP_ORDERS		232
FRZ_RELAX		0
FRZ_RELAX_METHOD		0
EDA_CLS_ELEC		1
EDA_CLS_DISP		0
FRZ_ORTHO_DECOMP		1
EDA2		FALSE
FRGM_METHOD		FALSE
CIS_N_ROOTS  0
LOCAL_CIS    0
CIS_RLX_DNS  1
$end
$smx
SOLVENT			WATER
$end
--------------------------------------------------------------
 ----------------------------------------------------------------
             Standard Nuclear Orientation (Angstroms)
    I     Atom           X                Y                Z
 ----------------------------------------------------------------
    1      C       3.3039037763    -1.7053440815    -1.7459649111
    2      C      -0.4680962237    -1.9063440815    -1.5939649111
    3      C       0.8149037763    -1.5073440815    -1.9219649111
    4      C      -0.6710962237    -2.9223440815    -0.6799649111
    5      C       1.9109037763    -2.1193440815    -1.3369649111
    6      C       0.4129037763    -3.5343440815    -0.0869649111
    7      C       1.6999037763    -3.1503440815    -0.4289649111
    8      H      -1.3170962237    -1.4343440815    -2.0559649111
    9      H       0.9549037763    -0.7133440815    -2.6419649111
   10      H      -1.6740962237    -3.2403440815    -0.4359649111
   11      H       0.2539037763    -4.3253440815     0.6320350889
   12      H       3.2629037763    -1.3723440815    -2.7859649111
   13      H       3.9609037763    -2.5763440815    -1.7179649111
   14      H       2.5409037763    -3.6393440815     0.0350350889
   15      H       3.7311837763    -0.8970540815    -1.1343249111
 ----------------------------------------------------------------
 Nuclear Repulsion Energy =         270.94604982 hartrees
 There are       25 alpha and       25 beta electrons
 Requested basis set is def2-TZVPD
 There are 131 shells and 331 basis functions

 Total QAlloc Memory Limit  96000 MB
 Mega-Array Size      1956 MB
 MEM_STATIC part      2000 MB
 
 Citation of the SMD model:
 Marenich, A.V.; Cramer, C.J.; Truhlar, D.G.
 J. Phys. Chem. B 2009, 113, 6378-6396.
 iSolventCode=           1
 Solvent: water                                                           
 
 vradii
            1           2           3           4           5           6
    1   1.8500000   1.8500000   1.8500000   1.8500000   1.8500000   1.8500000
            7           8           9          10          11          12
    1   1.8500000   1.2000000   1.2000000   1.2000000   1.2000000   1.2000000
           13          14          15
    1   1.2000000   1.2000000   1.2000000
 Changing PCM_VDW_RADII to SMD_RADIUS
 Discretize the solute cavity surface with Lebedev spheres
	Using 110 Lebedev grid points for each H atom
	Using 194 Lebedev grid points for other atoms
	Atomic van der Waals radii will be scaled by 1.20
 Remove points where switching function is < 1.0e-08
 Keep 1092 surface tesserae and discard 1146 interior tesserae
 Molecular Surface Area = 131.777 Angst**2

                       Distance Matrix (Angstroms)
             C (  1)   C (  2)   C (  3)   C (  4)   C (  5)   C (  6)
   C (  2)  3.780409
   C (  3)  2.503058  1.383067
   C (  4)  4.291628  1.381615  2.398538
   C (  5)  1.509677  2.402303  1.384913  2.782657
   C (  6)  3.802026  2.386963  2.763613  1.378858  2.410130
   C (  7)  2.528899  2.757714  2.389921  2.395125  1.389945  1.385925
   H (  8)  4.639308  1.075653  2.137454  2.127166  3.377302  3.358550
   H (  9)  2.702717  2.132248  1.080942  3.372388  2.143314  3.844454
   H ( 10)  5.371481  2.138915  3.377367  1.080125  3.862728  2.136307
   H ( 11)  4.671379  3.365698  3.844315  2.131989  3.389550  1.080705
   H ( 12)  1.092781  3.953022  2.599505  4.723779  2.117903  4.481221
   H ( 13)  1.091363  4.481107  3.328918  4.759473  2.134598  4.020725
   H ( 14)  2.737606  3.835494  3.369621  3.367827  2.142355  2.134079
   H ( 15)  1.100002  4.343258  3.081805  4.867064  2.201925  4.366147
             C (  7)   H (  8)   H (  9)   H ( 10)   H ( 11)   H ( 12)
   H (  8)  3.833285
   H (  9)  3.375109  2.454633
   H ( 10)  3.375207  2.452241  4.261902
   H ( 11)  2.144123  4.248678  4.925142  2.456630
   H ( 12)  3.340614  4.638226  2.404554  5.778053  5.427432
   H ( 13)  2.665168  5.410702  3.655213  5.817013  4.724759  1.754265
   H ( 14)  1.077821  4.911056  4.271206  4.259961  2.461173  3.690341
   H ( 15)  3.114634  5.159771  3.164563  5.932602  5.192752  1.781320
             H ( 13)   H ( 14)
   H ( 14)  2.493868
   H ( 15)  1.792602  3.210035
 
 A cutoff of  1.0D-14 yielded   8362 shell pairs
 There are     54504 function pairs (     69458 Cartesian)
 Smallest overlap matrix eigenvalue = 5.18E-07
 Linear dependence detected in AO basis
 Tighter screening thresholds may be required for diffuse basis sets
 Use S2THRESH > 14 and THRESH = 14 in case of SCF convergence issues
 Number of orthogonalized atomic orbitals = 330
 Maximum deviation from orthogonality = 3.050E-10

 Scale SEOQF with 1.000000e-01/1.000000e-01/1.000000e-01

 Standard Electronic Orientation quadrupole field applied
 Nucleus-field energy     =     0.0000000187 hartrees
 Guess from superposition of atomic densities
 Warning:  Energy on first SCF cycle will be non-variational
 SAD guess density has 49.913408 electrons

 -----------------------------------------------------------------------
  General SCF calculation program by
  Eric Jon Sundstrom, Paul Horn, Yuezhi Mao, Dmitri Zuev, Alec White,
  David Stuck, Shaama M.S., Shane Yost, Joonho Lee, David Small,
  Daniel Levine, Susi Lehtola, Hugh Burton, Evgeny Epifanovsky
 -----------------------------------------------------------------------
 Exchange:     0.1670 Hartree-Fock + 1.0000 wB97X-V + LR-HF
 Correlation:  1.0000 wB97X-V
 Using Euler-Maclaurin-Lebedev (99,590) quadrature formula
 Nonlocal Correlation:  VV10 with C = 0.0100 and b = 6.00 and scale = 1.00000
 Grid used for NLC:  SG-1 standard quadrature
Energy prior to optimization (guess energy) = -271.517526357420
Begin Timing: Total SCF Calculation
begin iterations for algorithm: DIIS         
the SCF tolerance is set to 1.00e-08
    1    -271.5175263574      2.01e-03     00000 
    2    -271.5591636372      1.31e-03     00000 
    3    -271.5842327777      1.56e-04     00000 
    4    -271.5849195877      4.75e-05     00000 
    5    -271.5849713338      2.16e-05     00000 
    6    -271.5849792718      5.20e-06     00000 
    7    -271.5849799663      1.39e-06     00000 
    8    -271.5849800026      4.44e-07     00000 
    9    -271.5849800075      1.00e-07     00000 
   10    -271.5849800078      2.70e-08     00000 
   11    -271.5849800078      1.32e-08     00000 
   12    -271.5849800078      4.03e-09     00000 Convergence criterion met
Timing for Total SCF: 1320.00s (wall), 2611.44s (cpu)
(3)  G-ENP(liq) elect-nuc-pol free energy of system     -271.584980008 a.u.
(4)  G-CDS(liq) cavity-dispersion-solvent structure 
     free energy                                                3.1398 kcal/mol
(6)  G-S(liq) free energy of system                     -271.579976472 a.u.
E_pcm = -0.0071965769
E_cds = 0.0050035360
Multipole orders to be included
        2
        3
computing dipole RHS
computing quadrupole RHS
total number of RHS in solve_reponses: 8
RHS batch sizes
        8
Beginning Block Conjugate Gradient Iterations. Batch Number: 0
computing hessian-vector products by finite difference
              1      6.21e-01     00000 Conjugate Gradient Iteration
computing hessian-vector products by finite difference
              2      1.89e-01     00000 Conjugate Gradient Iteration
computing hessian-vector products by finite difference
              3      4.58e-02     00000 Conjugate Gradient Iteration
computing hessian-vector products by finite difference
              4      1.16e-02     00000 Conjugate Gradient Iteration
computing hessian-vector products by finite difference
              5      2.01e-03     00000 Conjugate Gradient Iteration
computing hessian-vector products by finite difference
              6      5.24e-04     00000 Conjugate Gradient Iteration
computing hessian-vector products by finite difference
              7      1.36e-04     00000 Conjugate Gradient Iteration
computing hessian-vector products by finite difference
              8      2.22e-05     00000 Conjugate Gradient Iteration
computing hessian-vector products by finite difference
              9      3.12e-06     00000 Conjugate Gradient Iteration
computing hessian-vector products by finite difference
             10      5.13e-07     00000 Conjugate Gradient Iteration
computing hessian-vector products by finite difference
             11      8.05e-08     00000 Conjugate Gradient Iteration
computing hessian-vector products by finite difference
             12      1.39e-08     00000 Conjugate Gradient Iteration
computing hessian-vector products by finite difference
             13      3.26e-09     00000 CG Converged
batch 0 complete
Done Calculating Responses
TESTING ORTHOGONALIZATION OF MULTIPOLE BASIS
Multipole virts passed orthogonality test
Virts Per Order
           75
          125
 
 --------------------------------------------------------------
 
                    Orbital Energies (a.u.)
 --------------------------------------------------------------
 
 Alpha MOs
 -- Occupied --
-10.2755 -10.2650 -10.2641 -10.2623 -10.2615 -10.2613 -10.2540  -0.9968
 -0.9027  -0.8760  -0.8075  -0.7259  -0.7010  -0.6260  -0.5700  -0.5588
 -0.5294  -0.5242  -0.5084  -0.4790  -0.4719  -0.4346  -0.4341  -0.3472
 -0.3361
 -- Virtual --
  0.0683   0.0693   0.0736   0.0844   0.0899   0.1096   0.1161   0.1183
  0.1410   0.1599   0.1729   0.1732   0.1897   0.1941   0.2009   0.2079
  0.2276   0.2282   0.2403   0.2463   0.2575   0.2650   0.2667   0.2736
  0.2864   0.2887   0.2939   0.2979   0.2981   0.3053   0.3068   0.3156
  0.3222   0.3311   0.3396   0.3427   0.3558   0.3564   0.3710   0.3792
  0.3866   0.3876   0.3887   0.3941   0.3955   0.4067   0.4102   0.4140
  0.4165   0.4329   0.4348   0.4425   0.4488   0.4541   0.4551   0.4587
  0.4714   0.4730   0.4772   0.4870   0.5016   0.5056   0.5161   0.5238
  0.5250   0.5307   0.5369   0.5445   0.5488   0.5527   0.5581   0.5692
  0.5913   0.5935   0.6019   0.6061   0.6084   0.6248   0.6481   0.6522
  0.6629   0.6793   0.6893   0.6910   0.6941   0.6968   0.7259   0.7286
  0.7361   0.7379   0.7481   0.7618   0.7689   0.7718   0.7834   0.7929
  0.7974   0.7996   0.8026   0.8106   0.8121   0.8258   0.8300   0.8391
  0.8409   0.8424   0.8449   0.8610   0.8623   0.8819   0.8949   0.9022
  0.9125   0.9149   0.9417   0.9515   0.9581   1.0224   1.0272   1.0419
  1.0528   1.0694   1.0782   1.0904   1.0950   1.1020   1.1086   1.1474
  1.1695   1.1890   1.2566   1.2884   1.3004   1.3306   1.3550   1.3571
  1.3917   1.4429   1.4584   1.4684   1.4728   1.4933   1.5336   1.5509
  1.6077   1.6119   1.6232   1.6294   1.6696   1.6918   1.7427   1.7909
  1.8037   1.8041   1.8111   1.8250   1.8372   1.8752   1.8949   1.9157
  1.9255   1.9291   1.9599   1.9619   1.9886   2.0013   2.0185   2.0317
  2.0403   2.0524   2.0786   2.1053   2.1213   2.1323   2.1739   2.1824
  2.2070   2.2350   2.2438   2.2774   2.2926   2.3233   2.4034   2.4069
  2.4133   2.4188   2.4920   2.5118   2.5358   2.5624   2.5707   2.6089
  2.6242   2.6355   2.6731   2.6800   2.7091   2.7204   2.7717   2.7851
  2.8017   2.8257   2.8320   2.8619   2.8696   2.9106   2.9135   2.9217
  2.9468   2.9521   2.9694   2.9862   2.9978   3.0198   3.0281   3.0635
  3.0662   3.1005   3.1141   3.1258   3.1900   3.1957   3.2076   3.2264
  3.2328   3.2446   3.2983   3.3149   3.3249   3.3576   3.3691   3.3883
  3.4110   3.4501   3.4548   3.4669   3.4681   3.4795   3.4994   3.5157
  3.5210   3.5427   3.5463   3.5542   3.5722   3.5827   3.6013   3.6183
  3.6237   3.6569   3.6623   3.7084   3.7200   3.7692   3.7877   3.8324
  3.8454   3.8905   3.9194   3.9607   3.9697   4.0081   4.0531   4.0681
  4.1268   4.2092   4.2872   4.3000   4.3059   4.3405   4.3460   4.3492
  4.3753   4.3928   4.4097   4.4188   4.4517   4.4760   4.4922   4.5506
  4.6054   4.6419   4.7600   4.7747   4.8506   4.9056   4.9120   4.9553
  5.0481   5.0619   5.1858   5.2774   5.4069   5.4191   5.5176   5.5346
  5.6974   5.8659  22.5725  22.6627  22.9231  22.9338  23.0499  23.1204
 23.4635
 --------------------------------------------------------------
 
          Ground-State Mulliken Net Atomic Charges

     Atom                 Charge (a.u.)
  ----------------------------------------
      1 C                    -1.096577
      2 C                    -0.557351
      3 C                    -0.404484
      4 C                    -0.564802
      5 C                     0.838488
      6 C                    -0.539487
      7 C                    -0.416150
      8 H                     0.377276
      9 H                     0.378467
     10 H                     0.389290
     11 H                     0.371419
     12 H                     0.290365
     13 H                     0.295179
     14 H                     0.391487
     15 H                     0.246881
  ----------------------------------------
  Sum of atomic charges =     0.000000

 -----------------------------------------------------------------
                    Cartesian Multipole Moments
 -----------------------------------------------------------------
    Charge (ESU x 10^10)
                 0.0000
    Dipole Moment (Debye)
         X       0.4572      Y       0.1202      Z      -0.1829
       Tot       0.5068
    Quadrupole Moments (Debye-Ang)
        XX     -36.5205     XY      -0.7294     YY     -42.0955
        XZ      -0.6598     YZ      -4.0468     ZZ     -41.9506
    Octopole Moments (Debye-Ang^2)
       XXX    -123.9786    XXY      86.8634    XYY     -42.2130
       YYY     299.9635    XXZ      41.8542    XYZ      -0.6889
       YYZ      69.1922    XZZ     -43.3055    YZZ     109.5709
       ZZZ     142.0605
    Hexadecapole Moments (Debye-Ang^3)
      XXXX    -824.0398   XXXY     250.4196   XXYY    -378.5113
      XYYY     268.2340   YYYY   -1654.0494   XXXZ     181.5495
      XXYZ     -81.5130   XYYZ      70.1634   YYYZ    -360.6467
      XXZZ    -222.0476   XYZZ      94.2972   YYZZ    -399.1433
      XZZZ     182.6154   YZZZ    -289.6013   ZZZZ    -514.5282
 -----------------------------------------------------------------
Archival summary:
1\1\nid00564\SP\ProcedureUnspecified\BasisUnspecified\78\meili\SunSep2613:14:502021SunSep2613:14:502021\0\\#,ProcedureUnspecified,BasisUnspecified,\\0,1\C\C,1,1.38491\H,2,1.08094,1,120.229\C,2,1.38307,1,120.429,3,179.874,0\H,4,1.07565,2,120.247,1,-179.511,0\C,4,1.38162,2,120.353,1,-0.110713,0\H,6,1.08012,4,120.158,2,-179.185,0\C,6,1.37886,4,119.695,2,0.405049,0\H,8,1.0807,6,119.691,4,179.663,0\C,8,1.38593,6,120.062,4,-1.38448,0\H,10,1.07782,8,119.515,6,-179.581,0\C,1,1.50968,2,119.643,3,-2.14719,0\H,12,1.09136,1,109.248,2,-145.58,0\H,12,1.09278,1,107.865,2,-29.7629,0\H,12,1.1,1,114.16,2,91.0933,0\\\@

 Total job time:  27195.33s(wall), 53838.45s(cpu) 
 Sun Sep 26 13:14:53 2021

        *************************************************************
        *                                                           *
        *  Thank you very much for using Q-Chem.  Have a nice day.  *
        *                                                           *
        *************************************************************


Done Job For Fragment 0
calling putenv with: QCSCRATCH=/global/cscratch1/sd/meili 
calling putenv with: QCLOCALSCR=/tmp 
calling putenv with: QCTHREADS=32 
Creating input file /tmp/qchem18394/Frg2.input
using default PutDataFrgm: nothing
calling putenv with: QCSCRATCH=/tmp/qchem18394/ 
calling putenv with: QCLOCALSCR=/tmp/qchem18394/ 
Spawning Job For Fragment 1
                  Welcome to Q-Chem
     A Quantum Leap Into The Future Of Chemistry


 Q-Chem 5.2, Q-Chem, Inc., Pleasanton, CA (2019)

 License issued to: National Energy Research Scientific Computing Center

 Yihan Shao,  Zhengting Gan,  E. Epifanovsky,  A. T. B. Gilbert,  M. Wormit,  
 J. Kussmann,  A. W. Lange,  A. Behn,  Jia Deng,  Xintian Feng,  D. Ghosh,  
 M. Goldey,  P. R. Horn,  L. D. Jacobson,  I. Kaliman,  T. Kus,  A. Landau,  
 Jie Liu,  E. I. Proynov,  R. M. Richard,  R. P. Steele,  E. J. Sundstrom,  
 H. L. Woodcock III,  P. M. Zimmerman,  D. Zuev,  B. Albrecht,  E. Alguire,  
 S. A. Baeppler,  D. Barton,  Z. Benda,  Y. A. Bernard,  E. J. Berquist,  
 K. B. Bravaya,  H. Burton,  D. Casanova,  Chun-Min Chang,  Yunqing Chen,  
 A. Chien,  K. D. Closser,  M. P. Coons,  S. Coriani,  S. Dasgupta,  
 A. L. Dempwolff,  M. Diedenhofen,  Hainam Do,  R. G. Edgar,  Po-Tung Fang,  
 S. Faraji,  S. Fatehi,  Qingguo Feng,  K. D. Fenk,  J. Fosso-Tande,  
 J. Gayvert,  Qinghui Ge,  A. Ghysels,  G. Gidofalvi,  J. Gomes,  
 J. Gonthier,  A. Gunina,  D. Hait,  M. W. D. Hanson-Heine,  
 P. H. P. Harbach,  A. W. Hauser,  M. F. Herbst,  J. E. Herr,  
 E. G. Hohenstein,  Z. C. Holden,  Kerwin Hui,  B. C. Huynh,  T.-C. Jagau,  
 Hyunjun Ji,  B. Kaduk,  K. Khistyaev,  Jaehoon Kim,  P. Klunzinger,  K. Koh,  
 D. Kosenkov,  L. Koulias,  T. Kowalczyk,  C. M. Krauter,  A. Kunitsa,  
 Ka Un Lao,  A. Laurent,  K. V. Lawler,  Joonho Lee,  D. Lefrancois,  
 S. Lehtola,  D. S. Levine,  Yi-Pei Li,  You-Sheng Lin,  Fenglai Liu,  
 E. Livshits,  A. Luenser,  P. Manohar,  E. Mansoor,  S. F. Manzer,  
 Shan-Ping Mao,  Yuezhi Mao,  N. Mardirossian,  A. V. Marenich,  
 T. Markovich,  L. A. Martinez-Martinez,  S. A. Maurer,  N. J. Mayhall,  
 S. C. McKenzie,  J.-M. Mewes,  P. Morgante,  A. F. Morrison,  
 J. W. Mullinax,  K. Nanda,  T. S. Nguyen-Beck,  R. Olivares-Amaya,  
 J. A. Parkhill,  Zheng Pei,  T. M. Perrine,  F. Plasser,  P. Pokhilko,  
 S. Prager,  A. Prociuk,  E. Ramos,  D. R. Rehn,  F. Rob,  M. Scheurer,  
 M. Schneider,  N. Sergueev,  S. M. Sharada,  S. Sharma,  D. W. Small,  
 T. Stauch,  T. Stein,  Yu-Chuan Su,  A. J. W. Thom,  A. Tkatchenko,  
 T. Tsuchimochi,  N. M. Tubman,  L. Vogt,  M. L. Vidal,  O. Vydrov,  
 M. A. Watson,  J. Wenzel,  M. de Wergifosse,  T. A. Wesolowski,  A. White,  
 J. Witte,  A. Yamada,  Jun Yang,  K. Yao,  S. Yeganeh,  S. R. Yost,  
 Zhi-Qiang You,  A. Zech,  Igor Ying Zhang,  Xing Zhang,  Yan Zhao,  
 Ying Zhu,  B. R. Brooks,  G. K. L. Chan,  C. J. Cramer,  M. S. Gordon,  
 W. J. Hehre,  A. Klamt,  M. W. Schmidt,  C. D. Sherrill,  D. G. Truhlar,  
 A. Aspuru-Guzik,  R. Baer,  A. T. Bell,  N. A. Besley,  Jeng-Da Chai,  
 A. E. DePrince, III,  R. A. DiStasio Jr.,  A. Dreuw,  B. D. Dunietz,  
 T. R. Furlani,  Chao-Ping Hsu,  Yousung Jung,  Jing Kong,  D. S. Lambrecht,  
 WanZhen Liang,  C. Ochsenfeld,  V. A. Rassolov,  L. V. Slipchenko,  
 J. E. Subotnik,  T. Van Voorhis,  J. M. Herbert,  A. I. Krylov,  
 P. M. W. Gill,  M. Head-Gordon

 Contributors to earlier versions of Q-Chem not listed above: 
 R. D. Adamson,  B. Austin,  J. Baker,  G. J. O. Beran,  K. Brandhorst,  
 S. T. Brown,  E. F. C. Byrd,  A. K. Chakraborty,  C.-L. Cheng,  
 Siu Hung Chien,  D. M. Chipman,  D. L. Crittenden,  H. Dachsel,  
 R. J. Doerksen,  A. D. Dutoi,  L. Fusti-Molnar,  W. A. Goddard III,  
 A. Golubeva-Zadorozhnaya,  S. R. Gwaltney,  G. Hawkins,  A. Heyden,  
 S. Hirata,  G. Kedziora,  F. J. Keil,  C. Kelley,  Jihan Kim,  R. A. King,  
 R. Z. Khaliullin,  P. P. Korambath,  W. Kurlancheek,  A. M. Lee,  M. S. Lee,  
 S. V. Levchenko,  Ching Yeh Lin,  D. Liotard,  R. C. Lochan,  I. Lotan,  
 P. E. Maslen,  N. Nair,  D. P. O'Neill,  D. Neuhauser,  E. Neuscamman,  
 C. M. Oana,  R. Olson,  B. Peters,  R. Peverati,  P. A. Pieniazek,  
 Y. M. Rhee,  J. Ritchie,  M. A. Rohrdanz,  E. Rosta,  N. J. Russ,  
 H. F. Schaefer III,  N. E. Schultz,  N. Shenvi,  A. C. Simmonett,  A. Sodt,  
 D. Stuck,  K. S. Thanthiriwatte,  V. Vanovschi,  Tao Wang,  A. Warshel,  
 C. F. Williams,  Q. Wu,  X. Xu,  W. Zhang

 Please cite Q-Chem as follows:
 Y. Shao et al., Mol. Phys. 113, 184-215 (2015)
 DOI: 10.1080/00268976.2014.952696

 Q-Chem 5.2.0 for Intel X86 EM64T Linux

 Parts of Q-Chem use Armadillo 8.300.2 (Tropical Shenanigans).
 http://arma.sourceforge.net/

 Q-Chem begins on Sun Sep 26 13:14:56 2021  

Host: cori01
0

     Scratch files written to /tmp/qchem18394//Frg2//
 May1019 |scratch|qcdevops|jenkins|workspace|build_RNUM -1
Processing $rem in /global/common/cori/software/qchem/5.2/config/preferences:
	 MEM_TOTAL  96000 
NAlpha2: 58
NElect   58
Mult     1
Symmetry turned off for PCM/SM12/SMD calculation

Checking the input file for inconsistencies... 	...done.

--------------------------------------------------------------
User input:
--------------------------------------------------------------
$molecule
0 1
 6	-2.0160962237	2.2156559185	3.6670350889
 6	-0.0340962237	0.9896559185	0.6670350889
 6	-0.3530962237	1.9426559185	-0.3029649111
 6	-0.5650962237	1.1086559185	1.9460350889
 6	-1.4180962237	2.1496559185	2.2790350889
 6	-1.2050962237	2.9916559185	0.0190350889
 6	-1.7370962237	3.0896559185	1.2990350889
 8	0.1629037763	1.8336559185	-1.5649649111
 1	0.6109037763	0.1616559185	0.4160350889
 1	-0.3270962237	0.3526559185	2.6820350889
 1	-1.4610962237	3.7256559185	-0.7289649111
 1	-0.2820962237	2.4416559185	-2.1779649111
 1	-1.4810962237	1.5286559185	4.3260350889
 1	-3.0340962237	1.8516559185	3.5850350889
 1	-2.4220962237	3.8966559185	1.5200350889
 1	-2.0283852237	3.2125459185	4.1318650889
$end
$rem
EDA2		1
METHOD		WB97X-V
BASIS		DEF2-TZVPD
XC_GRID		000099000590
NL_GRID		1
UNRESTRICTED		FALSE
MAX_SCF_CYCLES		200
SYMMETRY		FALSE
SYM_IGNORE		TRUE
BASIS_LIN_DEP_THRESH		6
THRESH		14
SCF_CONVERGENCE		8
SCF_PRINT_FRGM		TRUE
SOLVENT_METHOD		SMD
!required keywords
JOBTYPE		SP
SYM_IGNORE		TRUE
SUBSYSTEM		TRUE
GEN_SCFMAN		TRUE
CHILD_INSTRUCTION		2
SYM_IGNORE		TRUE
SCFMI		0
RI_K 0		
PARI_K 0		
MIN_PARI_K 0		
IARI_K 0		
OCC_RI_K 0		
PURECART		1111
MEM_STATIC		2000
MEM_TOTAL		96000
GUI		0
CHILD_MP		1
CHILD_MP_ORDERS		232
FRZ_RELAX		0
FRZ_RELAX_METHOD		0
EDA_CLS_ELEC		1
EDA_CLS_DISP		0
FRZ_ORTHO_DECOMP		1
EDA2		FALSE
FRGM_METHOD		FALSE
CIS_N_ROOTS  0
LOCAL_CIS    0
CIS_RLX_DNS  1
$end
$smx
SOLVENT			WATER
$end
--------------------------------------------------------------
 ----------------------------------------------------------------
             Standard Nuclear Orientation (Angstroms)
    I     Atom           X                Y                Z
 ----------------------------------------------------------------
    1      C      -2.0160962237     2.2156559185     3.6670350889
    2      C      -0.0340962237     0.9896559185     0.6670350889
    3      C      -0.3530962237     1.9426559185    -0.3029649111
    4      C      -0.5650962237     1.1086559185     1.9460350889
    5      C      -1.4180962237     2.1496559185     2.2790350889
    6      C      -1.2050962237     2.9916559185     0.0190350889
    7      C      -1.7370962237     3.0896559185     1.2990350889
    8      O       0.1629037763     1.8336559185    -1.5649649111
    9      H       0.6109037763     0.1616559185     0.4160350889
   10      H      -0.3270962237     0.3526559185     2.6820350889
   11      H      -1.4610962237     3.7256559185    -0.7289649111
   12      H      -0.2820962237     2.4416559185    -2.1779649111
   13      H      -1.4810962237     1.5286559185     4.3260350889
   14      H      -3.0340962237     1.8516559185     3.5850350889
   15      H      -2.4220962237     3.8966559185     1.5200350889
   16      H      -2.0283852237     3.2125459185     4.1318650889
 ----------------------------------------------------------------
 Nuclear Repulsion Energy =         343.04786011 hartrees
 There are       29 alpha and       29 beta electrons
 Requested basis set is def2-TZVPD
 There are 145 shells and 371 basis functions

 Total QAlloc Memory Limit  96000 MB
 Mega-Array Size      1956 MB
 MEM_STATIC part      2000 MB
 
 Citation of the SMD model:
 Marenich, A.V.; Cramer, C.J.; Truhlar, D.G.
 J. Phys. Chem. B 2009, 113, 6378-6396.
 iSolventCode=           1
 Solvent: water                                                           
 
 vradii
            1           2           3           4           5           6
    1   1.8500000   1.8500000   1.8500000   1.8500000   1.8500000   1.8500000
            7           8           9          10          11          12
    1   1.8500000   1.5200000   1.2000000   1.2000000   1.2000000   1.2000000
           13          14          15          16
    1   1.2000000   1.2000000   1.2000000   1.2000000
 Changing PCM_VDW_RADII to SMD_RADIUS
 Discretize the solute cavity surface with Lebedev spheres
	Using 110 Lebedev grid points for each H atom
	Using 194 Lebedev grid points for other atoms
	Atomic van der Waals radii will be scaled by 1.20
 Remove points where switching function is < 1.0e-08
 Keep 1177 surface tesserae and discard 1255 interior tesserae
 Molecular Surface Area = 141.558 Angst**2
 A cutoff of  1.0D-14 yielded  10045 shell pairs
 There are     67089 function pairs (     85791 Cartesian)
 Smallest overlap matrix eigenvalue = 5.39E-07
 Linear dependence detected in AO basis
 Tighter screening thresholds may be required for diffuse basis sets
 Use S2THRESH > 14 and THRESH = 14 in case of SCF convergence issues
 Number of orthogonalized atomic orbitals = 370
 Maximum deviation from orthogonality = 2.404E-10

 Scale SEOQF with 1.000000e-01/1.000000e-01/1.000000e-01

 Standard Electronic Orientation quadrupole field applied
 Nucleus-field energy     =    -0.0000000014 hartrees
 Guess from superposition of atomic densities
 Warning:  Energy on first SCF cycle will be non-variational
 SAD guess density has 57.738434 electrons

 -----------------------------------------------------------------------
  General SCF calculation program by
  Eric Jon Sundstrom, Paul Horn, Yuezhi Mao, Dmitri Zuev, Alec White,
  David Stuck, Shaama M.S., Shane Yost, Joonho Lee, David Small,
  Daniel Levine, Susi Lehtola, Hugh Burton, Evgeny Epifanovsky
 -----------------------------------------------------------------------
 Exchange:     0.1670 Hartree-Fock + 1.0000 wB97X-V + LR-HF
 Correlation:  1.0000 wB97X-V
 Using Euler-Maclaurin-Lebedev (99,590) quadrature formula
 Nonlocal Correlation:  VV10 with C = 0.0100 and b = 6.00 and scale = 1.00000
 Grid used for NLC:  SG-1 standard quadrature
Energy prior to optimization (guess energy) = -346.495592024157
Begin Timing: Total SCF Calculation
begin iterations for algorithm: DIIS         
the SCF tolerance is set to 1.00e-08
    1    -346.4955920242      5.17e-03     00000 
    2    -346.4345455455      5.60e-03     00000 
    3    -346.8201817688      5.34e-04     00000 
    4    -346.8251036188      1.75e-04     00000 
    5    -346.8258038603      3.75e-05     00000 
    6    -346.8258548358      1.27e-05     00000 
    7    -346.8258594739      4.79e-06     00000 
    8    -346.8258601495      1.45e-06     00000 
    9    -346.8258602329      4.55e-07     00000 
   10    -346.8258602426      2.41e-07     00000 
   11    -346.8258602463      6.49e-08     00000 
   12    -346.8258602460      3.31e-08     00000 
   13    -346.8258602469      1.34e-08     00000 
   14    -346.8258602469      3.51e-09     00000 Convergence criterion met
Timing for Total SCF: 2083.00s (wall), 4138.20s (cpu)
(3)  G-ENP(liq) elect-nuc-pol free energy of system     -346.825860247 a.u.
(4)  G-CDS(liq) cavity-dispersion-solvent structure 
     free energy                                                3.7575 kcal/mol
(6)  G-S(liq) free energy of system                     -346.819872368 a.u.
E_pcm = -0.0174445092
E_cds = 0.0059878787
Multipole orders to be included
        2
        3
computing dipole RHS
computing quadrupole RHS
total number of RHS in solve_reponses: 8
RHS batch sizes
        8
Beginning Block Conjugate Gradient Iterations. Batch Number: 0
computing hessian-vector products by finite difference
              1      6.38e-01     00000 Conjugate Gradient Iteration
computing hessian-vector products by finite difference
              2      1.88e-01     00000 Conjugate Gradient Iteration
computing hessian-vector products by finite difference
              3      4.96e-02     00000 Conjugate Gradient Iteration
computing hessian-vector products by finite difference
              4      1.55e-02     00000 Conjugate Gradient Iteration
computing hessian-vector products by finite difference
              5      4.00e-03     00000 Conjugate Gradient Iteration
computing hessian-vector products by finite difference
              6      1.64e-03     00000 Conjugate Gradient Iteration
computing hessian-vector products by finite difference
              7      3.78e-04     00000 Conjugate Gradient Iteration
computing hessian-vector products by finite difference
              8      7.53e-05     00000 Conjugate Gradient Iteration
computing hessian-vector products by finite difference
              9      1.54e-05     00000 Conjugate Gradient Iteration
computing hessian-vector products by finite difference
             10      2.64e-06     00000 Conjugate Gradient Iteration
computing hessian-vector products by finite difference
             11      7.35e-07     00000 Conjugate Gradient Iteration
computing hessian-vector products by finite difference
             12      1.49e-07     00000 Conjugate Gradient Iteration
computing hessian-vector products by finite difference
             13      1.99e-08     00000 Conjugate Gradient Iteration
computing hessian-vector products by finite difference
             14      5.39e-09     00000 CG Converged
batch 0 complete
Done Calculating Responses
TESTING ORTHOGONALIZATION OF MULTIPOLE BASIS
Multipole virts passed orthogonality test
Virts Per Order
           87
          145
 
 --------------------------------------------------------------
 
                    Orbital Energies (a.u.)
 --------------------------------------------------------------
 
 Alpha MOs
 -- Occupied --
-19.2402 -10.3304 -10.2714 -10.2680 -10.2669 -10.2659 -10.2651 -10.2529
 -1.1869  -0.9918  -0.8955  -0.8794  -0.8039  -0.7414  -0.7087  -0.6585
 -0.5971  -0.5738  -0.5454  -0.5357  -0.5269  -0.5170  -0.5030  -0.4714
 -0.4496  -0.4414  -0.4326  -0.3497  -0.3101
 -- Virtual --
  0.0634   0.0644   0.0742   0.0829   0.0888   0.0996   0.1138   0.1158
  0.1188   0.1368   0.1507   0.1566   0.1607   0.1769   0.1843   0.1970
  0.2061   0.2088   0.2224   0.2342   0.2364   0.2462   0.2538   0.2593
  0.2678   0.2733   0.2755   0.2805   0.2880   0.2980   0.3009   0.3074
  0.3106   0.3152   0.3199   0.3282   0.3378   0.3471   0.3501   0.3560
  0.3601   0.3646   0.3662   0.3771   0.3786   0.3843   0.3884   0.3952
  0.4001   0.4012   0.4027   0.4121   0.4185   0.4277   0.4304   0.4385
  0.4405   0.4606   0.4628   0.4657   0.4746   0.4793   0.4820   0.4866
  0.4952   0.4980   0.5030   0.5090   0.5136   0.5165   0.5308   0.5394
  0.5446   0.5521   0.5569   0.5626   0.5672   0.5763   0.5829   0.5975
  0.6038   0.6137   0.6185   0.6328   0.6407   0.6617   0.6713   0.6739
  0.6795   0.6858   0.6959   0.6997   0.7045   0.7091   0.7184   0.7332
  0.7378   0.7459   0.7485   0.7570   0.7621   0.7818   0.7868   0.7875
  0.7921   0.7974   0.8002   0.8076   0.8099   0.8164   0.8314   0.8423
  0.8503   0.8529   0.8590   0.8656   0.8718   0.8802   0.8879   0.8947
  0.9022   0.9246   0.9353   0.9506   0.9598   0.9780   1.0035   1.0042
  1.0216   1.0415   1.0506   1.0551   1.0569   1.0731   1.0766   1.0915
  1.1013   1.1245   1.1439   1.1662   1.2036   1.2347   1.2653   1.2989
  1.3064   1.3154   1.3348   1.3587   1.3653   1.3944   1.3982   1.4367
  1.4550   1.4708   1.4807   1.4860   1.5369   1.5683   1.6044   1.6246
  1.6344   1.6481   1.6758   1.6914   1.7059   1.7268   1.7857   1.8082
  1.8275   1.8284   1.8444   1.8579   1.8789   1.8871   1.9232   1.9339
  1.9437   1.9655   1.9859   1.9924   2.0052   2.0350   2.0443   2.0572
  2.0658   2.0750   2.0952   2.1182   2.1227   2.1642   2.2044   2.2100
  2.2207   2.2485   2.2652   2.2957   2.2967   2.3112   2.3550   2.3682
  2.4077   2.4106   2.4454   2.4633   2.4899   2.5039   2.5217   2.5661
  2.5874   2.6160   2.6276   2.6424   2.6688   2.6711   2.7013   2.7424
  2.7628   2.7702   2.7809   2.8052   2.8356   2.8376   2.8642   2.8796
  2.9068   2.9181   2.9440   2.9536   2.9669   2.9777   2.9877   3.0159
  3.0203   3.0338   3.0644   3.0889   3.1037   3.1392   3.1588   3.1634
  3.1926   3.2074   3.2220   3.2257   3.2461   3.2667   3.2874   3.2977
  3.3250   3.3613   3.3806   3.3895   3.4025   3.4226   3.4427   3.4604
  3.4663   3.4752   3.4955   3.5108   3.5217   3.5312   3.5398   3.5473
  3.5617   3.5766   3.5831   3.5967   3.6093   3.6361   3.6509   3.6825
  3.7017   3.7064   3.7500   3.7573   3.8027   3.8319   3.8506   3.9103
  3.9414   3.9547   3.9738   3.9991   4.0442   4.0965   4.1427   4.1597
  4.2584   4.2772   4.2927   4.3117   4.3208   4.3364   4.3544   4.3753
  4.3894   4.4009   4.4380   4.4674   4.4991   4.5567   4.6106   4.6251
  4.7354   4.7638   4.7836   4.8214   4.8614   4.9289   5.0240   5.0736
  5.0875   5.1327   5.1598   5.3128   5.3323   5.4205   5.4444   5.5415
  5.5974   5.6722   5.7238   5.7653   5.9479   6.1945   6.4770   6.5525
  6.6672   6.8770   7.0008   7.3017   7.4445  22.6704  22.6813  22.9493
 23.0051  23.0494  23.1882  23.5157  44.4168
 --------------------------------------------------------------
 
          Ground-State Mulliken Net Atomic Charges

     Atom                 Charge (a.u.)
  ----------------------------------------
      1 C                    -1.100077
      2 C                    -0.779796
      3 C                     0.643945
      4 C                    -0.452334
      5 C                     0.489417
      6 C                    -0.372811
      7 C                    -0.593589
      8 O                    -0.552803
      9 H                     0.397686
     10 H                     0.369447
     11 H                     0.367344
     12 H                     0.339498
     13 H                     0.297829
     14 H                     0.238215
     15 H                     0.404583
     16 H                     0.303446
  ----------------------------------------
  Sum of atomic charges =     0.000000

 -----------------------------------------------------------------
                    Cartesian Multipole Moments
 -----------------------------------------------------------------
    Charge (ESU x 10^10)
                -0.0000
    Dipole Moment (Debye)
         X      -1.6499      Y       1.3376      Z      -0.0363
       Tot       2.1243
    Quadrupole Moments (Debye-Ang)
        XX     -47.6841     XY      -7.4053     YY     -39.5539
        XZ       0.1453     YZ      -4.8133     ZZ     -40.4832
    Octopole Moments (Debye-Ang^2)
       XXX     132.7028    XXY     -90.9114    XYY      18.7178
       YYY    -259.3122    XXZ     -47.5423    XYZ      -1.8907
       YYZ     -67.9637    XZZ      31.1808    YZZ     -78.9459
       ZZZ    -150.2365
    Hexadecapole Moments (Debye-Ang^3)
      XXXX    -500.6968   XXXY     322.8332   XXYY    -285.6942
      XYYY     239.7904   YYYY   -1314.7656   XXXZ     274.3875
      XXYZ     -88.5849   XYYZ      83.8996   YYYZ    -358.4935
      XXZZ    -268.9865   XYZZ      75.6570   YYZZ    -373.4759
      XZZZ     272.1497   YZZZ    -329.4290   ZZZZ   -1095.3703
 -----------------------------------------------------------------
Archival summary:
1\1\nid00564\SP\ProcedureUnspecified\BasisUnspecified\178\meili\MonSep2700:14:052021MonSep2700:14:052021\0\\#,ProcedureUnspecified,BasisUnspecified,\\0,1\C\O,1,1.36776\H,2,0.971318,1,111.074\C,1,1.38924,2,120.358,3,-11.4755,0\H,4,1.07879,1,119.906,2,-0.0719799,0\C,4,1.38961,1,120.102,2,179.345,0\H,6,1.08135,4,118.908,1,-178.136,0\C,6,1.39491,4,120.801,1,0.550928,0\C,8,1.38643,6,118.551,4,-0.442558,0\H,9,1.08161,8,119.786,6,-178.23,0\C,9,1.38995,8,121.355,6,-0.14172,0\H,11,1.07917,9,120.533,8,-178.615,0\C,8,1.51278,6,121.655,4,-178.266,0\H,13,1.08423,8,106.685,6,76.359,0\H,13,1.09201,8,109.426,6,-168.07,0\H,13,1.1,8,115.574,6,-45.0007,0\\\@

 Total job time:  39554.20s(wall), 78612.01s(cpu) 
 Mon Sep 27 00:14:10 2021

        *************************************************************
        *                                                           *
        *  Thank you very much for using Q-Chem.  Have a nice day.  *
        *                                                           *
        *************************************************************


Done Job For Fragment 1
calling putenv with: QCSCRATCH=/global/cscratch1/sd/meili 
calling putenv with: QCLOCALSCR=/tmp 
calling putenv with: QCTHREADS=32 
Doing General SCFMI
 Exchange:     0.1670 Hartree-Fock + 1.0000 wB97X-V + LR-HF
 Correlation:  1.0000 wB97X-V
 Using Euler-Maclaurin-Lebedev (99,590) quadrature formula
 Nonlocal Correlation:  VV10 with C = 0.0100 and b = 6.00 and scale = 1.00000
 Grid used for NLC:  SG-1 standard quadrature
performing fock build before subrot guess so that all methods have access
Printing subrot_rss_gen Method Specification:
Occupied Subspace Method is 0
Virtual Subspace Method is 0
Energy of the unrelaxed supersystem initial determinant -618.389438854646
performing fock build before subrot guess so that all methods have access
Printing subrot_rss_gen Method Specification:
Occupied Subspace Method is 0
Virtual Subspace Method is 0
Energy of the unrelaxed supersystem initial determinant w/ solvent -618.413023518879
write pseudocanon occs and virts to disk
write pseudocanon orbital energies to disk
Tolerance of ortho_decomp_scf: 1.00e-06
GDM subspace size: 20
Beginning the Orthogonal Decomposition of the Initial Supersystem Wavefunction
    1    -618.3707730021      2.25e-02     ortho_decomp Preconditoned Steepest Descent
    2    -618.3729744096      5.75e-04     ortho_decomp BFGS Step
    3    -618.3729819726      4.20e-05     ortho_decomp BFGS Step
    4    -618.3729819830      1.54e-06     ortho_decomp BFGS Step
    5    -618.3729819831      4.96e-08     ortho_decomp 00000 Convergence criterion met
 Hartree-Fock
 Hartree-Fock
 Hartree-Fock
Doing General SCFMI
 Exchange:     0.1670 Hartree-Fock + 1.0000 wB97X-V + LR-HF
 Correlation:  1.0000 wB97X-V
 Using Euler-Maclaurin-Lebedev (99,590) quadrature formula
 Nonlocal Correlation:  VV10 with C = 0.0100 and b = 6.00 and scale = 1.00000
 Grid used for NLC:  SG-1 standard quadrature
performing fock build at end of subrot_r(subrot) constructor so that all methods have access
<S^2> of initial wavefunction before polarization iterations 0.0000000000
Beginning iterations for the determination of the polarized wavefunction
Energy prior to optimization (guess energy) = -618.413023518879
Begin Timing: Total SCF Calculation
begin iterations for algorithm: DIIS         
the SCF tolerance is set to 1.00e-08
    1    -618.4130235189      3.30e-05     00000 
    2    -618.4131392066      1.75e-05     00000 
    3    -618.4131570613      8.27e-06     00000 
    4    -618.4131625320      2.48e-06     00000 
    5    -618.4131631434      1.29e-06     00000 
    6    -618.4131633250      4.66e-07     00000 
    7    -618.4131633460      2.00e-07     00000 
    8    -618.4131633499      7.21e-08     00000 
    9    -618.4131633503      2.97e-08     00000 
   10    -618.4131633503      1.38e-08     00000 
   11    -618.4131633503      4.81e-09     00000 Convergence criterion met
write pseudocanon occs and virts to disk
write pseudocanon orbital energies to disk
Timing for Total SCF: 10365.00s (wall), 20647.71s (cpu)
<S^2> of polarized wavefunction after polarization iterations 0.0000000000
relaxing scfmi constraint to allow all rotations in the entire AO span
Doing General SCFMI
 Exchange:     0.1670 Hartree-Fock + 1.0000 wB97X-V + LR-HF
 Correlation:  1.0000 wB97X-V
 Using Euler-Maclaurin-Lebedev (99,590) quadrature formula
 Nonlocal Correlation:  VV10 with C = 0.0100 and b = 6.00 and scale = 1.00000
 Grid used for NLC:  SG-1 standard quadrature
performing fock build at end of subrot_r(subrot) constructor so that all methods have access
<S^2> of polarized wavefunction before ct-allowed iterations 0.0000000000
Beginning iterations for the determination of the CT-Allowed wavefunction
Energy prior to optimization (guess energy) = -618.413163350313
Begin Timing: Total SCF Calculation
begin iterations for algorithm: DIIS         
the SCF tolerance is set to 1.00e-08
    1    -618.4131633503      5.19e-05     00000 
    2    -618.4137639210      4.98e-06     00000 
    3    -618.4137822707      9.26e-07     00000 
    4    -618.4137829626      5.94e-07     00000 
    5    -618.4137830320      1.21e-07     00000 
    6    -618.4137830397      3.73e-08     00000 
    7    -618.4137830402      1.23e-08     00000 
    8    -618.4137830403      3.42e-09     00000 Convergence criterion met
write pseudocanon occs and virts to disk
write pseudocanon orbital energies to disk
Timing for Total SCF: 7366.00s (wall), 14672.05s (cpu)
<S^2> of ct_allowed wavefunction after ct-allowed iterations 0.0000000000

================================
        Results of EDA2         
================================
Basic EDA Quantities
--------------------
Fragment Energies (Ha):
1 -271.5799764719
2 -346.8198723682
--------------------
  E_prp (kJ/mol) = -0.0000
  E_sol (kJ/mol) = 1.1633
  E_frz (kJ/mol) = -8.5059
  E_pol (kJ/mol) = -0.3671
  E_vct (kJ/mol) = -1.6270
  E_int (kJ/mol) = -9.3368
--------------------


Initial Wavefunction Decomposition
--------------------
  --------------------
  Orthogonal Fragment Subspace Decomposition:
  --------------------
     E_elec   (ELEC)   (kJ/mol) = -19.0685
     E_pauli  (PAULI)  (kJ/mol) = 26.6851
     E_disp   (DISP)   (kJ/mol) = -16.1225
     --------------------
     Terms summing to E_pauli:
     --------------------
        E_kep_pauli       (kJ/mol) = 34.7021
        E_disp_free_pauli (kJ/mol) = -8.0171
  --------------------
  Classical Frozen Decomposition:
  --------------------
     E_cls_elec  (CLS ELEC)  (kJ/mol) = -6.2047
     E_cls_pauli (CLS PAULI) (kJ/mol) = -2.3012
    [E_mod_pauli (MOD PAULI) (kJ/mol) = 13.8213 (CLS PAULI - DISP from orthogonal decomposition) ]
  --------------------
--------------------

Simplified EDA Summary (kJ/mol)
--------------------
 PREPARATION     -0.0000
 SOLVATION       1.1633
 FROZEN          7.6166      (does not include dispersion)
[PAULI           26.6851]     (if this is negligible, then frozen describes electrostatics)
 DISPERSION      -16.1225
 POLARIZATION    -0.3671
 CHARGE TRANSFER -1.6270
 TOTAL           -9.3368     (PRP + SOL + FRZ + DISP + POL + CT)
--------------------
 
 --------------------------------------------------------------
 
                    Orbital Energies (a.u.)
 --------------------------------------------------------------
 
 Alpha MOs
 -- Occupied --
-19.2399 -10.3302 -10.2751 -10.2712 -10.2678 -10.2666 -10.2653 -10.2650
-10.2649 -10.2635 -10.2624 -10.2614 -10.2604 -10.2539 -10.2528  -1.1867
 -0.9966  -0.9916  -0.9024  -0.8954  -0.8793  -0.8756  -0.8073  -0.8038
 -0.7413  -0.7257  -0.7086  -0.7007  -0.6583  -0.6259  -0.5970  -0.5742
 -0.5697  -0.5586  -0.5453  -0.5359  -0.5316  -0.5246  -0.5243  -0.5169
 -0.5084  -0.5021  -0.4789  -0.4717  -0.4711  -0.4493  -0.4412  -0.4349
 -0.4339  -0.4312  -0.3513  -0.3447  -0.3357  -0.3099
 -- Virtual --
  0.0592   0.0622   0.0699   0.0707   0.0730   0.0748   0.0790   0.0885
  0.0952   0.0987   0.1005   0.1090   0.1131   0.1180   0.1249   0.1297
  0.1367   0.1432   0.1506   0.1543   0.1595   0.1658   0.1690   0.1795
  0.1830   0.1848   0.1911   0.1958   0.2010   0.2070   0.2106   0.2136
  0.2186   0.2296   0.2319   0.2353   0.2399   0.2430   0.2467   0.2514
  0.2540   0.2575   0.2615   0.2639   0.2694   0.2726   0.2745   0.2816
  0.2836   0.2866   0.2874   0.2913   0.2940   0.2968   0.2987   0.3018
  0.3059   0.3071   0.3122   0.3178   0.3209   0.3231   0.3259   0.3312
  0.3371   0.3391   0.3423   0.3456   0.3478   0.3522   0.3547   0.3563
  0.3621   0.3626   0.3657   0.3673   0.3702   0.3718   0.3779   0.3787
  0.3806   0.3848   0.3922   0.3942   0.3953   0.3983   0.3991   0.4013
  0.4037   0.4087   0.4117   0.4179   0.4190   0.4222   0.4276   0.4294
  0.4309   0.4353   0.4376   0.4407   0.4420   0.4474   0.4529   0.4564
  0.4583   0.4614   0.4643   0.4654   0.4701   0.4741   0.4777   0.4800
  0.4815   0.4856   0.4871   0.4893   0.4963   0.4975   0.4988   0.5031
  0.5076   0.5094   0.5134   0.5173   0.5186   0.5223   0.5261   0.5334
  0.5372   0.5389   0.5434   0.5472   0.5522   0.5543   0.5586   0.5626
  0.5703   0.5718   0.5796   0.5830   0.5845   0.5898   0.5926   0.5930
  0.5953   0.6036   0.6108   0.6144   0.6180   0.6222   0.6255   0.6308
  0.6353   0.6393   0.6450   0.6514   0.6561   0.6613   0.6688   0.6734
  0.6776   0.6831   0.6878   0.6920   0.6945   0.6965   0.7036   0.7047
  0.7075   0.7158   0.7183   0.7208   0.7306   0.7330   0.7345   0.7435
  0.7455   0.7478   0.7524   0.7559   0.7604   0.7686   0.7706   0.7742
  0.7770   0.7789   0.7805   0.7820   0.7886   0.7922   0.7941   0.7987
  0.8009   0.8038   0.8050   0.8093   0.8128   0.8178   0.8196   0.8224
  0.8289   0.8311   0.8352   0.8360   0.8401   0.8442   0.8483   0.8510
  0.8526   0.8599   0.8640   0.8652   0.8692   0.8725   0.8744   0.8858
  0.8901   0.8917   0.8972   0.8987   0.9045   0.9061   0.9105   0.9158
  0.9219   0.9260   0.9331   0.9405   0.9501   0.9524   0.9574   0.9602
  0.9688   0.9737   0.9792   0.9809   0.9892   1.0030   1.0133   1.0222
  1.0304   1.0344   1.0443   1.0515   1.0646   1.0690   1.0722   1.0753
  1.0824   1.0867   1.0919   1.1032   1.1068   1.1155   1.1204   1.1302
  1.1347   1.1419   1.1550   1.1714   1.1783   1.1892   1.2041   1.2198
  1.2298   1.2476   1.2542   1.2706   1.2794   1.2920   1.2980   1.3063
  1.3238   1.3376   1.3430   1.3588   1.3640   1.3718   1.3791   1.3918
  1.3939   1.4068   1.4172   1.4316   1.4383   1.4553   1.4676   1.4729
  1.4753   1.4877   1.4938   1.5059   1.5124   1.5142   1.5268   1.5491
  1.5572   1.5584   1.5620   1.5830   1.6135   1.6232   1.6348   1.6418
  1.6476   1.6606   1.6659   1.6691   1.6964   1.7087   1.7165   1.7272
  1.7370   1.7597   1.7894   1.7939   1.8119   1.8177   1.8229   1.8339
  1.8480   1.8514   1.8562   1.8661   1.8745   1.8880   1.9124   1.9159
  1.9272   1.9408   1.9469   1.9523   1.9626   1.9658   1.9677   1.9728
  1.9846   1.9945   1.9986   2.0044   2.0169   2.0314   2.0389   2.0442
  2.0478   2.0557   2.0599   2.0689   2.0777   2.0846   2.0883   2.0967
  2.1038   2.1229   2.1299   2.1363   2.1432   2.1604   2.1736   2.1781
  2.1935   2.2042   2.2050   2.2157   2.2247   2.2427   2.2563   2.2619
  2.2695   2.2745   2.2877   2.3092   2.3143   2.3223   2.3309   2.3346
  2.3532   2.3776   2.3902   2.4053   2.4169   2.4277   2.4297   2.4314
  2.4416   2.4540   2.4622   2.4798   2.5051   2.5136   2.5337   2.5398
  2.5546   2.5736   2.5804   2.5868   2.6081   2.6159   2.6226   2.6281
  2.6410   2.6505   2.6573   2.6771   2.6809   2.6875   2.6891   2.7026
  2.7253   2.7302   2.7534   2.7608   2.7726   2.7827   2.7896   2.8018
  2.8090   2.8103   2.8316   2.8474   2.8497   2.8553   2.8641   2.8721
  2.8789   2.8947   2.9116   2.9246   2.9296   2.9393   2.9453   2.9511
  2.9645   2.9716   2.9737   2.9807   2.9879   3.0012   3.0081   3.0137
  3.0159   3.0254   3.0262   3.0412   3.0516   3.0619   3.0742   3.0824
  3.0854   3.0948   3.1119   3.1190   3.1260   3.1357   3.1419   3.1675
  3.1784   3.1828   3.2069   3.2161   3.2209   3.2300   3.2399   3.2445
  3.2565   3.2658   3.2695   3.2835   3.2872   3.2996   3.3039   3.3297
  3.3373   3.3431   3.3501   3.3606   3.3695   3.3892   3.3974   3.4039
  3.4143   3.4221   3.4279   3.4304   3.4407   3.4530   3.4685   3.4719
  3.4758   3.4810   3.4858   3.4926   3.4965   3.5073   3.5133   3.5258
  3.5269   3.5333   3.5352   3.5507   3.5603   3.5624   3.5650   3.5712
  3.5745   3.5819   3.5834   3.5917   3.6045   3.6091   3.6136   3.6245
  3.6316   3.6363   3.6474   3.6518   3.6565   3.6648   3.6747   3.6939
  3.7015   3.7117   3.7142   3.7186   3.7230   3.7289   3.7375   3.7638
  3.8130   3.8208   3.8487   3.8506   3.8575   3.8680   3.9003   3.9155
  3.9370   3.9505   3.9669   3.9725   3.9811   3.9917   4.0129   4.0394
  4.0567   4.0621   4.0973   4.1109   4.1378   4.1544   4.1743   4.2255
  4.2724   4.2945   4.3005   4.3065   4.3123   4.3181   4.3212   4.3293
  4.3465   4.3531   4.3575   4.3619   4.3699   4.3803   4.3842   4.4020
  4.4049   4.4193   4.4311   4.4380   4.4514   4.4655   4.4788   4.4944
  4.5038   4.5175   4.5640   4.5717   4.6180   4.6269   4.6371   4.6552
  4.7481   4.7672   4.7717   4.7892   4.7928   4.8330   4.8588   4.8694
  4.9166   4.9303   4.9480   4.9657   5.0350   5.0588   5.0769   5.0859
  5.0989   5.1440   5.1846   5.2006   5.2858   5.3210   5.3378   5.4103
  5.4191   5.4313   5.4512   5.5248   5.5368   5.5482   5.6106   5.6874
  5.7090   5.7455   5.7585   5.8257   5.9635   6.2115   6.4754   6.5805
  6.7077   6.8980   7.0418   7.3283   7.4669  22.6632  22.6788  22.7091
 22.7313  22.9601  22.9671  22.9854  23.0301  23.0688  23.0800  23.1554
 23.2088  23.4779  23.5293  44.4695
 --------------------------------------------------------------
 
          Ground-State Mulliken Net Atomic Charges

     Atom                 Charge (a.u.)
  ----------------------------------------
      1 C                    -1.238508
      2 C                    -0.465747
      3 C                    -0.424543
      4 C                    -0.548381
      5 C                     0.858246
      6 C                    -0.525032
      7 C                    -0.457055
      8 H                     0.370740
      9 H                     0.344632
     10 H                     0.411295
     11 H                     0.398959
     12 H                     0.287487
     13 H                     0.325418
     14 H                     0.421554
     15 H                     0.252422
     16 C                    -1.197038
     17 C                    -0.511540
     18 C                     0.541486
     19 C                    -0.704187
     20 C                     0.460685
     21 C                    -0.510515
     22 C                    -0.493765
     23 O                    -0.504705
     24 H                     0.513268
     25 H                     0.392504
     26 H                     0.384368
     27 H                     0.325656
     28 H                     0.309540
     29 H                     0.245280
     30 H                     0.426258
     31 H                     0.311218
  ----------------------------------------
  Sum of atomic charges =     0.000000

 -----------------------------------------------------------------
                    Cartesian Multipole Moments
 -----------------------------------------------------------------
    Charge (ESU x 10^10)
                -0.0000
    Dipole Moment (Debye)
         X      -1.1752      Y       1.4816      Z      -0.2572
       Tot       1.9085
    Quadrupole Moments (Debye-Ang)
        XX     -84.3111     XY      -8.0956     YY     -81.8757
        XZ      -0.5255     YZ      -8.9338     ZZ     -82.5630
    Octopole Moments (Debye-Ang^2)
       XXX       8.6896    XXY      -4.0314    XYY     -23.4266
       YYY      40.7975    XXZ      -5.6945    XYZ      -2.5573
       YYZ       1.3577    XZZ     -12.0764    YZZ      30.8509
       ZZZ      -8.1062
    Hexadecapole Moments (Debye-Ang^3)
      XXXX   -1325.7188   XXXY     573.5507   XXYY    -664.8006
      XYYY     508.3927   YYYY   -2971.8243   XXXZ     456.0826
      XXYZ    -170.3159   XYYZ     154.1497   YYYZ    -719.9666
      XXZZ    -491.4781   XYZZ     170.1694   YYZZ    -773.8805
      XZZZ     454.9323   YZZZ    -620.0744   ZZZZ   -1611.6261
 -----------------------------------------------------------------
Archival summary:
1\1\nid00564\SP\ProcedureUnspecified\BasisUnspecified\11416\meili\MonSep2709:38:552021MonSep2709:38:552021\0\\#,ProcedureUnspecified,BasisUnspecified,\\0,1\O\H,1,0.971318\C,1,1.36776,2,111.074\C,3,1.38924,1,120.358,2,-11.4755,0\H,4,1.07879,3,119.906,1,-0.0719799,0\C,4,1.38961,3,120.102,1,179.345,0\H,6,1.08135,4,118.908,3,-178.136,0\C,6,1.39491,4,120.801,3,0.550928,0\C,8,1.38643,6,118.551,4,-0.442558,0\H,9,1.08161,8,119.786,6,-178.23,0\C,9,1.38995,8,121.355,6,-0.14172,0\H,11,1.07917,9,120.533,8,-178.615,0\C,8,1.51278,6,121.655,4,-178.266,0\H,13,1.08423,8,106.685,6,76.359,0\H,13,1.09201,8,109.426,6,-168.07,0\H,13,1.1,8,115.574,6,-45.0007,0\H,1,2.87653,2,116.366,3,144.375,0\C,17,1.08094,1,111.429,2,-142.15,0\C,18,1.38307,17,119.342,1,70.7303,0\H,19,1.07565,18,120.247,17,0.364252,0\C,19,1.38162,18,120.353,17,179.764,0\H,21,1.08012,19,120.158,18,-179.185,0\C,21,1.37886,19,119.695,18,0.405049,0\H,23,1.0807,21,119.691,19,179.663,0\C,18,1.38491,17,120.229,1,-109.395,0\C,23,1.38593,21,120.062,19,-1.38448,0\H,26,1.07782,23,119.515,21,-179.581,0\C,25,1.50968,18,119.643,17,-2.14719,0\H,28,1.09136,25,109.248,18,-145.58,0\H,28,1.09278,25,107.865,18,-29.7629,0\H,28,1.1,25,114.16,18,91.0933,0\\\@

 Total job time:  100647.84s(wall), 67540.18s(cpu) 
 Mon Sep 27 09:38:58 2021

        *************************************************************
        *                                                           *
        *  Thank you very much for using Q-Chem.  Have a nice day.  *
        *                                                           *
        *************************************************************


