
Running Job 1 of 1 SSI-086ASP-112TRP-1_SMD_TZVPD.in
qchem SSI-086ASP-112TRP-1_SMD_TZVPD.in_9697.0 /tmp/qchem9697/ 0
/global/common/cori/software/qchem/5.2/exe/qcprog.exe_s SSI-086ASP-112TRP-1_SMD_TZVPD.in_9697.0 /tmp/qchem9697/
                  Welcome to Q-Chem
     A Quantum Leap Into The Future Of Chemistry


 Q-Chem 5.2, Q-Chem, Inc., Pleasanton, CA (2019)

 License issued to: National Energy Research Scientific Computing Center

 Yihan Shao,  Zhengting Gan,  E. Epifanovsky,  A. T. B. Gilbert,  M. Wormit,  
 J. Kussmann,  A. W. Lange,  A. Behn,  Jia Deng,  Xintian Feng,  D. Ghosh,  
 M. Goldey,  P. R. Horn,  L. D. Jacobson,  I. Kaliman,  T. Kus,  A. Landau,  
 Jie Liu,  E. I. Proynov,  R. M. Richard,  R. P. Steele,  E. J. Sundstrom,  
 H. L. Woodcock III,  P. M. Zimmerman,  D. Zuev,  B. Albrecht,  E. Alguire,  
 S. A. Baeppler,  D. Barton,  Z. Benda,  Y. A. Bernard,  E. J. Berquist,  
 K. B. Bravaya,  H. Burton,  D. Casanova,  Chun-Min Chang,  Yunqing Chen,  
 A. Chien,  K. D. Closser,  M. P. Coons,  S. Coriani,  S. Dasgupta,  
 A. L. Dempwolff,  M. Diedenhofen,  Hainam Do,  R. G. Edgar,  Po-Tung Fang,  
 S. Faraji,  S. Fatehi,  Qingguo Feng,  K. D. Fenk,  J. Fosso-Tande,  
 J. Gayvert,  Qinghui Ge,  A. Ghysels,  G. Gidofalvi,  J. Gomes,  
 J. Gonthier,  A. Gunina,  D. Hait,  M. W. D. Hanson-Heine,  
 P. H. P. Harbach,  A. W. Hauser,  M. F. Herbst,  J. E. Herr,  
 E. G. Hohenstein,  Z. C. Holden,  Kerwin Hui,  B. C. Huynh,  T.-C. Jagau,  
 Hyunjun Ji,  B. Kaduk,  K. Khistyaev,  Jaehoon Kim,  P. Klunzinger,  K. Koh,  
 D. Kosenkov,  L. Koulias,  T. Kowalczyk,  C. M. Krauter,  A. Kunitsa,  
 Ka Un Lao,  A. Laurent,  K. V. Lawler,  Joonho Lee,  D. Lefrancois,  
 S. Lehtola,  D. S. Levine,  Yi-Pei Li,  You-Sheng Lin,  Fenglai Liu,  
 E. Livshits,  A. Luenser,  P. Manohar,  E. Mansoor,  S. F. Manzer,  
 Shan-Ping Mao,  Yuezhi Mao,  N. Mardirossian,  A. V. Marenich,  
 T. Markovich,  L. A. Martinez-Martinez,  S. A. Maurer,  N. J. Mayhall,  
 S. C. McKenzie,  J.-M. Mewes,  P. Morgante,  A. F. Morrison,  
 J. W. Mullinax,  K. Nanda,  T. S. Nguyen-Beck,  R. Olivares-Amaya,  
 J. A. Parkhill,  Zheng Pei,  T. M. Perrine,  F. Plasser,  P. Pokhilko,  
 S. Prager,  A. Prociuk,  E. Ramos,  D. R. Rehn,  F. Rob,  M. Scheurer,  
 M. Schneider,  N. Sergueev,  S. M. Sharada,  S. Sharma,  D. W. Small,  
 T. Stauch,  T. Stein,  Yu-Chuan Su,  A. J. W. Thom,  A. Tkatchenko,  
 T. Tsuchimochi,  N. M. Tubman,  L. Vogt,  M. L. Vidal,  O. Vydrov,  
 M. A. Watson,  J. Wenzel,  M. de Wergifosse,  T. A. Wesolowski,  A. White,  
 J. Witte,  A. Yamada,  Jun Yang,  K. Yao,  S. Yeganeh,  S. R. Yost,  
 Zhi-Qiang You,  A. Zech,  Igor Ying Zhang,  Xing Zhang,  Yan Zhao,  
 Ying Zhu,  B. R. Brooks,  G. K. L. Chan,  C. J. Cramer,  M. S. Gordon,  
 W. J. Hehre,  A. Klamt,  M. W. Schmidt,  C. D. Sherrill,  D. G. Truhlar,  
 A. Aspuru-Guzik,  R. Baer,  A. T. Bell,  N. A. Besley,  Jeng-Da Chai,  
 A. E. DePrince, III,  R. A. DiStasio Jr.,  A. Dreuw,  B. D. Dunietz,  
 T. R. Furlani,  Chao-Ping Hsu,  Yousung Jung,  Jing Kong,  D. S. Lambrecht,  
 WanZhen Liang,  C. Ochsenfeld,  V. A. Rassolov,  L. V. Slipchenko,  
 J. E. Subotnik,  T. Van Voorhis,  J. M. Herbert,  A. I. Krylov,  
 P. M. W. Gill,  M. Head-Gordon

 Contributors to earlier versions of Q-Chem not listed above: 
 R. D. Adamson,  B. Austin,  J. Baker,  G. J. O. Beran,  K. Brandhorst,  
 S. T. Brown,  E. F. C. Byrd,  A. K. Chakraborty,  C.-L. Cheng,  
 Siu Hung Chien,  D. M. Chipman,  D. L. Crittenden,  H. Dachsel,  
 R. J. Doerksen,  A. D. Dutoi,  L. Fusti-Molnar,  W. A. Goddard III,  
 A. Golubeva-Zadorozhnaya,  S. R. Gwaltney,  G. Hawkins,  A. Heyden,  
 S. Hirata,  G. Kedziora,  F. J. Keil,  C. Kelley,  Jihan Kim,  R. A. King,  
 R. Z. Khaliullin,  P. P. Korambath,  W. Kurlancheek,  A. M. Lee,  M. S. Lee,  
 S. V. Levchenko,  Ching Yeh Lin,  D. Liotard,  R. C. Lochan,  I. Lotan,  
 P. E. Maslen,  N. Nair,  D. P. O'Neill,  D. Neuhauser,  E. Neuscamman,  
 C. M. Oana,  R. Olson,  B. Peters,  R. Peverati,  P. A. Pieniazek,  
 Y. M. Rhee,  J. Ritchie,  M. A. Rohrdanz,  E. Rosta,  N. J. Russ,  
 H. F. Schaefer III,  N. E. Schultz,  N. Shenvi,  A. C. Simmonett,  A. Sodt,  
 D. Stuck,  K. S. Thanthiriwatte,  V. Vanovschi,  Tao Wang,  A. Warshel,  
 C. F. Williams,  Q. Wu,  X. Xu,  W. Zhang

 Please cite Q-Chem as follows:
 Y. Shao et al., Mol. Phys. 113, 184-215 (2015)
 DOI: 10.1080/00268976.2014.952696

 Q-Chem 5.2.0 for Intel X86 EM64T Linux

 Parts of Q-Chem use Armadillo 8.300.2 (Tropical Shenanigans).
 http://arma.sourceforge.net/

 Q-Chem begins on Sun Sep 26 12:09:53 2021  

Host: cori01
0

     Scratch files written to /tmp/qchem9697//
 May1019 |scratch|qcdevops|jenkins|workspace|build_RNUM -1
Processing $rem in /global/common/cori/software/qchem/5.2/config/preferences:
	 MEM_TOTAL  96000 
NAlpha2: 102
NElect   102
Mult     1
Symmetry turned off for PCM/SM12/SMD calculation

 Q-Chem warning in module libgen/rem_setup.C, line 2803:

 Neither GIA nor STOLL is specified by user. Use STOLL as the default


Checking the input file for inconsistencies... 	...done.

--------------------------------------------------------------
User input:
--------------------------------------------------------------
$comment
SSI-086ASP-112TRP-1.pdb
$end

$molecule
-1 1
--
-1 1
C    1.963732523639   -2.135012465383   -4.293955636809
C    2.611732523639   -1.046012465383   -3.459955636809
O    2.414732523639   -1.004012465383   -2.223955636809
O    3.315732523639   -0.206012465383   -4.067955636809
H    2.731732523639   -2.668012465383   -4.850955636809
H    1.264732523639   -1.674012465383   -4.995955636809
H    1.417432523639   -2.883612465383   -3.701405636809
--
0 1
C    1.734732523639    0.376987534617    2.455044363191
C    0.443732523639   -0.055012465383    0.248044363191
C    0.484732523639    0.289987534617    1.567044363191
C   -1.702267476361    0.360987534617    0.792044363191
C   -0.885267476361    0.555987534617    1.943044363191
C   -3.087267476361    0.539987534617    0.811044363191
C   -1.514267476361    0.944987534617    3.140044363191
C   -3.687267476361    0.916987534617    2.014044363191
C   -2.912267476361    1.112987534617    3.164044363191
N   -0.858267476361   -0.019012465383   -0.221955636809
H    1.365732523639   -0.305012465383   -0.263955636809
H   -1.153267476361   -0.247012465383   -1.165955636809
H    2.429732523639   -0.395012465383    2.116044363191
H    1.427732523639    0.140987534617    3.479044363191
H   -3.648267476361    0.378987534617   -0.098955636809
H   -0.948267476361    1.120987534617    4.050044363191
H   -4.756267476361    1.058987534617    2.064044363191
H   -3.389267476361    1.398987534617    4.091044363191
H    2.225712523639    1.361087534617    2.433054363191
$end

$rem
JOBTYPE			EDA
EDA2			1
method			wB97X-V
BASIS			def2-TZVPD
XC_GRID			000099000590
NL_GRID			1
UNRESTRICTED		FALSE
MAX_SCF_CYCLES		200
SYMMETRY		FALSE
SYM_IGNORE		TRUE
MEM_STATIC		2000
BASIS_LIN_DEP_THRESH 	6
THRESH 			14
SCF_CONVERGENCE 	8
SCF_PRINT_FRGM 		TRUE
SOLVENT_METHOD          SMD
$end

$SMX
SOLVENT			WATER
$END
--------------------------------------------------------------
 ----------------------------------------------------------------
             Standard Nuclear Orientation (Angstroms)
    I     Atom           X                Y                Z
 ----------------------------------------------------------------
    1      C       1.9637325236    -2.1350124654    -4.2939556368
    2      C       2.6117325236    -1.0460124654    -3.4599556368
    3      O       2.4147325236    -1.0040124654    -2.2239556368
    4      O       3.3157325236    -0.2060124654    -4.0679556368
    5      H       2.7317325236    -2.6680124654    -4.8509556368
    6      H       1.2647325236    -1.6740124654    -4.9959556368
    7      H       1.4174325236    -2.8836124654    -3.7014056368
    8      C       1.7347325236     0.3769875346     2.4550443632
    9      C       0.4437325236    -0.0550124654     0.2480443632
   10      C       0.4847325236     0.2899875346     1.5670443632
   11      C      -1.7022674764     0.3609875346     0.7920443632
   12      C      -0.8852674764     0.5559875346     1.9430443632
   13      C      -3.0872674764     0.5399875346     0.8110443632
   14      C      -1.5142674764     0.9449875346     3.1400443632
   15      C      -3.6872674764     0.9169875346     2.0140443632
   16      C      -2.9122674764     1.1129875346     3.1640443632
   17      N      -0.8582674764    -0.0190124654    -0.2219556368
   18      H       1.3657325236    -0.3050124654    -0.2639556368
   19      H      -1.1532674764    -0.2470124654    -1.1659556368
   20      H       2.4297325236    -0.3950124654     2.1160443632
   21      H       1.4277325236     0.1409875346     3.4790443632
   22      H      -3.6482674764     0.3789875346    -0.0989556368
   23      H      -0.9482674764     1.1209875346     4.0500443632
   24      H      -4.7562674764     1.0589875346     2.0640443632
   25      H      -3.3892674764     1.3989875346     4.0910443632
   26      H       2.2257125236     1.3610875346     2.4330543632
 ----------------------------------------------------------------
 Nuclear Repulsion Energy =         775.57095283 hartrees
 There are       51 alpha and       51 beta electrons
 Requested basis set is def2-TZVPD
 There are 244 shells and 632 basis functions

 Total QAlloc Memory Limit  96000 MB
 Mega-Array Size      1956 MB
 MEM_STATIC part      2000 MB
 
 Citation of the SMD model:
 Marenich, A.V.; Cramer, C.J.; Truhlar, D.G.
 J. Phys. Chem. B 2009, 113, 6378-6396.
 iSolventCode=           1
 Solvent: water                                                           
 
 vradii
            1           2           3           4           5           6
    1   1.8500000   1.8500000   1.5200000   1.5200000   1.2000000   1.2000000
            7           8           9          10          11          12
    1   1.2000000   1.8500000   1.8500000   1.8500000   1.8500000   1.8500000
           13          14          15          16          17          18
    1   1.8500000   1.8500000   1.8500000   1.8500000   1.8900000   1.2000000
           19          20          21          22          23          24
    1   1.2000000   1.2000000   1.2000000   1.2000000   1.2000000   1.2000000
           25          26
    1   1.2000000   1.2000000
 Changing PCM_VDW_RADII to SMD_RADIUS
 Discretize the solute cavity surface with Lebedev spheres
	Using 110 Lebedev grid points for each H atom
	Using 194 Lebedev grid points for other atoms
	Atomic van der Waals radii will be scaled by 1.20
 Remove points where switching function is < 1.0e-08
 Keep 2007 surface tesserae and discard 2029 interior tesserae
 Molecular Surface Area = 242.845 Angst**2
 A cutoff of  1.0D-14 yielded  24310 shell pairs
 There are    163084 function pairs (    207507 Cartesian)
 Smallest overlap matrix eigenvalue = 4.56E-07
 Linear dependence detected in AO basis
 Tighter screening thresholds may be required for diffuse basis sets
 Use S2THRESH > 14 and THRESH = 14 in case of SCF convergence issues
 Number of orthogonalized atomic orbitals = 629
 Maximum deviation from orthogonality = 1.149E-10

 Scale SEOQF with 1.000000e-01/1.000000e-01/1.000000e-01

 Standard Electronic Orientation quadrupole field applied
 Nucleus-field energy     =    -0.0000000501 hartrees

 -----------------------------------------------------------------------
  General SCF calculation program by
  Eric Jon Sundstrom, Paul Horn, Yuezhi Mao, Dmitri Zuev, Alec White,
  David Stuck, Shaama M.S., Shane Yost, Joonho Lee, David Small,
  Daniel Levine, Susi Lehtola, Hugh Burton, Evgeny Epifanovsky
 -----------------------------------------------------------------------
================================================================
                 ALMO-EDA with the EDA2 driver                  
================================================================
 The second-generation ALMO-EDA (for DFT):                      
 P. R. Horn, Y. Mao and M. Head-Gordon, PCCP, 18, 23067 (2016)  
 Decomposition of the frozen energy:                            
 P. R. Horn, Y. Mao and M. Head-Gordon, JCP, 144, 114107 (2016) 
 FERF model for polarization:                                   
 P. R. Horn and M. Head-Gordon, JCP, 143, 114111 (2015)         
Using eda2 option set 1
Option set summary: Frozen orbital wavefunction, initial wavefunction decomposition, and nDQ polarization.
--------------------------------
Printing EDA Options
--------------------------------
eda_child_super_basis      0
fragmo_guess_mode          0
child_mp                   1
child_mp_orders            232
cls_elec                   1
cls_disp                   0
scfmi_mode                 1
scfmi_occs                 0
scfmi_virts                0
frz_relax                  0
frz_relax_method           0
dc_pen_start               0
dc_pen_conv                0
dc_pen_increment           0
dc_pen_steps               0
dc_pen_thresh_factor       0
dc_pen_pre_newton_thresh   0
frz_ortho_decomp           1
frz_ortho_decomp_conv      6
frgm_method                2
scfmi_freeze_ss            0
separate_rehyb             0
plot_diff_den              0
eda_nocv                   0
eda_vct_relax              1
disp_free_x                0
disp_free_c                0
eda_bsse                   0
eda_pct_a                  0
eda_covp                   0
--------------------------------
Attempting to make child job directory: /tmp/qchem9697//Frg1/
Attempting to make child job directory: /tmp/qchem9697//Frg2/
Creating input file /tmp/qchem9697/Frg1.input
using default PutDataFrgm: nothing
calling putenv with: QCSCRATCH=/tmp/qchem9697/ 
calling putenv with: QCLOCALSCR=/tmp/qchem9697/ 
Spawning Job For Fragment 0
                  Welcome to Q-Chem
     A Quantum Leap Into The Future Of Chemistry


 Q-Chem 5.2, Q-Chem, Inc., Pleasanton, CA (2019)

 License issued to: National Energy Research Scientific Computing Center

 Yihan Shao,  Zhengting Gan,  E. Epifanovsky,  A. T. B. Gilbert,  M. Wormit,  
 J. Kussmann,  A. W. Lange,  A. Behn,  Jia Deng,  Xintian Feng,  D. Ghosh,  
 M. Goldey,  P. R. Horn,  L. D. Jacobson,  I. Kaliman,  T. Kus,  A. Landau,  
 Jie Liu,  E. I. Proynov,  R. M. Richard,  R. P. Steele,  E. J. Sundstrom,  
 H. L. Woodcock III,  P. M. Zimmerman,  D. Zuev,  B. Albrecht,  E. Alguire,  
 S. A. Baeppler,  D. Barton,  Z. Benda,  Y. A. Bernard,  E. J. Berquist,  
 K. B. Bravaya,  H. Burton,  D. Casanova,  Chun-Min Chang,  Yunqing Chen,  
 A. Chien,  K. D. Closser,  M. P. Coons,  S. Coriani,  S. Dasgupta,  
 A. L. Dempwolff,  M. Diedenhofen,  Hainam Do,  R. G. Edgar,  Po-Tung Fang,  
 S. Faraji,  S. Fatehi,  Qingguo Feng,  K. D. Fenk,  J. Fosso-Tande,  
 J. Gayvert,  Qinghui Ge,  A. Ghysels,  G. Gidofalvi,  J. Gomes,  
 J. Gonthier,  A. Gunina,  D. Hait,  M. W. D. Hanson-Heine,  
 P. H. P. Harbach,  A. W. Hauser,  M. F. Herbst,  J. E. Herr,  
 E. G. Hohenstein,  Z. C. Holden,  Kerwin Hui,  B. C. Huynh,  T.-C. Jagau,  
 Hyunjun Ji,  B. Kaduk,  K. Khistyaev,  Jaehoon Kim,  P. Klunzinger,  K. Koh,  
 D. Kosenkov,  L. Koulias,  T. Kowalczyk,  C. M. Krauter,  A. Kunitsa,  
 Ka Un Lao,  A. Laurent,  K. V. Lawler,  Joonho Lee,  D. Lefrancois,  
 S. Lehtola,  D. S. Levine,  Yi-Pei Li,  You-Sheng Lin,  Fenglai Liu,  
 E. Livshits,  A. Luenser,  P. Manohar,  E. Mansoor,  S. F. Manzer,  
 Shan-Ping Mao,  Yuezhi Mao,  N. Mardirossian,  A. V. Marenich,  
 T. Markovich,  L. A. Martinez-Martinez,  S. A. Maurer,  N. J. Mayhall,  
 S. C. McKenzie,  J.-M. Mewes,  P. Morgante,  A. F. Morrison,  
 J. W. Mullinax,  K. Nanda,  T. S. Nguyen-Beck,  R. Olivares-Amaya,  
 J. A. Parkhill,  Zheng Pei,  T. M. Perrine,  F. Plasser,  P. Pokhilko,  
 S. Prager,  A. Prociuk,  E. Ramos,  D. R. Rehn,  F. Rob,  M. Scheurer,  
 M. Schneider,  N. Sergueev,  S. M. Sharada,  S. Sharma,  D. W. Small,  
 T. Stauch,  T. Stein,  Yu-Chuan Su,  A. J. W. Thom,  A. Tkatchenko,  
 T. Tsuchimochi,  N. M. Tubman,  L. Vogt,  M. L. Vidal,  O. Vydrov,  
 M. A. Watson,  J. Wenzel,  M. de Wergifosse,  T. A. Wesolowski,  A. White,  
 J. Witte,  A. Yamada,  Jun Yang,  K. Yao,  S. Yeganeh,  S. R. Yost,  
 Zhi-Qiang You,  A. Zech,  Igor Ying Zhang,  Xing Zhang,  Yan Zhao,  
 Ying Zhu,  B. R. Brooks,  G. K. L. Chan,  C. J. Cramer,  M. S. Gordon,  
 W. J. Hehre,  A. Klamt,  M. W. Schmidt,  C. D. Sherrill,  D. G. Truhlar,  
 A. Aspuru-Guzik,  R. Baer,  A. T. Bell,  N. A. Besley,  Jeng-Da Chai,  
 A. E. DePrince, III,  R. A. DiStasio Jr.,  A. Dreuw,  B. D. Dunietz,  
 T. R. Furlani,  Chao-Ping Hsu,  Yousung Jung,  Jing Kong,  D. S. Lambrecht,  
 WanZhen Liang,  C. Ochsenfeld,  V. A. Rassolov,  L. V. Slipchenko,  
 J. E. Subotnik,  T. Van Voorhis,  J. M. Herbert,  A. I. Krylov,  
 P. M. W. Gill,  M. Head-Gordon

 Contributors to earlier versions of Q-Chem not listed above: 
 R. D. Adamson,  B. Austin,  J. Baker,  G. J. O. Beran,  K. Brandhorst,  
 S. T. Brown,  E. F. C. Byrd,  A. K. Chakraborty,  C.-L. Cheng,  
 Siu Hung Chien,  D. M. Chipman,  D. L. Crittenden,  H. Dachsel,  
 R. J. Doerksen,  A. D. Dutoi,  L. Fusti-Molnar,  W. A. Goddard III,  
 A. Golubeva-Zadorozhnaya,  S. R. Gwaltney,  G. Hawkins,  A. Heyden,  
 S. Hirata,  G. Kedziora,  F. J. Keil,  C. Kelley,  Jihan Kim,  R. A. King,  
 R. Z. Khaliullin,  P. P. Korambath,  W. Kurlancheek,  A. M. Lee,  M. S. Lee,  
 S. V. Levchenko,  Ching Yeh Lin,  D. Liotard,  R. C. Lochan,  I. Lotan,  
 P. E. Maslen,  N. Nair,  D. P. O'Neill,  D. Neuhauser,  E. Neuscamman,  
 C. M. Oana,  R. Olson,  B. Peters,  R. Peverati,  P. A. Pieniazek,  
 Y. M. Rhee,  J. Ritchie,  M. A. Rohrdanz,  E. Rosta,  N. J. Russ,  
 H. F. Schaefer III,  N. E. Schultz,  N. Shenvi,  A. C. Simmonett,  A. Sodt,  
 D. Stuck,  K. S. Thanthiriwatte,  V. Vanovschi,  Tao Wang,  A. Warshel,  
 C. F. Williams,  Q. Wu,  X. Xu,  W. Zhang

 Please cite Q-Chem as follows:
 Y. Shao et al., Mol. Phys. 113, 184-215 (2015)
 DOI: 10.1080/00268976.2014.952696

 Q-Chem 5.2.0 for Intel X86 EM64T Linux

 Parts of Q-Chem use Armadillo 8.300.2 (Tropical Shenanigans).
 http://arma.sourceforge.net/

 Q-Chem begins on Sun Sep 26 12:09:59 2021  

Host: cori01
0

     Scratch files written to /tmp/qchem9697//Frg1//
 May1019 |scratch|qcdevops|jenkins|workspace|build_RNUM -1
Processing $rem in /global/common/cori/software/qchem/5.2/config/preferences:
	 MEM_TOTAL  96000 
NAlpha2: 32
NElect   32
Mult     1
Symmetry turned off for PCM/SM12/SMD calculation

Checking the input file for inconsistencies... 	...done.

--------------------------------------------------------------
User input:
--------------------------------------------------------------
$molecule
-1 1
 6	1.9637325236	-2.1350124654	-4.2939556368
 6	2.6117325236	-1.0460124654	-3.4599556368
 8	2.4147325236	-1.0040124654	-2.2239556368
 8	3.3157325236	-0.2060124654	-4.0679556368
 1	2.7317325236	-2.6680124654	-4.8509556368
 1	1.2647325236	-1.6740124654	-4.9959556368
 1	1.4174325236	-2.8836124654	-3.7014056368
$end
$rem
EDA2		1
METHOD		WB97X-V
BASIS		DEF2-TZVPD
XC_GRID		000099000590
NL_GRID		1
UNRESTRICTED		FALSE
MAX_SCF_CYCLES		200
SYMMETRY		FALSE
SYM_IGNORE		TRUE
BASIS_LIN_DEP_THRESH		6
THRESH		14
SCF_CONVERGENCE		8
SCF_PRINT_FRGM		TRUE
SOLVENT_METHOD		SMD
!required keywords
JOBTYPE		SP
SYM_IGNORE		TRUE
SUBSYSTEM		TRUE
GEN_SCFMAN		TRUE
CHILD_INSTRUCTION		2
SYM_IGNORE		TRUE
SCFMI		0
RI_K 0		
PARI_K 0		
MIN_PARI_K 0		
IARI_K 0		
OCC_RI_K 0		
PURECART		1111
MEM_STATIC		2000
MEM_TOTAL		96000
GUI		0
CHILD_MP		1
CHILD_MP_ORDERS		232
FRZ_RELAX		0
FRZ_RELAX_METHOD		0
EDA_CLS_ELEC		1
EDA_CLS_DISP		0
FRZ_ORTHO_DECOMP		1
EDA2		FALSE
FRGM_METHOD		FALSE
CIS_N_ROOTS  0
LOCAL_CIS    0
CIS_RLX_DNS  1
$end
$smx
SOLVENT			WATER
$end
--------------------------------------------------------------
 ----------------------------------------------------------------
             Standard Nuclear Orientation (Angstroms)
    I     Atom           X                Y                Z
 ----------------------------------------------------------------
    1      C       1.9637325236    -2.1350124654    -4.2939556368
    2      C       2.6117325236    -1.0460124654    -3.4599556368
    3      O       2.4147325236    -1.0040124654    -2.2239556368
    4      O       3.3157325236    -0.2060124654    -4.0679556368
    5      H       2.7317325236    -2.6680124654    -4.8509556368
    6      H       1.2647325236    -1.6740124654    -4.9959556368
    7      H       1.4174325236    -2.8836124654    -3.7014056368
 ----------------------------------------------------------------
 Nuclear Repulsion Energy =         112.63301700 hartrees
 There are       16 alpha and       16 beta electrons
 Requested basis set is def2-TZVPD
 There are 69 shells and 181 basis functions

 Total QAlloc Memory Limit  96000 MB
 Mega-Array Size      1956 MB
 MEM_STATIC part      2000 MB
 
 Citation of the SMD model:
 Marenich, A.V.; Cramer, C.J.; Truhlar, D.G.
 J. Phys. Chem. B 2009, 113, 6378-6396.
 iSolventCode=           1
 Solvent: water                                                           
 
 vradii
            1           2           3           4           5           6
    1   1.8500000   1.8500000   1.5200000   1.5200000   1.2000000   1.2000000
            7
    1   1.2000000
 Changing PCM_VDW_RADII to SMD_RADIUS
 Discretize the solute cavity surface with Lebedev spheres
	Using 110 Lebedev grid points for each H atom
	Using 194 Lebedev grid points for other atoms
	Atomic van der Waals radii will be scaled by 1.20
 Remove points where switching function is < 1.0e-08
 Keep 647 surface tesserae and discard 459 interior tesserae
 Molecular Surface Area = 79.913 Angst**2

                       Distance Matrix (Angstroms)
             C (  1)   C (  2)   O (  3)   O (  4)   H (  5)   H (  6)
   C (  2)  1.517030
   O (  3)  2.401554  1.252305
   O (  4)  2.366436  1.253348  2.202031
   H (  5)  1.088192  2.140132  3.125782  2.648696
   H (  6)  1.092669  2.137309  3.074961  2.687528  1.777962
   H (  7)  1.099982  2.204864  2.590437  3.302642  1.759356  1.778288

 
 A cutoff of  1.0D-14 yielded   2390 shell pairs
 There are     16694 function pairs (     21490 Cartesian)
 Smallest overlap matrix eigenvalue = 1.65E-05

 Scale SEOQF with 1.000000e-01/1.000000e-01/1.000000e-01

 Standard Electronic Orientation quadrupole field applied
 Nucleus-field energy     =    -0.0000000328 hartrees
 Guess from superposition of atomic densities
 Warning:  Energy on first SCF cycle will be non-variational
 SAD guess density has 30.625312 electrons

 -----------------------------------------------------------------------
  General SCF calculation program by
  Eric Jon Sundstrom, Paul Horn, Yuezhi Mao, Dmitri Zuev, Alec White,
  David Stuck, Shaama M.S., Shane Yost, Joonho Lee, David Small,
  Daniel Levine, Susi Lehtola, Hugh Burton, Evgeny Epifanovsky
 -----------------------------------------------------------------------
 Exchange:     0.1670 Hartree-Fock + 1.0000 wB97X-V + LR-HF
 Correlation:  1.0000 wB97X-V
 Using Euler-Maclaurin-Lebedev (99,590) quadrature formula
 Nonlocal Correlation:  VV10 with C = 0.0100 and b = 6.00 and scale = 1.00000
 Grid used for NLC:  SG-1 standard quadrature
Energy prior to optimization (guess energy) = -227.762185692165
Begin Timing: Total SCF Calculation
begin iterations for algorithm: DIIS         
the SCF tolerance is set to 1.00e-08
    1    -227.7621856922      1.66e-02     00000 
    2    -225.6288794935      2.49e-02     00000 
    3    -228.6068763803      4.07e-03     00000 
    4    -228.6595514261      1.39e-03     00000 
    5    -228.6654965767      2.78e-04     00000 
    6    -228.6657543303      1.95e-04     00000 
    7    -228.6658557223      5.13e-05     00000 
    8    -228.6658658137      1.33e-05     00000 
    9    -228.6658669421      3.80e-06     00000 
   10    -228.6658670519      1.11e-06     00000 
   11    -228.6658670622      2.29e-07     00000 
   12    -228.6658670626      5.17e-08     00000 
   13    -228.6658670627      1.31e-08     00000 
   14    -228.6658670627      3.34e-09     00000 Convergence criterion met
Timing for Total SCF: 275.00s (wall), 538.59s (cpu)
(3)  G-ENP(liq) elect-nuc-pol free energy of system     -228.665867063 a.u.
(4)  G-CDS(liq) cavity-dispersion-solvent structure 
     free energy                                                3.8798 kcal/mol
(6)  G-S(liq) free energy of system                     -228.659684263 a.u.
E_pcm = -0.1311217800
E_cds = 0.0061827996
Multipole orders to be included
        2
        3
computing dipole RHS
computing quadrupole RHS
total number of RHS in solve_reponses: 8
RHS batch sizes
        8
Beginning Block Conjugate Gradient Iterations. Batch Number: 0
computing hessian-vector products by finite difference
              1      7.19e-01     00000 Conjugate Gradient Iteration
computing hessian-vector products by finite difference
              2      2.29e-01     00000 Conjugate Gradient Iteration
computing hessian-vector products by finite difference
              3      6.27e-02     00000 Conjugate Gradient Iteration
computing hessian-vector products by finite difference
              4      1.65e-02     00000 Conjugate Gradient Iteration
computing hessian-vector products by finite difference
              5      2.41e-03     00000 Conjugate Gradient Iteration
computing hessian-vector products by finite difference
              6      6.17e-04     00000 Conjugate Gradient Iteration
computing hessian-vector products by finite difference
              7      8.58e-05     00000 Conjugate Gradient Iteration
computing hessian-vector products by finite difference
              8      1.04e-05     00000 Conjugate Gradient Iteration
computing hessian-vector products by finite difference
              9      1.69e-06     00000 Conjugate Gradient Iteration
computing hessian-vector products by finite difference
             10      2.44e-07     00000 Conjugate Gradient Iteration
computing hessian-vector products by finite difference
             11      3.89e-08     00000 Conjugate Gradient Iteration
computing hessian-vector products by finite difference
             12      1.47e-08     00000 Conjugate Gradient Iteration
computing hessian-vector products by finite difference
             13      1.81e-09     00000 CG Converged
batch 0 complete
Done Calculating Responses
TESTING ORTHOGONALIZATION OF MULTIPOLE BASIS
Multipole virts passed orthogonality test
Virts Per Order
        48
        80
 
 --------------------------------------------------------------
 
                    Orbital Energies (a.u.)
 --------------------------------------------------------------
 
 Alpha MOs
 -- Occupied --
-19.1544 -19.1523 -10.3548 -10.2464  -1.1650  -1.0654  -0.8410  -0.6187
 -0.5488  -0.5472  -0.5408  -0.4794  -0.4638  -0.3657  -0.3583  -0.3452
 -- Virtual --
  0.0670   0.0998   0.1008   0.1072   0.1353   0.1445   0.1456   0.1494
  0.1568   0.1907   0.2022   0.2291   0.2322   0.2380   0.2603   0.2644
  0.2975   0.3163   0.3337   0.3454   0.3512   0.3611   0.3706   0.3853
  0.3913   0.3959   0.4143   0.4260   0.4290   0.4563   0.4676   0.4722
  0.4838   0.4893   0.5058   0.5093   0.5483   0.5559   0.5831   0.6013
  0.6093   0.6234   0.6251   0.6494   0.6566   0.6692   0.6772   0.6982
  0.7084   0.7248   0.7653   0.7897   0.8050   0.8112   0.8328   0.8442
  0.8625   0.9548   0.9670   0.9794   0.9867   1.0357   1.0384   1.1076
  1.1612   1.1793   1.2445   1.2614   1.2817   1.3032   1.3309   1.3357
  1.4406   1.5570   1.5886   1.7358   1.8035   1.8384   1.8563   1.8956
  1.9053   1.9406   1.9477   1.9588   2.0113   2.0962   2.1114   2.1481
  2.1903   2.2087   2.3059   2.3210   2.3886   2.4285   2.4591   2.4786
  2.5634   2.5827   2.6172   2.6504   2.7746   2.8114   2.8722   2.9215
  2.9423   2.9705   3.0028   3.1709   3.1845   3.2349   3.2626   3.3028
  3.3278   3.3330   3.3802   3.4003   3.4123   3.5222   3.5391   3.5503
  3.5973   3.6328   3.6731   3.7178   3.7571   3.8826   3.9243   4.0324
  4.0741   4.1869   4.3608   4.5332   4.6087   4.6643   4.7842   4.8112
  4.9746   5.2968   5.3240   5.3341   5.3399   5.4681   5.6822   5.7335
  5.7852   5.9886   6.2065   6.3116   6.3166   6.5877   6.5959   6.6851
  6.7098   6.7249   6.9224   6.9437   7.0063   7.2155   7.3264   7.3528
  7.3810  22.5955  23.7109  44.1915  44.3123
 --------------------------------------------------------------
 
          Ground-State Mulliken Net Atomic Charges

     Atom                 Charge (a.u.)
  ----------------------------------------
      1 C                    -0.588893
      2 C                     0.502297
      3 O                    -0.767694
      4 O                    -0.777697
      5 H                     0.209670
      6 H                     0.202817
      7 H                     0.219500
  ----------------------------------------
  Sum of atomic charges =    -1.000000

 -----------------------------------------------------------------
                    Cartesian Multipole Moments
 -----------------------------------------------------------------
    Charge (ESU x 10^10)
                -4.8032
    Dipole Moment (Debye)
         X     -14.7575      Y       1.2027      Z      13.8570
       Tot      20.2792
    Quadrupole Moments (Debye-Ang)
        XX     -71.8132     XY       2.5946     YY     -25.6389
        XZ      46.9288     YZ       0.7753     ZZ     -72.1193
    Octopole Moments (Debye-Ang^2)
       XXX    -342.8671    XXY      34.6766    XYY     -64.0494
       YYY      86.3202    XXZ     248.3493    XYZ       2.4974
       YYZ      84.9388    XZZ    -234.8659    YZZ      16.3011
       ZZZ     450.3640
    Hexadecapole Moments (Debye-Ang^3)
      XXXX   -1549.6933   XXXY     204.6201   XXYY    -225.2681
      XYYY     188.6336   YYYY    -318.2892   XXXZ    1223.1348
      XXYZ    -100.3978   XYYZ     210.7190   YYYZ    -312.4168
      XXZZ   -1119.8974   XYZZ      32.0911   YYZZ    -366.5216
      XZZZ    1368.6223   YZZZ    -259.9131   ZZZZ   -2820.2477
 -----------------------------------------------------------------
Archival summary:
1\1\nid00562\SP\ProcedureUnspecified\BasisUnspecified\223(1-,1)\meili\SunSep2613:30:242021SunSep2613:30:242021\0\\#,ProcedureUnspecified,BasisUnspecified,\\-1,1\C\O,1,1.25231\O,1,1.25335,2,123.002\C,1,1.51703,2,119.966,3,-178.846,0\H,4,1.08819,1,109.362,2,-124.85,0\H,4,1.09267,1,108.88,2,115.872,0\H,4,1.09998,1,113.862,2,-5.18524,0\\\@

 Total job time:  4824.83s(wall), 9426.73s(cpu) 
 Sun Sep 26 13:30:24 2021

        *************************************************************
        *                                                           *
        *  Thank you very much for using Q-Chem.  Have a nice day.  *
        *                                                           *
        *************************************************************


Done Job For Fragment 0
calling putenv with: QCSCRATCH=/global/cscratch1/sd/meili 
calling putenv with: QCLOCALSCR=/tmp 
calling putenv with: QCTHREADS=32 
Creating input file /tmp/qchem9697/Frg2.input
using default PutDataFrgm: nothing
calling putenv with: QCSCRATCH=/tmp/qchem9697/ 
calling putenv with: QCLOCALSCR=/tmp/qchem9697/ 
Spawning Job For Fragment 1
                  Welcome to Q-Chem
     A Quantum Leap Into The Future Of Chemistry


 Q-Chem 5.2, Q-Chem, Inc., Pleasanton, CA (2019)

 License issued to: National Energy Research Scientific Computing Center

 Yihan Shao,  Zhengting Gan,  E. Epifanovsky,  A. T. B. Gilbert,  M. Wormit,  
 J. Kussmann,  A. W. Lange,  A. Behn,  Jia Deng,  Xintian Feng,  D. Ghosh,  
 M. Goldey,  P. R. Horn,  L. D. Jacobson,  I. Kaliman,  T. Kus,  A. Landau,  
 Jie Liu,  E. I. Proynov,  R. M. Richard,  R. P. Steele,  E. J. Sundstrom,  
 H. L. Woodcock III,  P. M. Zimmerman,  D. Zuev,  B. Albrecht,  E. Alguire,  
 S. A. Baeppler,  D. Barton,  Z. Benda,  Y. A. Bernard,  E. J. Berquist,  
 K. B. Bravaya,  H. Burton,  D. Casanova,  Chun-Min Chang,  Yunqing Chen,  
 A. Chien,  K. D. Closser,  M. P. Coons,  S. Coriani,  S. Dasgupta,  
 A. L. Dempwolff,  M. Diedenhofen,  Hainam Do,  R. G. Edgar,  Po-Tung Fang,  
 S. Faraji,  S. Fatehi,  Qingguo Feng,  K. D. Fenk,  J. Fosso-Tande,  
 J. Gayvert,  Qinghui Ge,  A. Ghysels,  G. Gidofalvi,  J. Gomes,  
 J. Gonthier,  A. Gunina,  D. Hait,  M. W. D. Hanson-Heine,  
 P. H. P. Harbach,  A. W. Hauser,  M. F. Herbst,  J. E. Herr,  
 E. G. Hohenstein,  Z. C. Holden,  Kerwin Hui,  B. C. Huynh,  T.-C. Jagau,  
 Hyunjun Ji,  B. Kaduk,  K. Khistyaev,  Jaehoon Kim,  P. Klunzinger,  K. Koh,  
 D. Kosenkov,  L. Koulias,  T. Kowalczyk,  C. M. Krauter,  A. Kunitsa,  
 Ka Un Lao,  A. Laurent,  K. V. Lawler,  Joonho Lee,  D. Lefrancois,  
 S. Lehtola,  D. S. Levine,  Yi-Pei Li,  You-Sheng Lin,  Fenglai Liu,  
 E. Livshits,  A. Luenser,  P. Manohar,  E. Mansoor,  S. F. Manzer,  
 Shan-Ping Mao,  Yuezhi Mao,  N. Mardirossian,  A. V. Marenich,  
 T. Markovich,  L. A. Martinez-Martinez,  S. A. Maurer,  N. J. Mayhall,  
 S. C. McKenzie,  J.-M. Mewes,  P. Morgante,  A. F. Morrison,  
 J. W. Mullinax,  K. Nanda,  T. S. Nguyen-Beck,  R. Olivares-Amaya,  
 J. A. Parkhill,  Zheng Pei,  T. M. Perrine,  F. Plasser,  P. Pokhilko,  
 S. Prager,  A. Prociuk,  E. Ramos,  D. R. Rehn,  F. Rob,  M. Scheurer,  
 M. Schneider,  N. Sergueev,  S. M. Sharada,  S. Sharma,  D. W. Small,  
 T. Stauch,  T. Stein,  Yu-Chuan Su,  A. J. W. Thom,  A. Tkatchenko,  
 T. Tsuchimochi,  N. M. Tubman,  L. Vogt,  M. L. Vidal,  O. Vydrov,  
 M. A. Watson,  J. Wenzel,  M. de Wergifosse,  T. A. Wesolowski,  A. White,  
 J. Witte,  A. Yamada,  Jun Yang,  K. Yao,  S. Yeganeh,  S. R. Yost,  
 Zhi-Qiang You,  A. Zech,  Igor Ying Zhang,  Xing Zhang,  Yan Zhao,  
 Ying Zhu,  B. R. Brooks,  G. K. L. Chan,  C. J. Cramer,  M. S. Gordon,  
 W. J. Hehre,  A. Klamt,  M. W. Schmidt,  C. D. Sherrill,  D. G. Truhlar,  
 A. Aspuru-Guzik,  R. Baer,  A. T. Bell,  N. A. Besley,  Jeng-Da Chai,  
 A. E. DePrince, III,  R. A. DiStasio Jr.,  A. Dreuw,  B. D. Dunietz,  
 T. R. Furlani,  Chao-Ping Hsu,  Yousung Jung,  Jing Kong,  D. S. Lambrecht,  
 WanZhen Liang,  C. Ochsenfeld,  V. A. Rassolov,  L. V. Slipchenko,  
 J. E. Subotnik,  T. Van Voorhis,  J. M. Herbert,  A. I. Krylov,  
 P. M. W. Gill,  M. Head-Gordon

 Contributors to earlier versions of Q-Chem not listed above: 
 R. D. Adamson,  B. Austin,  J. Baker,  G. J. O. Beran,  K. Brandhorst,  
 S. T. Brown,  E. F. C. Byrd,  A. K. Chakraborty,  C.-L. Cheng,  
 Siu Hung Chien,  D. M. Chipman,  D. L. Crittenden,  H. Dachsel,  
 R. J. Doerksen,  A. D. Dutoi,  L. Fusti-Molnar,  W. A. Goddard III,  
 A. Golubeva-Zadorozhnaya,  S. R. Gwaltney,  G. Hawkins,  A. Heyden,  
 S. Hirata,  G. Kedziora,  F. J. Keil,  C. Kelley,  Jihan Kim,  R. A. King,  
 R. Z. Khaliullin,  P. P. Korambath,  W. Kurlancheek,  A. M. Lee,  M. S. Lee,  
 S. V. Levchenko,  Ching Yeh Lin,  D. Liotard,  R. C. Lochan,  I. Lotan,  
 P. E. Maslen,  N. Nair,  D. P. O'Neill,  D. Neuhauser,  E. Neuscamman,  
 C. M. Oana,  R. Olson,  B. Peters,  R. Peverati,  P. A. Pieniazek,  
 Y. M. Rhee,  J. Ritchie,  M. A. Rohrdanz,  E. Rosta,  N. J. Russ,  
 H. F. Schaefer III,  N. E. Schultz,  N. Shenvi,  A. C. Simmonett,  A. Sodt,  
 D. Stuck,  K. S. Thanthiriwatte,  V. Vanovschi,  Tao Wang,  A. Warshel,  
 C. F. Williams,  Q. Wu,  X. Xu,  W. Zhang

 Please cite Q-Chem as follows:
 Y. Shao et al., Mol. Phys. 113, 184-215 (2015)
 DOI: 10.1080/00268976.2014.952696

 Q-Chem 5.2.0 for Intel X86 EM64T Linux

 Parts of Q-Chem use Armadillo 8.300.2 (Tropical Shenanigans).
 http://arma.sourceforge.net/

 Q-Chem begins on Sun Sep 26 13:30:24 2021  

Host: cori01
0

     Scratch files written to /tmp/qchem9697//Frg2//
 May1019 |scratch|qcdevops|jenkins|workspace|build_RNUM -1
Processing $rem in /global/common/cori/software/qchem/5.2/config/preferences:
	 MEM_TOTAL  96000 
NAlpha2: 70
NElect   70
Mult     1
Symmetry turned off for PCM/SM12/SMD calculation

Checking the input file for inconsistencies... 	...done.

--------------------------------------------------------------
User input:
--------------------------------------------------------------
$molecule
0 1
 6	1.7347325236	0.3769875346	2.4550443632
 6	0.4437325236	-0.0550124654	0.2480443632
 6	0.4847325236	0.2899875346	1.5670443632
 6	-1.7022674764	0.3609875346	0.7920443632
 6	-0.8852674764	0.5559875346	1.9430443632
 6	-3.0872674764	0.5399875346	0.8110443632
 6	-1.5142674764	0.9449875346	3.1400443632
 6	-3.6872674764	0.9169875346	2.0140443632
 6	-2.9122674764	1.1129875346	3.1640443632
 7	-0.8582674764	-0.0190124654	-0.2219556368
 1	1.3657325236	-0.3050124654	-0.2639556368
 1	-1.1532674764	-0.2470124654	-1.1659556368
 1	2.4297325236	-0.3950124654	2.1160443632
 1	1.4277325236	0.1409875346	3.4790443632
 1	-3.6482674764	0.3789875346	-0.0989556368
 1	-0.9482674764	1.1209875346	4.0500443632
 1	-4.7562674764	1.0589875346	2.0640443632
 1	-3.3892674764	1.3989875346	4.0910443632
 1	2.2257125236	1.3610875346	2.4330543632
$end
$rem
EDA2		1
METHOD		WB97X-V
BASIS		DEF2-TZVPD
XC_GRID		000099000590
NL_GRID		1
UNRESTRICTED		FALSE
MAX_SCF_CYCLES		200
SYMMETRY		FALSE
SYM_IGNORE		TRUE
BASIS_LIN_DEP_THRESH		6
THRESH		14
SCF_CONVERGENCE		8
SCF_PRINT_FRGM		TRUE
SOLVENT_METHOD		SMD
!required keywords
JOBTYPE		SP
SYM_IGNORE		TRUE
SUBSYSTEM		TRUE
GEN_SCFMAN		TRUE
CHILD_INSTRUCTION		2
SYM_IGNORE		TRUE
SCFMI		0
RI_K 0		
PARI_K 0		
MIN_PARI_K 0		
IARI_K 0		
OCC_RI_K 0		
PURECART		1111
MEM_STATIC		2000
MEM_TOTAL		96000
GUI		0
CHILD_MP		1
CHILD_MP_ORDERS		232
FRZ_RELAX		0
FRZ_RELAX_METHOD		0
EDA_CLS_ELEC		1
EDA_CLS_DISP		0
FRZ_ORTHO_DECOMP		1
EDA2		FALSE
FRGM_METHOD		FALSE
CIS_N_ROOTS  0
LOCAL_CIS    0
CIS_RLX_DNS  1
$end
$smx
SOLVENT			WATER
$end
--------------------------------------------------------------
 ----------------------------------------------------------------
             Standard Nuclear Orientation (Angstroms)
    I     Atom           X                Y                Z
 ----------------------------------------------------------------
    1      C       1.7347325236     0.3769875346     2.4550443632
    2      C       0.4437325236    -0.0550124654     0.2480443632
    3      C       0.4847325236     0.2899875346     1.5670443632
    4      C      -1.7022674764     0.3609875346     0.7920443632
    5      C      -0.8852674764     0.5559875346     1.9430443632
    6      C      -3.0872674764     0.5399875346     0.8110443632
    7      C      -1.5142674764     0.9449875346     3.1400443632
    8      C      -3.6872674764     0.9169875346     2.0140443632
    9      C      -2.9122674764     1.1129875346     3.1640443632
   10      N      -0.8582674764    -0.0190124654    -0.2219556368
   11      H       1.3657325236    -0.3050124654    -0.2639556368
   12      H      -1.1532674764    -0.2470124654    -1.1659556368
   13      H       2.4297325236    -0.3950124654     2.1160443632
   14      H       1.4277325236     0.1409875346     3.4790443632
   15      H      -3.6482674764     0.3789875346    -0.0989556368
   16      H      -0.9482674764     1.1209875346     4.0500443632
   17      H      -4.7562674764     1.0589875346     2.0640443632
   18      H      -3.3892674764     1.3989875346     4.0910443632
   19      H       2.2257125236     1.3610875346     2.4330543632
 ----------------------------------------------------------------
 Nuclear Repulsion Energy =         481.87769989 hartrees
 There are       35 alpha and       35 beta electrons
 Requested basis set is def2-TZVPD
 There are 175 shells and 451 basis functions

 Total QAlloc Memory Limit  96000 MB
 Mega-Array Size      1956 MB
 MEM_STATIC part      2000 MB
 
 Citation of the SMD model:
 Marenich, A.V.; Cramer, C.J.; Truhlar, D.G.
 J. Phys. Chem. B 2009, 113, 6378-6396.
 iSolventCode=           1
 Solvent: water                                                           
 
 vradii
            1           2           3           4           5           6
    1   1.8500000   1.8500000   1.8500000   1.8500000   1.8500000   1.8500000
            7           8           9          10          11          12
    1   1.8500000   1.8500000   1.8500000   1.8900000   1.2000000   1.2000000
           13          14          15          16          17          18
    1   1.2000000   1.2000000   1.2000000   1.2000000   1.2000000   1.2000000
           19
    1   1.2000000
 Changing PCM_VDW_RADII to SMD_RADIUS
 Discretize the solute cavity surface with Lebedev spheres
	Using 110 Lebedev grid points for each H atom
	Using 194 Lebedev grid points for other atoms
	Atomic van der Waals radii will be scaled by 1.20
 Remove points where switching function is < 1.0e-08
 Keep 1368 surface tesserae and discard 1562 interior tesserae
 Molecular Surface Area = 166.287 Angst**2
 A cutoff of  1.0D-14 yielded  14446 shell pairs
 There are     98148 function pairs (    126295 Cartesian)
 Smallest overlap matrix eigenvalue = 5.43E-07
 Linear dependence detected in AO basis
 Tighter screening thresholds may be required for diffuse basis sets
 Use S2THRESH > 14 and THRESH = 14 in case of SCF convergence issues
 Number of orthogonalized atomic orbitals = 448
 Maximum deviation from orthogonality = 1.150E-10

 Scale SEOQF with 1.000000e-01/1.000000e-01/1.000000e-01

 Standard Electronic Orientation quadrupole field applied
 Nucleus-field energy     =    -0.0000000173 hartrees
 Guess from superposition of atomic densities
 Warning:  Energy on first SCF cycle will be non-variational
 SAD guess density has 69.692991 electrons

 -----------------------------------------------------------------------
  General SCF calculation program by
  Eric Jon Sundstrom, Paul Horn, Yuezhi Mao, Dmitri Zuev, Alec White,
  David Stuck, Shaama M.S., Shane Yost, Joonho Lee, David Small,
  Daniel Levine, Susi Lehtola, Hugh Burton, Evgeny Epifanovsky
 -----------------------------------------------------------------------
 Exchange:     0.1670 Hartree-Fock + 1.0000 wB97X-V + LR-HF
 Correlation:  1.0000 wB97X-V
 Using Euler-Maclaurin-Lebedev (99,590) quadrature formula
 Nonlocal Correlation:  VV10 with C = 0.0100 and b = 6.00 and scale = 1.00000
 Grid used for NLC:  SG-1 standard quadrature
Energy prior to optimization (guess energy) = -402.926996823030
Begin Timing: Total SCF Calculation
begin iterations for algorithm: DIIS         
the SCF tolerance is set to 1.00e-08
    1    -402.9269968230      3.26e-03     00000 
    2    -402.9632711188      3.08e-03     00000 
    3    -403.1684806860      3.61e-04     00000 
    4    -403.1722038026      1.48e-04     00000 
    5    -403.1728878004      2.81e-05     00000 
    6    -403.1729274941      1.73e-05     00000 
    7    -403.1729365076      4.00e-06     00000 
    8    -403.1729379293      1.49e-06     00000 
    9    -403.1729381480      7.91e-07     00000 
   10    -403.1729382283      3.14e-07     00000 
   11    -403.1729382426      9.61e-08     00000 
   12    -403.1729382439      4.70e-08     00000 
   13    -403.1729382441      1.39e-08     00000 
   14    -403.1729382441      4.40e-09     00000 Convergence criterion met
Timing for Total SCF: 4095.00s (wall), 8153.59s (cpu)
(3)  G-ENP(liq) elect-nuc-pol free energy of system     -403.172938244 a.u.
(4)  G-CDS(liq) cavity-dispersion-solvent structure 
     free energy                                                3.9437 kcal/mol
(6)  G-S(liq) free energy of system                     -403.166653569 a.u.
E_pcm = -0.0165733859
E_cds = 0.0062846748
Multipole orders to be included
        2
        3
computing dipole RHS
computing quadrupole RHS
total number of RHS in solve_reponses: 8
RHS batch sizes
        8
Beginning Block Conjugate Gradient Iterations. Batch Number: 0
computing hessian-vector products by finite difference
              1      6.81e-01     00000 Conjugate Gradient Iteration
computing hessian-vector products by finite difference
              2      2.17e-01     00000 Conjugate Gradient Iteration
computing hessian-vector products by finite difference
              3      6.42e-02     00000 Conjugate Gradient Iteration
computing hessian-vector products by finite difference
              4      2.86e-02     00000 Conjugate Gradient Iteration
computing hessian-vector products by finite difference
              5      1.01e-02     00000 Conjugate Gradient Iteration
computing hessian-vector products by finite difference
              6      2.80e-03     00000 Conjugate Gradient Iteration
computing hessian-vector products by finite difference
              7      5.81e-04     00000 Conjugate Gradient Iteration
computing hessian-vector products by finite difference
              8      1.09e-04     00000 Conjugate Gradient Iteration
computing hessian-vector products by finite difference
              9      1.93e-05     00000 Conjugate Gradient Iteration
computing hessian-vector products by finite difference
             10      3.26e-06     00000 Conjugate Gradient Iteration
computing hessian-vector products by finite difference
             11      5.46e-07     00000 Conjugate Gradient Iteration
computing hessian-vector products by finite difference
             12      1.15e-07     00000 Conjugate Gradient Iteration
computing hessian-vector products by finite difference
             13      2.06e-08     00000 Conjugate Gradient Iteration
computing hessian-vector products by finite difference
             14      4.65e-09     00000 CG Converged
batch 0 complete
Done Calculating Responses
TESTING ORTHOGONALIZATION OF MULTIPOLE BASIS
Multipole virts passed orthogonality test
Virts Per Order
          105
          175
 
 --------------------------------------------------------------
 
                    Orbital Energies (a.u.)
 --------------------------------------------------------------
 
 Alpha MOs
 -- Occupied --
-14.4458 -10.3013 -10.2927 -10.2705 -10.2705 -10.2673 -10.2673 -10.2626
-10.2614 -10.2595  -1.1085  -0.9728  -0.9239  -0.8620  -0.8565  -0.8106
 -0.7407  -0.7095  -0.6709  -0.6448  -0.5973  -0.5766  -0.5488  -0.5426
 -0.5330  -0.5086  -0.5069  -0.4851  -0.4765  -0.4493  -0.4473  -0.4277
 -0.3764  -0.3140  -0.2898
 -- Virtual --
  0.0540   0.0644   0.0799   0.0825   0.0918   0.1022   0.1038   0.1108
  0.1314   0.1348   0.1398   0.1508   0.1619   0.1691   0.1775   0.1807
  0.1891   0.1989   0.2043   0.2111   0.2164   0.2246   0.2322   0.2483
  0.2512   0.2573   0.2631   0.2646   0.2685   0.2758   0.2771   0.2814
  0.2843   0.2872   0.2942   0.2948   0.3031   0.3100   0.3158   0.3221
  0.3285   0.3319   0.3376   0.3409   0.3441   0.3446   0.3522   0.3539
  0.3581   0.3676   0.3731   0.3762   0.3816   0.3884   0.3934   0.3981
  0.4002   0.4090   0.4152   0.4163   0.4171   0.4211   0.4288   0.4398
  0.4412   0.4472   0.4492   0.4555   0.4586   0.4622   0.4684   0.4748
  0.4878   0.4928   0.4963   0.4980   0.5016   0.5166   0.5200   0.5265
  0.5315   0.5361   0.5419   0.5458   0.5511   0.5532   0.5607   0.5643
  0.5729   0.5771   0.5844   0.5935   0.6042   0.6136   0.6224   0.6255
  0.6363   0.6437   0.6455   0.6510   0.6570   0.6744   0.6757   0.6848
  0.6871   0.6949   0.7012   0.7059   0.7138   0.7170   0.7302   0.7371
  0.7388   0.7471   0.7518   0.7545   0.7583   0.7671   0.7755   0.7792
  0.7829   0.7850   0.7925   0.7957   0.8010   0.8028   0.8117   0.8157
  0.8225   0.8315   0.8343   0.8386   0.8423   0.8533   0.8575   0.8614
  0.8672   0.8742   0.8830   0.8916   0.9013   0.9046   0.9118   0.9386
  0.9397   0.9505   0.9600   0.9828   0.9919   1.0018   1.0067   1.0119
  1.0400   1.0441   1.0487   1.0640   1.0707   1.0800   1.0920   1.0973
  1.1195   1.1207   1.1395   1.1457   1.1686   1.1881   1.1926   1.2120
  1.2335   1.2511   1.2590   1.2642   1.2923   1.3141   1.3359   1.3436
  1.3705   1.3885   1.3939   1.4053   1.4222   1.4464   1.4521   1.4647
  1.5114   1.5485   1.5521   1.5618   1.5854   1.5863   1.6096   1.6170
  1.6403   1.6587   1.6916   1.7067   1.7198   1.7253   1.7435   1.7767
  1.7906   1.8258   1.8464   1.8526   1.8601   1.8655   1.8781   1.8893
  1.8996   1.9191   1.9381   1.9446   1.9575   1.9671   1.9730   1.9862
  1.9946   1.9968   2.0017   2.0272   2.0360   2.0547   2.0659   2.0801
  2.0922   2.1210   2.1321   2.1729   2.1841   2.1906   2.2066   2.2152
  2.2429   2.2828   2.2967   2.3125   2.3285   2.3600   2.3678   2.3736
  2.4030   2.4241   2.4436   2.4673   2.4777   2.4983   2.5138   2.5414
  2.5525   2.5652   2.5924   2.5993   2.6152   2.6449   2.6496   2.6750
  2.6875   2.7225   2.7384   2.7531   2.7585   2.7809   2.7908   2.8034
  2.8058   2.8365   2.8419   2.8627   2.8750   2.8834   2.8995   2.9121
  2.9183   2.9375   2.9579   2.9707   2.9963   3.0022   3.0237   3.0239
  3.0378   3.0705   3.0760   3.0813   3.0950   3.1240   3.1417   3.1484
  3.1670   3.1923   3.2059   3.2191   3.2412   3.2474   3.2635   3.2652
  3.2902   3.2989   3.3064   3.3293   3.3508   3.3614   3.3656   3.3893
  3.4063   3.4116   3.4167   3.4364   3.4476   3.4508   3.4708   3.4804
  3.4935   3.5002   3.5086   3.5173   3.5206   3.5380   3.5519   3.5682
  3.5710   3.5873   3.6005   3.6196   3.6334   3.6533   3.6618   3.6707
  3.6894   3.7062   3.7098   3.7251   3.7367   3.7560   3.7633   3.7800
  3.8115   3.8466   3.8703   3.8874   3.9175   3.9337   3.9782   4.0140
  4.0319   4.0444   4.0957   4.1335   4.1574   4.1906   4.2072   4.2191
  4.2574   4.2629   4.2712   4.2890   4.2993   4.3320   4.3426   4.3535
  4.3811   4.3991   4.4246   4.4479   4.4650   4.5032   4.5450   4.5703
  4.5906   4.6192   4.6458   4.7328   4.7705   4.7885   4.8244   4.9109
  4.9168   4.9502   4.9694   4.9797   4.9844   5.0409   5.0598   5.0942
  5.1310   5.1436   5.1934   5.2040   5.2490   5.3762   5.4000   5.4356
  5.4743   5.5074   5.5848   5.6264   5.7046   5.8217   5.8258   5.9429
  5.9522   6.2579   6.3281  22.5989  22.7493  22.9111  22.9230  22.9377
 23.1561  23.2358  23.4017  23.7541  32.8446
 --------------------------------------------------------------
 
          Ground-State Mulliken Net Atomic Charges

     Atom                 Charge (a.u.)
  ----------------------------------------
      1 C                    -1.025987
      2 C                    -0.667243
      3 C                     0.591962
      4 C                    -0.080176
      5 C                     0.296404
      6 C                    -0.642133
      7 C                    -0.485313
      8 C                    -0.454864
      9 C                    -0.650257
     10 N                     0.108883
     11 H                     0.324834
     12 H                     0.215346
     13 H                     0.288279
     14 H                     0.291120
     15 H                     0.418205
     16 H                     0.399983
     17 H                     0.416767
     18 H                     0.416215
     19 H                     0.237975
  ----------------------------------------
  Sum of atomic charges =     0.000000

 -----------------------------------------------------------------
                    Cartesian Multipole Moments
 -----------------------------------------------------------------
    Charge (ESU x 10^10)
                -0.0000
    Dipole Moment (Debye)
         X       0.9729      Y      -0.8670      Z      -2.6771
       Tot       2.9774
    Quadrupole Moments (Debye-Ang)
        XX     -54.7698     XY       0.1373     YY     -64.5550
        XZ       5.2622     YZ       1.9705     ZZ     -55.7963
    Octopole Moments (Debye-Ang^2)
       XXX     184.4420    XXY     -26.0663    XYY      77.9250
       YYY     -98.9383    XXZ     -99.8644    XYZ      -3.6225
       YYZ    -103.1365    XZZ      67.1262    YZZ     -21.7119
       ZZZ    -275.0597
    Hexadecapole Moments (Debye-Ang^3)
      XXXX   -1521.6203   XXXY     145.1690   XXYY    -336.0598
      XYYY     207.1647   YYYY    -246.9478   XXXZ     343.3735
      XXYZ     -47.5153   XYYZ     136.2539   YYYZ    -235.1127
      XXZZ    -510.0621   XYZZ      39.7879   YYZZ    -301.0562
      XZZZ     351.3188   YZZZ    -168.2511   ZZZZ   -1412.9556
 -----------------------------------------------------------------
Archival summary:
1\1\nid00562\SP\ProcedureUnspecified\BasisUnspecified\199\meili\MonSep2709:15:452021MonSep2709:15:452021\0\\#,ProcedureUnspecified,BasisUnspecified,\\0,1\C\C,1,1.40704\H,2,1.08602,1,121.645\C,2,1.40826,1,119.423,3,179.94,0\H,4,1.08104,2,118.96,1,179.18,0\C,4,1.40055,2,121.241,1,-0.838095,0\H,6,1.07955,4,119.44,2,-179.667,0\C,6,1.39619,4,120.496,2,0.388479,0\H,8,1.08108,6,122.853,4,-179.972,0\C,8,1.39665,6,118.196,4,0.240623,0\N,10,1.37293,8,130.93,6,178.954,0\H,11,1.01496,10,124.78,8,-0.652243,0\C,11,1.3847,10,109.544,8,179.982,0\H,13,1.08385,11,130.205,10,-179.735,0\C,13,1.36399,11,110.482,10,0.284315,0\C,15,1.53578,13,126.722,11,-179.748,0\H,16,1.09267,15,107.355,13,-33.5021,0\H,16,1.09477,15,107.48,13,-149.976,0\H,16,1.1,15,113.729,13,88.4191,0\\\@

 Total job time:  71121.37s(wall), 141386.34s(cpu) 
 Mon Sep 27 09:15:46 2021

        *************************************************************
        *                                                           *
        *  Thank you very much for using Q-Chem.  Have a nice day.  *
        *                                                           *
        *************************************************************


Done Job For Fragment 1
calling putenv with: QCSCRATCH=/global/cscratch1/sd/meili 
calling putenv with: QCLOCALSCR=/tmp 
calling putenv with: QCTHREADS=32 
Doing General SCFMI
 Exchange:     0.1670 Hartree-Fock + 1.0000 wB97X-V + LR-HF
 Correlation:  1.0000 wB97X-V
 Using Euler-Maclaurin-Lebedev (99,590) quadrature formula
 Nonlocal Correlation:  VV10 with C = 0.0100 and b = 6.00 and scale = 1.00000
 Grid used for NLC:  SG-1 standard quadrature
performing fock build before subrot guess so that all methods have access
Printing subrot_rss_gen Method Specification:
Occupied Subspace Method is 0
Virtual Subspace Method is 0
Energy of the unrelaxed supersystem initial determinant -631.704970357655
performing fock build before subrot guess so that all methods have access
Printing subrot_rss_gen Method Specification:
Occupied Subspace Method is 0
Virtual Subspace Method is 0
Energy of the unrelaxed supersystem initial determinant w/ solvent -631.838443587130
write pseudocanon occs and virts to disk
write pseudocanon orbital energies to disk
Tolerance of ortho_decomp_scf: 1.00e-06
GDM subspace size: 20
Beginning the Orthogonal Decomposition of the Initial Supersystem Wavefunction
    1    -631.6736669707      3.77e-02     ortho_decomp Preconditoned Steepest Descent
    2    -631.6774291174      9.21e-04     ortho_decomp BFGS Step
    3    -631.6774433307      8.71e-05     ortho_decomp BFGS Step
    4    -631.6774433662      3.70e-06     ortho_decomp BFGS Step
    5    -631.6774433663      1.11e-07     ortho_decomp 00000 Convergence criterion met
 Hartree-Fock
 Hartree-Fock
 Hartree-Fock
Doing General SCFMI
 Exchange:     0.1670 Hartree-Fock + 1.0000 wB97X-V + LR-HF
 Correlation:  1.0000 wB97X-V
 Using Euler-Maclaurin-Lebedev (99,590) quadrature formula
 Nonlocal Correlation:  VV10 with C = 0.0100 and b = 6.00 and scale = 1.00000
 Grid used for NLC:  SG-1 standard quadrature
performing fock build at end of subrot_r(subrot) constructor so that all methods have access
<S^2> of initial wavefunction before polarization iterations 0.0000000000
Beginning iterations for the determination of the polarized wavefunction
Energy prior to optimization (guess energy) = -631.838443587131
Begin Timing: Total SCF Calculation
begin iterations for algorithm: DIIS         
the SCF tolerance is set to 1.00e-08
    1    -631.8384435871      3.57e-05     00000 
    2    -631.8385684585      2.72e-05     00000 
    3    -631.8386005371      9.87e-06     00000 
    4    -631.8386084737      3.37e-06     00000 
    5    -631.8386094761      1.46e-06     00000 
    6    -631.8386097554      6.02e-07     00000 
    7    -631.8386097950      2.10e-07     00000 
    8    -631.8386098010      7.30e-08     00000 
    9    -631.8386098017      2.35e-08     00000 
   10    -631.8386098019      9.71e-09     00000 Convergence criterion met
write pseudocanon occs and virts to disk
write pseudocanon orbital energies to disk
Timing for Total SCF: 5445.00s (wall), 10813.44s (cpu)
<S^2> of polarized wavefunction after polarization iterations 0.0000000000
relaxing scfmi constraint to allow all rotations in the entire AO span
Doing General SCFMI
 Exchange:     0.1670 Hartree-Fock + 1.0000 wB97X-V + LR-HF
 Correlation:  1.0000 wB97X-V
 Using Euler-Maclaurin-Lebedev (99,590) quadrature formula
 Nonlocal Correlation:  VV10 with C = 0.0100 and b = 6.00 and scale = 1.00000
 Grid used for NLC:  SG-1 standard quadrature
performing fock build at end of subrot_r(subrot) constructor so that all methods have access
<S^2> of polarized wavefunction before ct-allowed iterations 0.0000000000
Beginning iterations for the determination of the CT-Allowed wavefunction
Energy prior to optimization (guess energy) = -631.838609801860
Begin Timing: Total SCF Calculation
begin iterations for algorithm: DIIS         
the SCF tolerance is set to 1.00e-08
    1    -631.8386098019      5.50e-05     00000 
    2    -631.8392412339      6.65e-06     00000 
    3    -631.8392612956      1.88e-06     00000 
    4    -631.8392617962      1.72e-06     00000 
    5    -631.8392622084      2.07e-07     00000 
    6    -631.8392622179      1.07e-07     00000 
    7    -631.8392622206      3.03e-08     00000 
    8    -631.8392622208      1.03e-08     00000 
    9    -631.8392622209      3.71e-09     00000 Convergence criterion met
write pseudocanon occs and virts to disk
write pseudocanon orbital energies to disk
Timing for Total SCF: 4897.00s (wall), 9708.81s (cpu)
<S^2> of ct_allowed wavefunction after ct-allowed iterations 0.0000000000

================================
        Results of EDA2         
================================
Basic EDA Quantities
--------------------
Fragment Energies (Ha):
1 -228.6596842630
2 -403.1666535693
--------------------
  E_prp (kJ/mol) = -0.0000
  E_sol (kJ/mol) = 35.9768
  E_frz (kJ/mol) = -36.3904
  E_pol (kJ/mol) = -0.4364
  E_vct (kJ/mol) = -1.7129
  E_int (kJ/mol) = -2.5629
--------------------


Initial Wavefunction Decomposition
--------------------
  --------------------
  Orthogonal Fragment Subspace Decomposition:
  --------------------
     E_elec   (ELEC)   (kJ/mol) = -56.8026
     E_pauli  (PAULI)  (kJ/mol) = 28.4134
     E_disp   (DISP)   (kJ/mol) = -8.0012
     --------------------
     Terms summing to E_pauli:
     --------------------
        E_kep_pauli       (kJ/mol) = 35.8825
        E_disp_free_pauli (kJ/mol) = -7.4691
  --------------------
  Classical Frozen Decomposition:
  --------------------
     E_cls_elec  (CLS ELEC)  (kJ/mol) = -42.4823
     E_cls_pauli (CLS PAULI) (kJ/mol) = 6.0919
    [E_mod_pauli (MOD PAULI) (kJ/mol) = 14.0931 (CLS PAULI - DISP from orthogonal decomposition) ]
  --------------------
--------------------

Simplified EDA Summary (kJ/mol)
--------------------
 PREPARATION     -0.0000
 SOLVATION       35.9768
 FROZEN          -28.3892      (does not include dispersion)
[PAULI           28.4134]     (if this is negligible, then frozen describes electrostatics)
 DISPERSION      -8.0012
 POLARIZATION    -0.4364
 CHARGE TRANSFER -1.7129
 TOTAL           -2.5629     (PRP + SOL + FRZ + DISP + POL + CT)
--------------------
 
 --------------------------------------------------------------
 
                    Orbital Energies (a.u.)
 --------------------------------------------------------------
 
 Alpha MOs
 -- Occupied --
-19.1546 -19.1524 -14.4437 -10.3549 -10.2996 -10.2879 -10.2692 -10.2690
-10.2659 -10.2656 -10.2614 -10.2585 -10.2578 -10.2466  -1.1653  -1.1062
 -1.0657  -0.9713  -0.9218  -0.8605  -0.8547  -0.8412  -0.8086  -0.7388
 -0.7078  -0.6692  -0.6432  -0.6199  -0.5950  -0.5755  -0.5491  -0.5476
 -0.5467  -0.5415  -0.5409  -0.5316  -0.5058  -0.5044  -0.4833  -0.4796
 -0.4737  -0.4638  -0.4476  -0.4451  -0.4259  -0.3748  -0.3656  -0.3584
 -0.3455  -0.3122  -0.2878
 -- Virtual --
  0.0551   0.0614   0.0719   0.0807   0.0895   0.0930   0.0976   0.0988
  0.1072   0.1116   0.1143   0.1266   0.1325   0.1360   0.1387   0.1449
  0.1456   0.1569   0.1618   0.1632   0.1654   0.1798   0.1869   0.1887
  0.1929   0.2016   0.2026   0.2077   0.2129   0.2164   0.2214   0.2234
  0.2366   0.2373   0.2423   0.2518   0.2539   0.2592   0.2612   0.2646
  0.2700   0.2726   0.2782   0.2798   0.2835   0.2838   0.2888   0.2941
  0.2944   0.3005   0.3056   0.3097   0.3109   0.3213   0.3245   0.3287
  0.3309   0.3332   0.3366   0.3401   0.3425   0.3449   0.3472   0.3543
  0.3559   0.3589   0.3612   0.3637   0.3696   0.3709   0.3754   0.3757
  0.3854   0.3889   0.3934   0.3947   0.3980   0.4009   0.4053   0.4095
  0.4107   0.4123   0.4178   0.4235   0.4255   0.4281   0.4303   0.4319
  0.4379   0.4415   0.4455   0.4485   0.4530   0.4567   0.4618   0.4631
  0.4647   0.4715   0.4760   0.4825   0.4858   0.4896   0.4927   0.4966
  0.5031   0.5044   0.5124   0.5141   0.5207   0.5266   0.5292   0.5332
  0.5395   0.5420   0.5463   0.5468   0.5499   0.5589   0.5615   0.5667
  0.5683   0.5737   0.5782   0.5809   0.5870   0.5904   0.5968   0.6051
  0.6078   0.6126   0.6213   0.6286   0.6350   0.6389   0.6401   0.6452
  0.6527   0.6543   0.6625   0.6667   0.6698   0.6729   0.6766   0.6815
  0.6895   0.6920   0.6962   0.7030   0.7080   0.7123   0.7169   0.7171
  0.7241   0.7275   0.7334   0.7359   0.7401   0.7482   0.7496   0.7541
  0.7560   0.7636   0.7661   0.7774   0.7797   0.7819   0.7884   0.7904
  0.7944   0.7971   0.7999   0.8028   0.8063   0.8118   0.8155   0.8168
  0.8209   0.8262   0.8310   0.8330   0.8428   0.8451   0.8492   0.8507
  0.8554   0.8612   0.8629   0.8684   0.8762   0.8800   0.8872   0.8977
  0.9114   0.9151   0.9182   0.9301   0.9309   0.9385   0.9470   0.9539
  0.9768   0.9825   0.9862   0.9953   1.0037   1.0059   1.0110   1.0152
  1.0294   1.0418   1.0465   1.0490   1.0531   1.0558   1.0661   1.0715
  1.0765   1.0833   1.0928   1.1052   1.1090   1.1243   1.1308   1.1347
  1.1428   1.1590   1.1712   1.1828   1.1949   1.2074   1.2147   1.2252
  1.2461   1.2518   1.2586   1.2729   1.2824   1.2846   1.2975   1.3044
  1.3210   1.3272   1.3346   1.3385   1.3524   1.3572   1.3733   1.3764
  1.3934   1.3989   1.4086   1.4213   1.4389   1.4530   1.4595   1.4763
  1.4876   1.5252   1.5565   1.5604   1.5666   1.5878   1.5978   1.6098
  1.6242   1.6326   1.6457   1.6527   1.6805   1.7015   1.7214   1.7354
  1.7456   1.7550   1.7658   1.7982   1.8013   1.8403   1.8529   1.8605
  1.8624   1.8706   1.8820   1.8892   1.8932   1.9004   1.9072   1.9151
  1.9283   1.9413   1.9431   1.9576   1.9585   1.9628   1.9657   1.9789
  1.9841   1.9908   1.9960   2.0026   2.0082   2.0147   2.0313   2.0386
  2.0427   2.0462   2.0748   2.0929   2.1147   2.1248   2.1266   2.1285
  2.1400   2.1511   2.1745   2.1819   2.1898   2.2034   2.2099   2.2261
  2.2400   2.2553   2.2666   2.2945   2.3044   2.3168   2.3178   2.3344
  2.3433   2.3735   2.3812   2.3936   2.4128   2.4312   2.4355   2.4557
  2.4752   2.4931   2.4977   2.5068   2.5233   2.5403   2.5473   2.5607
  2.5741   2.5834   2.5846   2.6051   2.6068   2.6123   2.6276   2.6380
  2.6531   2.6619   2.6724   2.6834   2.7060   2.7447   2.7554   2.7614
  2.7684   2.7816   2.7858   2.8051   2.8107   2.8187   2.8228   2.8431
  2.8468   2.8743   2.8810   2.8991   2.9037   2.9066   2.9222   2.9253
  2.9414   2.9462   2.9532   2.9625   2.9767   2.9990   3.0037   3.0123
  3.0286   3.0331   3.0429   3.0619   3.0768   3.0845   3.0889   3.1061
  3.1353   3.1473   3.1663   3.1803   3.1913   3.2010   3.2080   3.2183
  3.2248   3.2432   3.2523   3.2584   3.2692   3.2720   3.2878   3.2961
  3.3112   3.3145   3.3264   3.3406   3.3546   3.3562   3.3692   3.3729
  3.3984   3.4013   3.4046   3.4133   3.4201   3.4267   3.4294   3.4409
  3.4551   3.4565   3.4630   3.4783   3.4851   3.4996   3.5092   3.5163
  3.5235   3.5287   3.5424   3.5509   3.5535   3.5628   3.5722   3.5785
  3.5940   3.6029   3.6094   3.6248   3.6325   3.6455   3.6575   3.6717
  3.6790   3.6905   3.6994   3.7012   3.7116   3.7173   3.7306   3.7401
  3.7539   3.7617   3.7639   3.7762   3.8003   3.8294   3.8569   3.8828
  3.8925   3.8964   3.9244   3.9375   3.9460   3.9870   4.0250   4.0396
  4.0438   4.0490   4.0862   4.1148   4.1391   4.1688   4.2005   4.2118
  4.2170   4.2284   4.2657   4.2724   4.2767   4.2941   4.3030   4.3351
  4.3518   4.3581   4.3829   4.3878   4.4103   4.4402   4.4562   4.4710
  4.5113   4.5488   4.5576   4.5768   4.5978   4.6264   4.6331   4.6554
  4.6784   4.7371   4.7774   4.7929   4.7999   4.8349   4.8814   4.9190
  4.9272   4.9563   4.9775   4.9835   4.9872   4.9938   5.0464   5.0653
  5.1169   5.1372   5.1533   5.1975   5.2101   5.2562   5.2981   5.3268
  5.3368   5.3434   5.3864   5.4029   5.4400   5.4714   5.4818   5.5164
  5.5899   5.6352   5.6860   5.7168   5.7440   5.7872   5.8353   5.8595
  5.9526   5.9703   6.0033   6.2342   6.2703   6.3333   6.3555   6.3766
  6.6224   6.6406   6.7159   6.7287   6.7515   6.9368   6.9638   7.0236
  7.2409   7.3383   7.3636   7.4329  22.6030  22.6074  22.7597  22.9207
 22.9324  22.9644  23.1601  23.2591  23.4111  23.7380  23.7613  32.8637
 44.2494  44.3624
 --------------------------------------------------------------
 
          Ground-State Mulliken Net Atomic Charges

     Atom                 Charge (a.u.)
  ----------------------------------------
      1 C                    -0.642080
      2 C                     0.468588
      3 O                    -0.721335
      4 O                    -0.788736
      5 H                     0.239918
      6 H                     0.217182
      7 H                     0.215295
      8 C                    -1.029383
      9 C                    -0.762540
     10 C                     0.577191
     11 C                    -0.083021
     12 C                     0.451302
     13 C                    -0.749934
     14 C                    -0.481079
     15 C                    -0.521887
     16 C                    -0.665669
     17 N                     0.175989
     18 H                     0.405566
     19 H                     0.228904
     20 H                     0.288994
     21 H                     0.303611
     22 H                     0.413584
     23 H                     0.390650
     24 H                     0.416671
     25 H                     0.414004
     26 H                     0.238217
  ----------------------------------------
  Sum of atomic charges =    -1.000000

 -----------------------------------------------------------------
                    Cartesian Multipole Moments
 -----------------------------------------------------------------
    Charge (ESU x 10^10)
                -4.8032
    Dipole Moment (Debye)
         X     -13.6166      Y       0.2697      Z      10.9998
       Tot      17.5065
    Quadrupole Moments (Debye-Ang)
        XX    -126.7494     XY       2.7327     YY     -90.2404
        XZ      52.2045     YZ       2.7013     ZZ    -128.2018
    Octopole Moments (Debye-Ang^2)
       XXX    -156.8859    XXY       8.1725    XYY      14.1040
       YYY     -12.8041    XXZ     147.4352    XYZ      -0.8429
       YYZ     -18.4693    XZZ    -167.0593    YZZ      -5.8269
       ZZZ     173.8004
    Hexadecapole Moments (Debye-Ang^3)
      XXXX   -3075.7925   XXXY     350.5424   XXYY    -561.7598
      XYYY     395.9104   YYYY    -565.4817   XXXZ    1568.2330
      XXYZ    -148.3976   XYYZ     347.0913   YYYZ    -547.7039
      XXZZ   -1631.8246   XYZZ      72.0666   YYZZ    -667.9471
      XZZZ    1720.7923   YZZZ    -428.7244   ZZZZ   -4237.3468
 -----------------------------------------------------------------
Archival summary:
1\1\nid00562\SP\ProcedureUnspecified\BasisUnspecified\211112(1-,1)\meili\MonSep2714:39:422021MonSep2714:39:422021\0\\#,ProcedureUnspecified,BasisUnspecified,\\-1,1\N\H,1,1.01496\C,1,1.37293,2,124.78\C,1,1.3847,2,125.672,3,179.264,0\H,4,1.08385,1,130.205,2,0.906556,0\C,4,1.36399,1,110.482,2,-179.074,0\C,3,1.39665,1,130.93,2,-0.652243,0\H,7,1.08108,3,118.951,1,-0.842652,0\C,7,1.39619,3,118.196,1,178.954,0\H,9,1.07955,7,120.064,3,-179.704,0\C,9,1.40055,7,120.496,3,0.240623,0\H,11,1.08104,9,119.799,7,-179.63,0\C,11,1.40826,9,121.241,7,0.388479,0\H,13,1.08602,11,118.931,9,179.103,0\C,13,1.40704,11,119.423,9,-0.838095,0\C,6,1.53578,4,126.722,1,-179.748,0\H,16,1.09267,6,107.355,4,-33.5021,0\H,16,1.09477,6,107.48,4,-149.976,0\H,16,1.1,6,113.729,4,88.4191,0\O,5,2.33037,4,148.149,1,-2.1694,0\C,20,1.25231,5,155.643,4,40.2853,0\O,21,1.25335,20,123.002,5,83.9642,0\C,21,1.51703,20,119.966,5,-94.8816,0\H,23,1.08819,21,109.362,20,-124.85,0\H,23,1.09267,21,108.88,20,115.872,0\H,23,1.09998,21,113.862,20,-5.18524,0\\\@

 Total job time:  95389.25s(wall), 38622.82s(cpu) 
 Mon Sep 27 14:39:42 2021

        *************************************************************
        *                                                           *
        *  Thank you very much for using Q-Chem.  Have a nice day.  *
        *                                                           *
        *************************************************************


