                  Welcome to Q-Chem
     A Quantum Leap Into The Future Of Chemistry


 Q-Chem 5.2 (devel), Q-Chem, Inc., Pleasanton, CA (2019)

 Yihan Shao,  Zhengting Gan,  E. Epifanovsky,  A. T. B. Gilbert,  M. Wormit,  
 J. Kussmann,  A. W. Lange,  A. Behn,  Jia Deng,  Xintian Feng,  D. Ghosh,  
 M. Goldey,  P. R. Horn,  L. D. Jacobson,  I. Kaliman,  T. Kus,  A. Landau,  
 Jie Liu,  E. I. Proynov,  R. M. Richard,  R. P. Steele,  E. J. Sundstrom,  
 H. L. Woodcock III,  P. M. Zimmerman,  D. Zuev,  B. Albrecht,  E. Alguire,  
 S. A. Baeppler,  D. Barton,  Z. Benda,  Y. A. Bernard,  E. J. Berquist,  
 K. B. Bravaya,  H. Burton,  D. Casanova,  Chun-Min Chang,  Yunqing Chen,  
 A. Chien,  K. D. Closser,  M. P. Coons,  S. Coriani,  S. Dasgupta,  
 A. L. Dempwolff,  M. Diedenhofen,  Hainam Do,  R. G. Edgar,  Po-Tung Fang,  
 S. Faraji,  S. Fatehi,  Qingguo Feng,  K. D. Fenk,  J. Fosso-Tande,  
 J. Gayvert,  Qinghui Ge,  A. Ghysels,  G. Gidofalvi,  J. Gomes,  
 J. Gonthier,  A. Gunina,  D. Hait,  M. W. D. Hanson-Heine,  
 P. H. P. Harbach,  A. W. Hauser,  M. F. Herbst,  J. E. Herr,  
 E. G. Hohenstein,  Z. C. Holden,  Kerwin Hui,  B. C. Huynh,  T.-C. Jagau,  
 Hyunjun Ji,  B. Kaduk,  K. Khistyaev,  Jaehoon Kim,  P. Klunzinger,  K. Koh,  
 D. Kosenkov,  L. Koulias,  T. Kowalczyk,  C. M. Krauter,  A. Kunitsa,  
 Ka Un Lao,  A. Laurent,  K. V. Lawler,  Joonho Lee,  D. Lefrancois,  
 S. Lehtola,  D. S. Levine,  Yi-Pei Li,  You-Sheng Lin,  Fenglai Liu,  
 E. Livshits,  A. Luenser,  P. Manohar,  E. Mansoor,  S. F. Manzer,  
 Shan-Ping Mao,  Yuezhi Mao,  N. Mardirossian,  A. V. Marenich,  
 T. Markovich,  L. A. Martinez-Martinez,  S. A. Maurer,  N. J. Mayhall,  
 S. C. McKenzie,  J.-M. Mewes,  P. Morgante,  A. F. Morrison,  
 J. W. Mullinax,  K. Nanda,  T. S. Nguyen-Beck,  R. Olivares-Amaya,  
 J. A. Parkhill,  Zheng Pei,  T. M. Perrine,  F. Plasser,  P. Pokhilko,  
 S. Prager,  A. Prociuk,  E. Ramos,  D. R. Rehn,  F. Rob,  M. Scheurer,  
 M. Schneider,  N. Sergueev,  S. M. Sharada,  S. Sharma,  D. W. Small,  
 T. Stauch,  T. Stein,  Yu-Chuan Su,  A. J. W. Thom,  A. Tkatchenko,  
 T. Tsuchimochi,  N. M. Tubman,  L. Vogt,  M. L. Vidal,  O. Vydrov,  
 M. A. Watson,  J. Wenzel,  M. de Wergifosse,  T. A. Wesolowski,  A. White,  
 J. Witte,  A. Yamada,  Jun Yang,  K. Yao,  S. Yeganeh,  S. R. Yost,  
 Zhi-Qiang You,  A. Zech,  Igor Ying Zhang,  Xing Zhang,  Yan Zhao,  
 Ying Zhu,  B. R. Brooks,  G. K. L. Chan,  C. J. Cramer,  M. S. Gordon,  
 W. J. Hehre,  A. Klamt,  M. W. Schmidt,  C. D. Sherrill,  D. G. Truhlar,  
 A. Aspuru-Guzik,  R. Baer,  A. T. Bell,  N. A. Besley,  Jeng-Da Chai,  
 A. E. DePrince, III,  R. A. DiStasio Jr.,  A. Dreuw,  B. D. Dunietz,  
 T. R. Furlani,  Chao-Ping Hsu,  Yousung Jung,  Jing Kong,  D. S. Lambrecht,  
 WanZhen Liang,  C. Ochsenfeld,  V. A. Rassolov,  L. V. Slipchenko,  
 J. E. Subotnik,  T. Van Voorhis,  J. M. Herbert,  A. I. Krylov,  
 P. M. W. Gill,  M. Head-Gordon

 Contributors to earlier versions of Q-Chem not listed above: 
 R. D. Adamson,  B. Austin,  J. Baker,  G. J. O. Beran,  K. Brandhorst,  
 S. T. Brown,  E. F. C. Byrd,  A. K. Chakraborty,  C.-L. Cheng,  
 Siu Hung Chien,  D. M. Chipman,  D. L. Crittenden,  H. Dachsel,  
 R. J. Doerksen,  A. D. Dutoi,  L. Fusti-Molnar,  W. A. Goddard III,  
 A. Golubeva-Zadorozhnaya,  S. R. Gwaltney,  G. Hawkins,  A. Heyden,  
 S. Hirata,  G. Kedziora,  F. J. Keil,  C. Kelley,  Jihan Kim,  R. A. King,  
 R. Z. Khaliullin,  P. P. Korambath,  W. Kurlancheek,  A. M. Lee,  M. S. Lee,  
 S. V. Levchenko,  Ching Yeh Lin,  D. Liotard,  R. C. Lochan,  I. Lotan,  
 P. E. Maslen,  N. Nair,  D. P. O'Neill,  D. Neuhauser,  E. Neuscamman,  
 C. M. Oana,  R. Olson,  B. Peters,  R. Peverati,  P. A. Pieniazek,  
 Y. M. Rhee,  J. Ritchie,  M. A. Rohrdanz,  E. Rosta,  N. J. Russ,  
 H. F. Schaefer III,  N. E. Schultz,  N. Shenvi,  A. C. Simmonett,  A. Sodt,  
 D. Stuck,  K. S. Thanthiriwatte,  V. Vanovschi,  Tao Wang,  A. Warshel,  
 C. F. Williams,  Q. Wu,  X. Xu,  W. Zhang

 Please cite Q-Chem as follows:
 Y. Shao et al., Mol. Phys. 113, 184-215 (2015)
 DOI: 10.1080/00268976.2014.952696

 Q-Chem 5.2.1 for Intel X86 EM64T Linux

 Parts of Q-Chem use Armadillo 8.300.2 (Tropical Shenanigans).
 http://arma.sourceforge.net/

 Q-Chem begins on Wed Sep 29 10:17:30 2021  

compute-0-11.local
Host: 0

     Scratch files written to /home/meili/scratch/qchem25391//
NAlpha2: 128
NElect   128
Mult     1
Symmetry turned off for PCM/SM12/SMD calculation

 Q-Chem warning in module libgen/rem_setup.C, line 2813:

 Neither GIA nor STOLL is specified by user. Use STOLL as the default


Checking the input file for inconsistencies... 	...done.

--------------------------------------------------------------
User input:
--------------------------------------------------------------
$comment
SSI-058PHE-070TRP-1.pdb
$end

$molecule
0 1
--
0 1
C    1.002350095741   -1.516594192270   -1.056651702601
C    1.758350095741   -0.181594192270   -1.023651702601
C    1.142350095741   -2.352594192270    0.187348297399
C    0.428350095741   -2.034594192270    1.336348297399
C    1.964350095741   -3.482594192270    0.196348297399
C    0.542350095741   -2.830594192270    2.487348297399
C    2.084350095741   -4.275594192270    1.344348297399
C    1.363350095741   -3.950594192270    2.487348297399
H   -0.056649904259   -1.315594192270   -1.221651702601
H    1.355350095741   -2.100594192270   -1.908651702601
H    1.295350095741    0.473405807730   -0.284651702601
H   -0.226649904259   -1.176594192270    1.344348297399
H    2.521350095741   -3.749594192270   -0.691651702601
H   -0.026649904259   -2.580594192270    3.372348297399
H    2.725350095741   -5.148594192270    1.337348297399
H    1.431350095741   -4.574594192270    3.366348297399
H    1.686360095741    0.275355807730   -2.021661702601
H    2.819115095741   -0.324964192270   -0.770221702601
--
0 1
C    0.779350095741    4.257405807730    0.210348297399
C   -1.531649904259    1.320405807730   -0.166651702601
C   -0.814649904259    2.406405807730   -0.736651702601
C   -0.144649904259    3.084405807730    0.341348297399
C   -0.475649904259    2.404405807730    1.487348297399
C   -2.284649904259    0.447405807730   -0.933651702601
C   -2.341649904259    0.661405807730   -2.298651702601
C   -1.639649904259    1.718405807730   -2.896651702601
C   -0.877649904259    2.598405807730   -2.128651702601
N   -1.314649904259    1.357405807730    1.184348297399
H   -2.788649904259   -0.392594192270   -0.481651702601
H   -2.921649904259   -0.008594192270   -2.921651702601
H   -1.715649904259    0.698405807730    1.857348297399
H   -1.699649904259    1.857405807730   -3.968651702601
H   -0.143649904259    2.662405807730    2.484348297399
H   -0.358649904259    3.424405807730   -2.584651702601
H    0.356350095741    5.114405807730    0.737348297399
H    0.855350095741    4.517405807730   -0.844651702601
H    1.787684095741    4.041235807730    0.593142297399
$end

$rem
JOBTYPE			EDA
EDA2			1
method			wB97X-V
BASIS			def2-TZVPD
XC_GRID			000099000590
NL_GRID			1
UNRESTRICTED		FALSE
MAX_SCF_CYCLES		200
SYMMETRY		FALSE
SYM_IGNORE		TRUE
MEM_STATIC		2000
BASIS_LIN_DEP_THRESH 	6
THRESH 			14
SCF_CONVERGENCE 	8
SCF_PRINT_FRGM 		TRUE
SOLVENT_METHOD          PCM
$end

$PCM
THEORY                  CPCM
METHOD                  SWIG
SOLVER                  INVERSION
RADII                   UFF
HPOINTS                 302
HEAVYPOINTS             302
PRINTLEVEL              0
$END

$SOLVENT
DIELECTRIC              78.390000 ! water
$END
--------------------------------------------------------------
 ----------------------------------------------------------------
             Standard Nuclear Orientation (Angstroms)
    I     Atom           X                Y                Z
 ----------------------------------------------------------------
    1      C       1.0023500957    -1.5165941923    -1.0566517026
    2      C       1.7583500957    -0.1815941923    -1.0236517026
    3      C       1.1423500957    -2.3525941923     0.1873482974
    4      C       0.4283500957    -2.0345941923     1.3363482974
    5      C       1.9643500957    -3.4825941923     0.1963482974
    6      C       0.5423500957    -2.8305941923     2.4873482974
    7      C       2.0843500957    -4.2755941923     1.3443482974
    8      C       1.3633500957    -3.9505941923     2.4873482974
    9      H      -0.0566499043    -1.3155941923    -1.2216517026
   10      H       1.3553500957    -2.1005941923    -1.9086517026
   11      H       1.2953500957     0.4734058077    -0.2846517026
   12      H      -0.2266499043    -1.1765941923     1.3443482974
   13      H       2.5213500957    -3.7495941923    -0.6916517026
   14      H      -0.0266499043    -2.5805941923     3.3723482974
   15      H       2.7253500957    -5.1485941923     1.3373482974
   16      H       1.4313500957    -4.5745941923     3.3663482974
   17      H       1.6863600957     0.2753558077    -2.0216617026
   18      H       2.8191150957    -0.3249641923    -0.7702217026
   19      C       0.7793500957     4.2574058077     0.2103482974
   20      C      -1.5316499043     1.3204058077    -0.1666517026
   21      C      -0.8146499043     2.4064058077    -0.7366517026
   22      C      -0.1446499043     3.0844058077     0.3413482974
   23      C      -0.4756499043     2.4044058077     1.4873482974
   24      C      -2.2846499043     0.4474058077    -0.9336517026
   25      C      -2.3416499043     0.6614058077    -2.2986517026
   26      C      -1.6396499043     1.7184058077    -2.8966517026
   27      C      -0.8776499043     2.5984058077    -2.1286517026
   28      N      -1.3146499043     1.3574058077     1.1843482974
   29      H      -2.7886499043    -0.3925941923    -0.4816517026
   30      H      -2.9216499043    -0.0085941923    -2.9216517026
   31      H      -1.7156499043     0.6984058077     1.8573482974
   32      H      -1.6996499043     1.8574058077    -3.9686517026
   33      H      -0.1436499043     2.6624058077     2.4843482974
   34      H      -0.3586499043     3.4244058077    -2.5846517026
   35      H       0.3563500957     5.1144058077     0.7373482974
   36      H       0.8553500957     4.5174058077    -0.8446517026
   37      H       1.7876840957     4.0412358077     0.5931422974
 ----------------------------------------------------------------
 Nuclear Repulsion Energy =        1214.98322188 hartrees
 There are       64 alpha and       64 beta electrons
 Requested basis set is def2-TZVPD
 There are 329 shells and 837 basis functions

 Total QAlloc Memory Limit   2000 MB
 Mega-Array Size      1956 MB
 MEM_STATIC part      2000 MB
 Discretize the solute cavity surface with Lebedev spheres
	Using 302 Lebedev grid points for each H atom
	Using 302 Lebedev grid points for other atoms
	Atomic van der Waals radii will be scaled by 1.20
 Remove points where switching function is < 1.0e-08
 Keep 3837 surface tesserae and discard 7337 interior tesserae
 Molecular Surface Area = 364.715 Angst**2
 A cutoff of  1.0D-14 yielded  45660 shell pairs
 There are    295992 function pairs (    374237 Cartesian)
 Smallest overlap matrix eigenvalue = 3.75E-07
 Linear dependence detected in AO basis
 Tighter screening thresholds may be required for diffuse basis sets
 Use S2THRESH > 14 and THRESH = 14 in case of SCF convergence issues
 Number of orthogonalized atomic orbitals = 831
 Maximum deviation from orthogonality = 1.656E-10

 Scale SEOQF with 1.000000e-01/1.000000e-02/1.000000e-01

 Standard Electronic Orientation quadrupole field applied
 Nucleus-field energy     =    -0.0000000194 hartrees

 -----------------------------------------------------------------------
  General SCF calculation program by
  Eric Jon Sundstrom, Paul Horn, Yuezhi Mao, Dmitri Zuev, Alec White,
  David Stuck, Shaama M.S., Shane Yost, Joonho Lee, David Small,
  Daniel Levine, Susi Lehtola, Hugh Burton, Evgeny Epifanovsky,
  Bang C. Huynh
 -----------------------------------------------------------------------
================================================================
                 ALMO-EDA with the EDA2 driver                  
================================================================
 The second-generation ALMO-EDA (for DFT):                      
 P. R. Horn, Y. Mao and M. Head-Gordon, PCCP, 18, 23067 (2016)  
 Decomposition of the frozen energy:                            
 P. R. Horn, Y. Mao and M. Head-Gordon, JCP, 144, 114107 (2016) 
 FERF model for polarization:                                   
 P. R. Horn and M. Head-Gordon, JCP, 143, 114111 (2015)         
Using eda2 option set 1
Option set summary: Frozen orbital wavefunction, initial wavefunction decomposition, and nDQ polarization.
--------------------------------
Printing EDA Options
--------------------------------
eda_child_super_basis      0
fragmo_guess_mode          0
child_mp                   1
child_mp_orders            232
cls_elec                   1
cls_disp                   0
scfmi_mode                 1
scfmi_occs                 0
scfmi_virts                0
frz_relax                  0
frz_relax_method           0
dc_pen_start               0
dc_pen_conv                0
dc_pen_increment           0
dc_pen_steps               0
dc_pen_thresh_factor       0
dc_pen_pre_newton_thresh   0
frz_ortho_decomp           1
frz_ortho_decomp_conv      6
frgm_method                2
scfmi_freeze_ss            0
separate_rehyb             0
plot_diff_den              0
eda_nocv                   0
eda_vct_relax              1
disp_free_x                0
disp_free_c                0
eda_bsse                   0
eda_pct_a                  0
eda_covp                   0
--------------------------------
Attempting to make child job directory: /home/meili/scratch/qchem25391//Frg1/
Attempting to make child job directory: /home/meili/scratch/qchem25391//Frg2/
Creating input file /home/meili/scratch/qchem25391/Frg1.input
using default PutDataFrgm: nothing
calling putenv with: QCSCRATCH=/home/meili/scratch/qchem25391/ 
Spawning Job For Fragment 0
                  Welcome to Q-Chem
     A Quantum Leap Into The Future Of Chemistry


 Q-Chem 5.2 (devel), Q-Chem, Inc., Pleasanton, CA (2019)

 Yihan Shao,  Zhengting Gan,  E. Epifanovsky,  A. T. B. Gilbert,  M. Wormit,  
 J. Kussmann,  A. W. Lange,  A. Behn,  Jia Deng,  Xintian Feng,  D. Ghosh,  
 M. Goldey,  P. R. Horn,  L. D. Jacobson,  I. Kaliman,  T. Kus,  A. Landau,  
 Jie Liu,  E. I. Proynov,  R. M. Richard,  R. P. Steele,  E. J. Sundstrom,  
 H. L. Woodcock III,  P. M. Zimmerman,  D. Zuev,  B. Albrecht,  E. Alguire,  
 S. A. Baeppler,  D. Barton,  Z. Benda,  Y. A. Bernard,  E. J. Berquist,  
 K. B. Bravaya,  H. Burton,  D. Casanova,  Chun-Min Chang,  Yunqing Chen,  
 A. Chien,  K. D. Closser,  M. P. Coons,  S. Coriani,  S. Dasgupta,  
 A. L. Dempwolff,  M. Diedenhofen,  Hainam Do,  R. G. Edgar,  Po-Tung Fang,  
 S. Faraji,  S. Fatehi,  Qingguo Feng,  K. D. Fenk,  J. Fosso-Tande,  
 J. Gayvert,  Qinghui Ge,  A. Ghysels,  G. Gidofalvi,  J. Gomes,  
 J. Gonthier,  A. Gunina,  D. Hait,  M. W. D. Hanson-Heine,  
 P. H. P. Harbach,  A. W. Hauser,  M. F. Herbst,  J. E. Herr,  
 E. G. Hohenstein,  Z. C. Holden,  Kerwin Hui,  B. C. Huynh,  T.-C. Jagau,  
 Hyunjun Ji,  B. Kaduk,  K. Khistyaev,  Jaehoon Kim,  P. Klunzinger,  K. Koh,  
 D. Kosenkov,  L. Koulias,  T. Kowalczyk,  C. M. Krauter,  A. Kunitsa,  
 Ka Un Lao,  A. Laurent,  K. V. Lawler,  Joonho Lee,  D. Lefrancois,  
 S. Lehtola,  D. S. Levine,  Yi-Pei Li,  You-Sheng Lin,  Fenglai Liu,  
 E. Livshits,  A. Luenser,  P. Manohar,  E. Mansoor,  S. F. Manzer,  
 Shan-Ping Mao,  Yuezhi Mao,  N. Mardirossian,  A. V. Marenich,  
 T. Markovich,  L. A. Martinez-Martinez,  S. A. Maurer,  N. J. Mayhall,  
 S. C. McKenzie,  J.-M. Mewes,  P. Morgante,  A. F. Morrison,  
 J. W. Mullinax,  K. Nanda,  T. S. Nguyen-Beck,  R. Olivares-Amaya,  
 J. A. Parkhill,  Zheng Pei,  T. M. Perrine,  F. Plasser,  P. Pokhilko,  
 S. Prager,  A. Prociuk,  E. Ramos,  D. R. Rehn,  F. Rob,  M. Scheurer,  
 M. Schneider,  N. Sergueev,  S. M. Sharada,  S. Sharma,  D. W. Small,  
 T. Stauch,  T. Stein,  Yu-Chuan Su,  A. J. W. Thom,  A. Tkatchenko,  
 T. Tsuchimochi,  N. M. Tubman,  L. Vogt,  M. L. Vidal,  O. Vydrov,  
 M. A. Watson,  J. Wenzel,  M. de Wergifosse,  T. A. Wesolowski,  A. White,  
 J. Witte,  A. Yamada,  Jun Yang,  K. Yao,  S. Yeganeh,  S. R. Yost,  
 Zhi-Qiang You,  A. Zech,  Igor Ying Zhang,  Xing Zhang,  Yan Zhao,  
 Ying Zhu,  B. R. Brooks,  G. K. L. Chan,  C. J. Cramer,  M. S. Gordon,  
 W. J. Hehre,  A. Klamt,  M. W. Schmidt,  C. D. Sherrill,  D. G. Truhlar,  
 A. Aspuru-Guzik,  R. Baer,  A. T. Bell,  N. A. Besley,  Jeng-Da Chai,  
 A. E. DePrince, III,  R. A. DiStasio Jr.,  A. Dreuw,  B. D. Dunietz,  
 T. R. Furlani,  Chao-Ping Hsu,  Yousung Jung,  Jing Kong,  D. S. Lambrecht,  
 WanZhen Liang,  C. Ochsenfeld,  V. A. Rassolov,  L. V. Slipchenko,  
 J. E. Subotnik,  T. Van Voorhis,  J. M. Herbert,  A. I. Krylov,  
 P. M. W. Gill,  M. Head-Gordon

 Contributors to earlier versions of Q-Chem not listed above: 
 R. D. Adamson,  B. Austin,  J. Baker,  G. J. O. Beran,  K. Brandhorst,  
 S. T. Brown,  E. F. C. Byrd,  A. K. Chakraborty,  C.-L. Cheng,  
 Siu Hung Chien,  D. M. Chipman,  D. L. Crittenden,  H. Dachsel,  
 R. J. Doerksen,  A. D. Dutoi,  L. Fusti-Molnar,  W. A. Goddard III,  
 A. Golubeva-Zadorozhnaya,  S. R. Gwaltney,  G. Hawkins,  A. Heyden,  
 S. Hirata,  G. Kedziora,  F. J. Keil,  C. Kelley,  Jihan Kim,  R. A. King,  
 R. Z. Khaliullin,  P. P. Korambath,  W. Kurlancheek,  A. M. Lee,  M. S. Lee,  
 S. V. Levchenko,  Ching Yeh Lin,  D. Liotard,  R. C. Lochan,  I. Lotan,  
 P. E. Maslen,  N. Nair,  D. P. O'Neill,  D. Neuhauser,  E. Neuscamman,  
 C. M. Oana,  R. Olson,  B. Peters,  R. Peverati,  P. A. Pieniazek,  
 Y. M. Rhee,  J. Ritchie,  M. A. Rohrdanz,  E. Rosta,  N. J. Russ,  
 H. F. Schaefer III,  N. E. Schultz,  N. Shenvi,  A. C. Simmonett,  A. Sodt,  
 D. Stuck,  K. S. Thanthiriwatte,  V. Vanovschi,  Tao Wang,  A. Warshel,  
 C. F. Williams,  Q. Wu,  X. Xu,  W. Zhang

 Please cite Q-Chem as follows:
 Y. Shao et al., Mol. Phys. 113, 184-215 (2015)
 DOI: 10.1080/00268976.2014.952696

 Q-Chem 5.2.1 for Intel X86 EM64T Linux

 Parts of Q-Chem use Armadillo 8.300.2 (Tropical Shenanigans).
 http://arma.sourceforge.net/

 Q-Chem begins on Wed Sep 29 10:17:39 2021  

compute-0-11.local
Host: 0

     Scratch files written to /home/meili/scratch/qchem25391//Frg1//
NAlpha2: 58
NElect   58
Mult     1
Symmetry turned off for PCM/SM12/SMD calculation

Checking the input file for inconsistencies... 	...done.

--------------------------------------------------------------
User input:
--------------------------------------------------------------
$molecule
0 1
 6	1.0023500957	-1.5165941923	-1.0566517026
 6	1.7583500957	-0.1815941923	-1.0236517026
 6	1.1423500957	-2.3525941923	0.1873482974
 6	0.4283500957	-2.0345941923	1.3363482974
 6	1.9643500957	-3.4825941923	0.1963482974
 6	0.5423500957	-2.8305941923	2.4873482974
 6	2.0843500957	-4.2755941923	1.3443482974
 6	1.3633500957	-3.9505941923	2.4873482974
 1	-0.0566499043	-1.3155941923	-1.2216517026
 1	1.3553500957	-2.1005941923	-1.9086517026
 1	1.2953500957	0.4734058077	-0.2846517026
 1	-0.2266499043	-1.1765941923	1.3443482974
 1	2.5213500957	-3.7495941923	-0.6916517026
 1	-0.0266499043	-2.5805941923	3.3723482974
 1	2.7253500957	-5.1485941923	1.3373482974
 1	1.4313500957	-4.5745941923	3.3663482974
 1	1.6863600957	0.2753558077	-2.0216617026
 1	2.8191150957	-0.3249641923	-0.7702217026
$end
$rem
EDA2		1
METHOD		WB97X-V
BASIS		DEF2-TZVPD
XC_GRID		000099000590
NL_GRID		1
UNRESTRICTED		FALSE
MAX_SCF_CYCLES		200
SYMMETRY		FALSE
SYM_IGNORE		TRUE
BASIS_LIN_DEP_THRESH		6
THRESH		14
SCF_CONVERGENCE		8
SCF_PRINT_FRGM		TRUE
SOLVENT_METHOD		PCM
!required keywords
JOBTYPE		SP
SYM_IGNORE		TRUE
SUBSYSTEM		TRUE
GEN_SCFMAN		TRUE
CHILD_INSTRUCTION		2
SYM_IGNORE		TRUE
SCFMI		0
RI_K 0		
PARI_K 0		
MIN_PARI_K 0		
IARI_K 0		
OCC_RI_K 0		
PURECART		1111
MEM_STATIC		2000
MEM_TOTAL		2000
GUI		0
CHILD_MP		1
CHILD_MP_ORDERS		232
FRZ_RELAX		0
FRZ_RELAX_METHOD		0
EDA_CLS_ELEC		1
EDA_CLS_DISP		0
FRZ_ORTHO_DECOMP		1
EDA2		FALSE
FRGM_METHOD		FALSE
CIS_N_ROOTS  0
LOCAL_CIS    0
CIS_RLX_DNS  1
$end
$pcm
THEORY                  CPCM
METHOD                  SWIG
SOLVER                  INVERSION
RADII                   UFF
HPOINTS                 302
HEAVYPOINTS             302
PRINTLEVEL              0
$end
$solvent
DIELECTRIC              78.390000 ! water
$end
--------------------------------------------------------------
 ----------------------------------------------------------------
             Standard Nuclear Orientation (Angstroms)
    I     Atom           X                Y                Z
 ----------------------------------------------------------------
    1      C       1.0023500957    -1.5165941923    -1.0566517026
    2      C       1.7583500957    -0.1815941923    -1.0236517026
    3      C       1.1423500957    -2.3525941923     0.1873482974
    4      C       0.4283500957    -2.0345941923     1.3363482974
    5      C       1.9643500957    -3.4825941923     0.1963482974
    6      C       0.5423500957    -2.8305941923     2.4873482974
    7      C       2.0843500957    -4.2755941923     1.3443482974
    8      C       1.3633500957    -3.9505941923     2.4873482974
    9      H      -0.0566499043    -1.3155941923    -1.2216517026
   10      H       1.3553500957    -2.1005941923    -1.9086517026
   11      H       1.2953500957     0.4734058077    -0.2846517026
   12      H      -0.2266499043    -1.1765941923     1.3443482974
   13      H       2.5213500957    -3.7495941923    -0.6916517026
   14      H      -0.0266499043    -2.5805941923     3.3723482974
   15      H       2.7253500957    -5.1485941923     1.3373482974
   16      H       1.4313500957    -4.5745941923     3.3663482974
   17      H       1.6863600957     0.2753558077    -2.0216617026
   18      H       2.8191150957    -0.3249641923    -0.7702217026
 ----------------------------------------------------------------
 Nuclear Repulsion Energy =         339.84616643 hartrees
 There are       29 alpha and       29 beta electrons
 Requested basis set is def2-TZVPD
 There are 154 shells and 386 basis functions

 Total QAlloc Memory Limit   2000 MB
 Mega-Array Size      1956 MB
 MEM_STATIC part      2000 MB
 Discretize the solute cavity surface with Lebedev spheres
	Using 302 Lebedev grid points for each H atom
	Using 302 Lebedev grid points for other atoms
	Atomic van der Waals radii will be scaled by 1.20
 Remove points where switching function is < 1.0e-08
 Keep 2079 surface tesserae and discard 3357 interior tesserae
 Molecular Surface Area = 202.310 Angst**2
 A cutoff of  1.0D-14 yielded  11342 shell pairs
 There are     72644 function pairs (     92047 Cartesian)
 Smallest overlap matrix eigenvalue = 5.42E-07
 Linear dependence detected in AO basis
 Tighter screening thresholds may be required for diffuse basis sets
 Use S2THRESH > 14 and THRESH = 14 in case of SCF convergence issues
 Number of orthogonalized atomic orbitals = 384
 Maximum deviation from orthogonality = 1.139E-10

 Scale SEOQF with 1.000000e-01/1.000000e-02/1.000000e-01

 Standard Electronic Orientation quadrupole field applied
 Nucleus-field energy     =    -0.0000000078 hartrees
 Guess from superposition of atomic densities
 Warning:  Energy on first SCF cycle will be non-variational
 SAD guess density has 58.000000 electrons

 -----------------------------------------------------------------------
  General SCF calculation program by
  Eric Jon Sundstrom, Paul Horn, Yuezhi Mao, Dmitri Zuev, Alec White,
  David Stuck, Shaama M.S., Shane Yost, Joonho Lee, David Small,
  Daniel Levine, Susi Lehtola, Hugh Burton, Evgeny Epifanovsky,
  Bang C. Huynh
 -----------------------------------------------------------------------
 Exchange:     0.1670 Hartree-Fock + 1.0000 wB97X-V + LR-HF
 Correlation:  1.0000 wB97X-V
 Using Euler-Maclaurin-Lebedev (99,590) quadrature formula
 Nonlocal Correlation:  VV10 with C = 0.0100 and b = 6.00 and scale = 1.00000
 Grid used for NLC:  SG-1 standard quadrature
Energy prior to optimization (guess energy) = -310.838202186324
Begin Timing: Total SCF Calculation
begin iterations for algorithm: DIIS         
the SCF tolerance is set to 1.00e-08
    1    -310.8382021863      1.66e-03     00000 
    2    -310.8780641297      1.03e-03     00000 
    3    -310.8980131539      1.27e-04     00000 
    4    -310.8984899612      3.18e-05     00000 
    5    -310.8985121500      1.45e-05     00000 
    6    -310.8985165143      3.94e-06     00000 
    7    -310.8985169182      1.41e-06     00000 
    8    -310.8985169663      3.57e-07     00000 
    9    -310.8985169706      8.23e-08     00000 
   10    -310.8985169710      4.26e-08     00000 
   11    -310.8985169710      1.23e-08     00000 
   12    -310.8985169710      4.34e-09     00000 Convergence criterion met
Timing for Total SCF: 853.00s (wall), 5320.71s (cpu)

************** Final PCM Free Energy Summary **************
 G_electrostatic  =      -0.00261282 hartree =      -1.63957066 kcal/mol
 G_cavitation     =       0.00000000 hartree =       0.00000000 kcal/mol
 G_dispersion     =       0.00000000 hartree =       0.00000000 kcal/mol
 G_repulsion      =       0.00000000 hartree =       0.00000000 kcal/mol
 --------------------------------------------------
 Non-electrostatic Free Energy =       0.00000000 hartree =       0.00000000 kcal/mol
 Total                         =      -0.00261282 hartree =      -1.63957066 kcal/mol
 --------------------------------------------------
 SCF Energy (H0 + V/2)                       =    -310.89851697 
 Solute Internal Energy (H0)                 =    -310.89590415 
 Total Free Energy (H0 + V/2 + non-elec)     =    -310.89851697 hartree
                                             = -195091.76391917 kcal/mol
***********************************************************

E_pcm = -0.0026128222
Multipole orders to be included
        2
        3
computing dipole RHS
computing quadrupole RHS
total number of RHS in solve_reponses: 8
RHS batch sizes
        8
Beginning Block Conjugate Gradient Iterations. Batch Number: 0
computing hessian-vector products by finite difference
              1      5.52e-01     00000 Conjugate Gradient Iteration
computing hessian-vector products by finite difference
              2      1.78e-01     00000 Conjugate Gradient Iteration
computing hessian-vector products by finite difference
              3      4.51e-02     00000 Conjugate Gradient Iteration
computing hessian-vector products by finite difference
              4      1.06e-02     00000 Conjugate Gradient Iteration
computing hessian-vector products by finite difference
              5      2.36e-03     00000 Conjugate Gradient Iteration
computing hessian-vector products by finite difference
              6      6.75e-04     00000 Conjugate Gradient Iteration
computing hessian-vector products by finite difference
              7      1.67e-04     00000 Conjugate Gradient Iteration
computing hessian-vector products by finite difference
              8      2.82e-05     00000 Conjugate Gradient Iteration
computing hessian-vector products by finite difference
              9      4.88e-06     00000 Conjugate Gradient Iteration
computing hessian-vector products by finite difference
             10      6.84e-07     00000 Conjugate Gradient Iteration
computing hessian-vector products by finite difference
             11      9.43e-08     00000 Conjugate Gradient Iteration
computing hessian-vector products by finite difference
             12      1.61e-08     00000 Conjugate Gradient Iteration
computing hessian-vector products by finite difference
             13      3.98e-09     00000 CG Converged
batch 0 complete
Done Calculating Responses
TESTING ORTHOGONALIZATION OF MULTIPOLE BASIS
Multipole virts passed orthogonality test
Virts Per Order
           87
          145

 --------------------------------------------------------------

                    Orbital Energies (a.u.)
 --------------------------------------------------------------

 Alpha MOs
 -- Occupied --
-10.2795 -10.2745 -10.2744 -10.2715 -10.2710 -10.2706 -10.2672 -10.2596
 -0.9975  -0.9230  -0.8771  -0.8555  -0.7585  -0.7317  -0.6970  -0.6299
 -0.5823  -0.5726  -0.5420  -0.5352  -0.5245  -0.5057  -0.4816  -0.4627
 -0.4569  -0.4355  -0.4293  -0.3474  -0.3394
 -- Virtual --
  0.0595   0.0625   0.0681   0.0814   0.0830   0.0910   0.1043   0.1088
  0.1136   0.1315   0.1566   0.1640   0.1681   0.1743   0.1841   0.1877
  0.1948   0.1981   0.2110   0.2145   0.2237   0.2317   0.2402   0.2515
  0.2602   0.2665   0.2674   0.2720   0.2767   0.2825   0.2885   0.2926
  0.2953   0.3008   0.3037   0.3076   0.3186   0.3260   0.3314   0.3340
  0.3428   0.3480   0.3490   0.3514   0.3634   0.3695   0.3698   0.3755
  0.3786   0.3856   0.3886   0.3913   0.4038   0.4081   0.4131   0.4179
  0.4223   0.4304   0.4347   0.4389   0.4406   0.4508   0.4562   0.4608
  0.4644   0.4691   0.4764   0.4793   0.4877   0.4935   0.4961   0.5020
  0.5100   0.5154   0.5225   0.5260   0.5333   0.5365   0.5385   0.5446
  0.5525   0.5572   0.5634   0.5741   0.5830   0.5863   0.5940   0.6013
  0.6114   0.6189   0.6294   0.6402   0.6556   0.6571   0.6711   0.6805
  0.6829   0.6913   0.7013   0.7054   0.7193   0.7237   0.7248   0.7326
  0.7485   0.7561   0.7612   0.7657   0.7705   0.7772   0.7809   0.7902
  0.7941   0.7951   0.7985   0.8052   0.8078   0.8158   0.8166   0.8269
  0.8359   0.8396   0.8439   0.8472   0.8507   0.8655   0.8773   0.8798
  0.8867   0.8926   0.9120   0.9221   0.9272   0.9500   0.9571   0.9712
  1.0067   1.0098   1.0483   1.0496   1.0605   1.0746   1.0793   1.0908
  1.0996   1.1089   1.1143   1.1560   1.1750   1.1985   1.2067   1.2187
  1.2789   1.2944   1.3194   1.3363   1.3612   1.3814   1.4029   1.4106
  1.4256   1.4457   1.4576   1.4744   1.4943   1.5169   1.5280   1.5464
  1.5675   1.6026   1.6271   1.6285   1.6333   1.6817   1.7076   1.7347
  1.7612   1.7942   1.8021   1.8077   1.8328   1.8418   1.8821   1.8931
  1.9051   1.9201   1.9225   1.9321   1.9503   1.9749   1.9822   1.9900
  2.0028   2.0095   2.0284   2.0361   2.0464   2.0606   2.0757   2.0827
  2.1030   2.1356   2.1437   2.1764   2.2038   2.2065   2.2285   2.2427
  2.2688   2.2935   2.3135   2.3242   2.3781   2.3987   2.4110   2.4342
  2.4681   2.5082   2.5163   2.5379   2.5538   2.5913   2.6049   2.6117
  2.6264   2.6329   2.6512   2.6846   2.6873   2.7226   2.7322   2.7486
  2.7759   2.7869   2.8052   2.8094   2.8285   2.8461   2.8583   2.8831
  2.9071   2.9135   2.9255   2.9311   2.9387   2.9670   2.9810   2.9849
  3.0070   3.0283   3.0344   3.0540   3.0587   3.0754   3.0865   3.1000
  3.1451   3.1714   3.1973   3.2145   3.2221   3.2401   3.2604   3.2917
  3.3016   3.3143   3.3480   3.3731   3.3907   3.3990   3.4058   3.4132
  3.4299   3.4604   3.4713   3.4766   3.4894   3.4927   3.4975   3.5089
  3.5193   3.5339   3.5398   3.5558   3.5621   3.5669   3.5939   3.6148
  3.6203   3.6332   3.6666   3.6775   3.6948   3.7017   3.7149   3.7301
  3.7643   3.7688   3.8313   3.8631   3.8714   3.9163   3.9511   3.9752
  3.9917   4.0298   4.0598   4.1140   4.1283   4.1793   4.1893   4.2187
  4.2700   4.2824   4.3077   4.3264   4.3457   4.3474   4.3724   4.3916
  4.4030   4.4349   4.4430   4.4633   4.4915   4.5531   4.5836   4.6221
  4.6828   4.7344   4.7576   4.8210   4.8665   4.8988   4.9175   4.9565
  5.0123   5.0254   5.1195   5.1762   5.3098   5.3641   5.3776   5.5119
  5.5316   5.6957   5.8211  22.6352  22.6446  22.7869  22.8897  22.9300
 23.0088  23.0805  23.4402
 --------------------------------------------------------------

          Ground-State Mulliken Net Atomic Charges

     Atom                 Charge (a.u.)
  ----------------------------------------
      1 C                    -0.554370
      2 C                    -0.776477
      3 C                     0.478948
      4 C                    -0.280984
      5 C                    -0.348816
      6 C                    -0.495828
      7 C                    -0.452461
      8 C                    -0.383801
      9 H                     0.237733
     10 H                     0.248388
     11 H                     0.233233
     12 H                     0.357896
     13 H                     0.318402
     14 H                     0.316421
     15 H                     0.312362
     16 H                     0.343453
     17 H                     0.202430
     18 H                     0.243470
  ----------------------------------------
  Sum of atomic charges =     0.000000

 -----------------------------------------------------------------
                    Cartesian Multipole Moments
 -----------------------------------------------------------------
    Charge (ESU x 10^10)
                 0.0000
    Dipole Moment (Debye)
         X      -0.1139      Y       0.2877      Z      -0.4526
       Tot       0.5482
    Quadrupole Moments (Debye-Ang)
        XX     -49.9285     XY      -3.1952     YY     -49.2914
        XZ      -2.6348     YZ      -0.3692     ZZ     -46.1202
    Octopole Moments (Debye-Ang^2)
       XXX    -194.2251    XXY     116.2617    XYY     -41.6936
       YYY     359.0473    XXZ     -40.3332    XYZ       1.3832
       YYZ     -24.5215    XZZ     -65.7315    YZZ     109.5665
       ZZZ     -88.9936
    Hexadecapole Moments (Debye-Ang^3)
      XXXX    -703.3337   XXXY     497.6111   XXYY    -472.0935
      XYYY     377.9818   YYYY   -2391.0244   XXXZ    -105.5348
      XXYZ     159.9368   XYYZ      -7.8006   YYYZ     383.0743
      XXZZ    -256.5407   XYZZ     160.6003   YYZZ    -479.6621
      XZZZ     -98.7935   YZZZ     389.6010   ZZZZ    -732.6925
 -----------------------------------------------------------------
Archival summary:
1\1\compute-0-11.local\SP\ProcedureUnspecified\BasisUnspecified\810\meili\WedSep2915:05:202021WedSep2915:05:202021\0\\#,ProcedureUnspecified,BasisUnspecified,\\0,1\C\C,1,1.38965\H,2,1.07947,1,119.985\C,1,1.39738,2,118.814,3,-178.845,0\H,4,1.0817,1,119.816,2,179.518,0\C,4,1.40041,1,120.904,2,-0.791108,0\H,6,1.08308,4,120.122,1,-179.983,0\C,6,1.38993,4,119.819,1,0.955285,0\H,8,1.08011,6,120.098,4,178.301,0\C,8,1.38868,6,119.687,4,-0.848876,0\H,10,1.08143,8,119.836,6,179.443,0\C,1,1.50533,2,120.558,3,-0.552615,0\H,12,1.09046,1,108.526,2,-44.9762,0\H,12,1.09159,1,108.531,2,-161.078,0\C,12,1.53455,1,114.806,2,76.9093,0\H,15,1.09065,12,109.141,1,-67.7645,0\H,15,1.1,12,111.509,1,53.1659,0\H,15,1.1,12,108.037,1,172.978,0\\\@

 Total job time:  17260.30s(wall), 108190.35s(cpu) 
 Wed Sep 29 15:05:20 2021

        *************************************************************
        *                                                           *
        *  Thank you very much for using Q-Chem.  Have a nice day.  *
        *                                                           *
        *************************************************************


Done Job For Fragment 0
calling putenv with: QCSCRATCH=/home/meili/scratch 
calling putenv with: QCTHREADS=8 
Creating input file /home/meili/scratch/qchem25391/Frg2.input
using default PutDataFrgm: nothing
calling putenv with: QCSCRATCH=/home/meili/scratch/qchem25391/ 
Spawning Job For Fragment 1
                  Welcome to Q-Chem
     A Quantum Leap Into The Future Of Chemistry


 Q-Chem 5.2 (devel), Q-Chem, Inc., Pleasanton, CA (2019)

 Yihan Shao,  Zhengting Gan,  E. Epifanovsky,  A. T. B. Gilbert,  M. Wormit,  
 J. Kussmann,  A. W. Lange,  A. Behn,  Jia Deng,  Xintian Feng,  D. Ghosh,  
 M. Goldey,  P. R. Horn,  L. D. Jacobson,  I. Kaliman,  T. Kus,  A. Landau,  
 Jie Liu,  E. I. Proynov,  R. M. Richard,  R. P. Steele,  E. J. Sundstrom,  
 H. L. Woodcock III,  P. M. Zimmerman,  D. Zuev,  B. Albrecht,  E. Alguire,  
 S. A. Baeppler,  D. Barton,  Z. Benda,  Y. A. Bernard,  E. J. Berquist,  
 K. B. Bravaya,  H. Burton,  D. Casanova,  Chun-Min Chang,  Yunqing Chen,  
 A. Chien,  K. D. Closser,  M. P. Coons,  S. Coriani,  S. Dasgupta,  
 A. L. Dempwolff,  M. Diedenhofen,  Hainam Do,  R. G. Edgar,  Po-Tung Fang,  
 S. Faraji,  S. Fatehi,  Qingguo Feng,  K. D. Fenk,  J. Fosso-Tande,  
 J. Gayvert,  Qinghui Ge,  A. Ghysels,  G. Gidofalvi,  J. Gomes,  
 J. Gonthier,  A. Gunina,  D. Hait,  M. W. D. Hanson-Heine,  
 P. H. P. Harbach,  A. W. Hauser,  M. F. Herbst,  J. E. Herr,  
 E. G. Hohenstein,  Z. C. Holden,  Kerwin Hui,  B. C. Huynh,  T.-C. Jagau,  
 Hyunjun Ji,  B. Kaduk,  K. Khistyaev,  Jaehoon Kim,  P. Klunzinger,  K. Koh,  
 D. Kosenkov,  L. Koulias,  T. Kowalczyk,  C. M. Krauter,  A. Kunitsa,  
 Ka Un Lao,  A. Laurent,  K. V. Lawler,  Joonho Lee,  D. Lefrancois,  
 S. Lehtola,  D. S. Levine,  Yi-Pei Li,  You-Sheng Lin,  Fenglai Liu,  
 E. Livshits,  A. Luenser,  P. Manohar,  E. Mansoor,  S. F. Manzer,  
 Shan-Ping Mao,  Yuezhi Mao,  N. Mardirossian,  A. V. Marenich,  
 T. Markovich,  L. A. Martinez-Martinez,  S. A. Maurer,  N. J. Mayhall,  
 S. C. McKenzie,  J.-M. Mewes,  P. Morgante,  A. F. Morrison,  
 J. W. Mullinax,  K. Nanda,  T. S. Nguyen-Beck,  R. Olivares-Amaya,  
 J. A. Parkhill,  Zheng Pei,  T. M. Perrine,  F. Plasser,  P. Pokhilko,  
 S. Prager,  A. Prociuk,  E. Ramos,  D. R. Rehn,  F. Rob,  M. Scheurer,  
 M. Schneider,  N. Sergueev,  S. M. Sharada,  S. Sharma,  D. W. Small,  
 T. Stauch,  T. Stein,  Yu-Chuan Su,  A. J. W. Thom,  A. Tkatchenko,  
 T. Tsuchimochi,  N. M. Tubman,  L. Vogt,  M. L. Vidal,  O. Vydrov,  
 M. A. Watson,  J. Wenzel,  M. de Wergifosse,  T. A. Wesolowski,  A. White,  
 J. Witte,  A. Yamada,  Jun Yang,  K. Yao,  S. Yeganeh,  S. R. Yost,  
 Zhi-Qiang You,  A. Zech,  Igor Ying Zhang,  Xing Zhang,  Yan Zhao,  
 Ying Zhu,  B. R. Brooks,  G. K. L. Chan,  C. J. Cramer,  M. S. Gordon,  
 W. J. Hehre,  A. Klamt,  M. W. Schmidt,  C. D. Sherrill,  D. G. Truhlar,  
 A. Aspuru-Guzik,  R. Baer,  A. T. Bell,  N. A. Besley,  Jeng-Da Chai,  
 A. E. DePrince, III,  R. A. DiStasio Jr.,  A. Dreuw,  B. D. Dunietz,  
 T. R. Furlani,  Chao-Ping Hsu,  Yousung Jung,  Jing Kong,  D. S. Lambrecht,  
 WanZhen Liang,  C. Ochsenfeld,  V. A. Rassolov,  L. V. Slipchenko,  
 J. E. Subotnik,  T. Van Voorhis,  J. M. Herbert,  A. I. Krylov,  
 P. M. W. Gill,  M. Head-Gordon

 Contributors to earlier versions of Q-Chem not listed above: 
 R. D. Adamson,  B. Austin,  J. Baker,  G. J. O. Beran,  K. Brandhorst,  
 S. T. Brown,  E. F. C. Byrd,  A. K. Chakraborty,  C.-L. Cheng,  
 Siu Hung Chien,  D. M. Chipman,  D. L. Crittenden,  H. Dachsel,  
 R. J. Doerksen,  A. D. Dutoi,  L. Fusti-Molnar,  W. A. Goddard III,  
 A. Golubeva-Zadorozhnaya,  S. R. Gwaltney,  G. Hawkins,  A. Heyden,  
 S. Hirata,  G. Kedziora,  F. J. Keil,  C. Kelley,  Jihan Kim,  R. A. King,  
 R. Z. Khaliullin,  P. P. Korambath,  W. Kurlancheek,  A. M. Lee,  M. S. Lee,  
 S. V. Levchenko,  Ching Yeh Lin,  D. Liotard,  R. C. Lochan,  I. Lotan,  
 P. E. Maslen,  N. Nair,  D. P. O'Neill,  D. Neuhauser,  E. Neuscamman,  
 C. M. Oana,  R. Olson,  B. Peters,  R. Peverati,  P. A. Pieniazek,  
 Y. M. Rhee,  J. Ritchie,  M. A. Rohrdanz,  E. Rosta,  N. J. Russ,  
 H. F. Schaefer III,  N. E. Schultz,  N. Shenvi,  A. C. Simmonett,  A. Sodt,  
 D. Stuck,  K. S. Thanthiriwatte,  V. Vanovschi,  Tao Wang,  A. Warshel,  
 C. F. Williams,  Q. Wu,  X. Xu,  W. Zhang

 Please cite Q-Chem as follows:
 Y. Shao et al., Mol. Phys. 113, 184-215 (2015)
 DOI: 10.1080/00268976.2014.952696

 Q-Chem 5.2.1 for Intel X86 EM64T Linux

 Parts of Q-Chem use Armadillo 8.300.2 (Tropical Shenanigans).
 http://arma.sourceforge.net/

 Q-Chem begins on Wed Sep 29 15:05:20 2021  

compute-0-11.local
Host: 0

     Scratch files written to /home/meili/scratch/qchem25391//Frg2//
NAlpha2: 70
NElect   70
Mult     1
Symmetry turned off for PCM/SM12/SMD calculation

Checking the input file for inconsistencies... 	...done.

--------------------------------------------------------------
User input:
--------------------------------------------------------------
$molecule
0 1
 6	0.7793500957	4.2574058077	0.2103482974
 6	-1.5316499043	1.3204058077	-0.1666517026
 6	-0.8146499043	2.4064058077	-0.7366517026
 6	-0.1446499043	3.0844058077	0.3413482974
 6	-0.4756499043	2.4044058077	1.4873482974
 6	-2.2846499043	0.4474058077	-0.9336517026
 6	-2.3416499043	0.6614058077	-2.2986517026
 6	-1.6396499043	1.7184058077	-2.8966517026
 6	-0.8776499043	2.5984058077	-2.1286517026
 7	-1.3146499043	1.3574058077	1.1843482974
 1	-2.7886499043	-0.3925941923	-0.4816517026
 1	-2.9216499043	-0.0085941923	-2.9216517026
 1	-1.7156499043	0.6984058077	1.8573482974
 1	-1.6996499043	1.8574058077	-3.9686517026
 1	-0.1436499043	2.6624058077	2.4843482974
 1	-0.3586499043	3.4244058077	-2.5846517026
 1	0.3563500957	5.1144058077	0.7373482974
 1	0.8553500957	4.5174058077	-0.8446517026
 1	1.7876840957	4.0412358077	0.5931422974
$end
$rem
EDA2		1
METHOD		WB97X-V
BASIS		DEF2-TZVPD
XC_GRID		000099000590
NL_GRID		1
UNRESTRICTED		FALSE
MAX_SCF_CYCLES		200
SYMMETRY		FALSE
SYM_IGNORE		TRUE
BASIS_LIN_DEP_THRESH		6
THRESH		14
SCF_CONVERGENCE		8
SCF_PRINT_FRGM		TRUE
SOLVENT_METHOD		PCM
!required keywords
JOBTYPE		SP
SYM_IGNORE		TRUE
SUBSYSTEM		TRUE
GEN_SCFMAN		TRUE
CHILD_INSTRUCTION		2
SYM_IGNORE		TRUE
SCFMI		0
RI_K 0		
PARI_K 0		
MIN_PARI_K 0		
IARI_K 0		
OCC_RI_K 0		
PURECART		1111
MEM_STATIC		2000
MEM_TOTAL		2000
GUI		0
CHILD_MP		1
CHILD_MP_ORDERS		232
FRZ_RELAX		0
FRZ_RELAX_METHOD		0
EDA_CLS_ELEC		1
EDA_CLS_DISP		0
FRZ_ORTHO_DECOMP		1
EDA2		FALSE
FRGM_METHOD		FALSE
CIS_N_ROOTS  0
LOCAL_CIS    0
CIS_RLX_DNS  1
$end
$pcm
THEORY                  CPCM
METHOD                  SWIG
SOLVER                  INVERSION
RADII                   UFF
HPOINTS                 302
HEAVYPOINTS             302
PRINTLEVEL              0
$end
$solvent
DIELECTRIC              78.390000 ! water
$end
--------------------------------------------------------------
 ----------------------------------------------------------------
             Standard Nuclear Orientation (Angstroms)
    I     Atom           X                Y                Z
 ----------------------------------------------------------------
    1      C       0.7793500957     4.2574058077     0.2103482974
    2      C      -1.5316499043     1.3204058077    -0.1666517026
    3      C      -0.8146499043     2.4064058077    -0.7366517026
    4      C      -0.1446499043     3.0844058077     0.3413482974
    5      C      -0.4756499043     2.4044058077     1.4873482974
    6      C      -2.2846499043     0.4474058077    -0.9336517026
    7      C      -2.3416499043     0.6614058077    -2.2986517026
    8      C      -1.6396499043     1.7184058077    -2.8966517026
    9      C      -0.8776499043     2.5984058077    -2.1286517026
   10      N      -1.3146499043     1.3574058077     1.1843482974
   11      H      -2.7886499043    -0.3925941923    -0.4816517026
   12      H      -2.9216499043    -0.0085941923    -2.9216517026
   13      H      -1.7156499043     0.6984058077     1.8573482974
   14      H      -1.6996499043     1.8574058077    -3.9686517026
   15      H      -0.1436499043     2.6624058077     2.4843482974
   16      H      -0.3586499043     3.4244058077    -2.5846517026
   17      H       0.3563500957     5.1144058077     0.7373482974
   18      H       0.8553500957     4.5174058077    -0.8446517026
   19      H       1.7876840957     4.0412358077     0.5931422974
 ----------------------------------------------------------------
 Nuclear Repulsion Energy =         484.51436233 hartrees
 There are       35 alpha and       35 beta electrons
 Requested basis set is def2-TZVPD
 There are 175 shells and 451 basis functions

 Total QAlloc Memory Limit   2000 MB
 Mega-Array Size      1956 MB
 MEM_STATIC part      2000 MB
 Discretize the solute cavity surface with Lebedev spheres
	Using 302 Lebedev grid points for each H atom
	Using 302 Lebedev grid points for other atoms
	Atomic van der Waals radii will be scaled by 1.20
 Remove points where switching function is < 1.0e-08
 Keep 2163 surface tesserae and discard 3575 interior tesserae
 Molecular Surface Area = 215.226 Angst**2
 A cutoff of  1.0D-14 yielded  14473 shell pairs
 There are     98291 function pairs (    126474 Cartesian)
 Smallest overlap matrix eigenvalue = 5.14E-07
 Linear dependence detected in AO basis
 Tighter screening thresholds may be required for diffuse basis sets
 Use S2THRESH > 14 and THRESH = 14 in case of SCF convergence issues
 Number of orthogonalized atomic orbitals = 448
 Maximum deviation from orthogonality = 1.974E-10

 Scale SEOQF with 1.000000e-01/1.000000e-02/1.000000e-01

 Standard Electronic Orientation quadrupole field applied
 Nucleus-field energy     =    -0.0000000116 hartrees
 Guess from superposition of atomic densities
 Warning:  Energy on first SCF cycle will be non-variational
 SAD guess density has 70.000000 electrons

 -----------------------------------------------------------------------
  General SCF calculation program by
  Eric Jon Sundstrom, Paul Horn, Yuezhi Mao, Dmitri Zuev, Alec White,
  David Stuck, Shaama M.S., Shane Yost, Joonho Lee, David Small,
  Daniel Levine, Susi Lehtola, Hugh Burton, Evgeny Epifanovsky,
  Bang C. Huynh
 -----------------------------------------------------------------------
 Exchange:     0.1670 Hartree-Fock + 1.0000 wB97X-V + LR-HF
 Correlation:  1.0000 wB97X-V
 Using Euler-Maclaurin-Lebedev (99,590) quadrature formula
 Nonlocal Correlation:  VV10 with C = 0.0100 and b = 6.00 and scale = 1.00000
 Grid used for NLC:  SG-1 standard quadrature
Energy prior to optimization (guess energy) = -403.080351973746
Begin Timing: Total SCF Calculation
begin iterations for algorithm: DIIS         
the SCF tolerance is set to 1.00e-08
    1    -403.0803519737      1.66e-03     00000 
    2    -403.1282089386      1.21e-03     00000 
    3    -403.1663580784      2.60e-04     00000 
    4    -403.1679194959      1.21e-04     00000 
    5    -403.1682920256      2.54e-05     00000 
    6    -403.1683127597      9.92e-06     00000 
    7    -403.1683156763      2.97e-06     00000 
    8    -403.1683161804      7.19e-07     00000 
    9    -403.1683162472      3.33e-07     00000 
   10    -403.1683162621      1.63e-07     00000 
   11    -403.1683162656      6.56e-08     00000 
   12    -403.1683162662      2.56e-08     00000 
   13    -403.1683162663      1.04e-08     00000 
   14    -403.1683162663      2.92e-09     00000 Convergence criterion met
Timing for Total SCF: 1542.00s (wall), 9889.71s (cpu)

************** Final PCM Free Energy Summary **************
 G_electrostatic  =      -0.00650505 hartree =      -4.08197740 kcal/mol
 G_cavitation     =       0.00000000 hartree =       0.00000000 kcal/mol
 G_dispersion     =       0.00000000 hartree =       0.00000000 kcal/mol
 G_repulsion      =       0.00000000 hartree =       0.00000000 kcal/mol
 --------------------------------------------------
 Non-electrostatic Free Energy =       0.00000000 hartree =       0.00000000 kcal/mol
 Total                         =      -0.00650505 hartree =      -4.08197740 kcal/mol
 --------------------------------------------------
 SCF Energy (H0 + V/2)                       =    -403.16831627 
 Solute Internal Energy (H0)                 =    -403.16181122 
 Total Free Energy (H0 + V/2 + non-elec)     =    -403.16831627 hartree
                                             = -252991.93686421 kcal/mol
***********************************************************

E_pcm = -0.0065050451
Multipole orders to be included
        2
        3
computing dipole RHS
computing quadrupole RHS
total number of RHS in solve_reponses: 8
RHS batch sizes
        8
Beginning Block Conjugate Gradient Iterations. Batch Number: 0
computing hessian-vector products by finite difference
              1      6.32e-01     00000 Conjugate Gradient Iteration
computing hessian-vector products by finite difference
              2      2.17e-01     00000 Conjugate Gradient Iteration
computing hessian-vector products by finite difference
              3      6.59e-02     00000 Conjugate Gradient Iteration
computing hessian-vector products by finite difference
              4      2.50e-02     00000 Conjugate Gradient Iteration
computing hessian-vector products by finite difference
              5      8.14e-03     00000 Conjugate Gradient Iteration
computing hessian-vector products by finite difference
              6      2.09e-03     00000 Conjugate Gradient Iteration
computing hessian-vector products by finite difference
              7      4.78e-04     00000 Conjugate Gradient Iteration
computing hessian-vector products by finite difference
              8      9.71e-05     00000 Conjugate Gradient Iteration
computing hessian-vector products by finite difference
              9      1.82e-05     00000 Conjugate Gradient Iteration
computing hessian-vector products by finite difference
             10      4.51e-06     00000 Conjugate Gradient Iteration
computing hessian-vector products by finite difference
             11      8.63e-07     00000 Conjugate Gradient Iteration
computing hessian-vector products by finite difference
             12      1.89e-07     00000 Conjugate Gradient Iteration
computing hessian-vector products by finite difference
             13      4.50e-08     00000 Conjugate Gradient Iteration
computing hessian-vector products by finite difference
             14      1.00e-08     00000 Conjugate Gradient Iteration
computing hessian-vector products by finite difference
             15      2.04e-09     00000 CG Converged
batch 0 complete
Done Calculating Responses
TESTING ORTHOGONALIZATION OF MULTIPOLE BASIS
Multipole virts passed orthogonality test
Virts Per Order
          105
          175

 --------------------------------------------------------------

                    Orbital Energies (a.u.)
 --------------------------------------------------------------

 Alpha MOs
 -- Occupied --
-14.4522 -10.3014 -10.2975 -10.2721 -10.2713 -10.2686 -10.2684 -10.2656
-10.2639 -10.2624  -1.1160  -0.9792  -0.9312  -0.8695  -0.8607  -0.8183
 -0.7468  -0.7140  -0.6778  -0.6526  -0.5994  -0.5847  -0.5548  -0.5521
 -0.5395  -0.5183  -0.5143  -0.4948  -0.4799  -0.4530  -0.4527  -0.4339
 -0.3790  -0.3166  -0.2903
 -- Virtual --
  0.0523   0.0601   0.0748   0.0764   0.0911   0.0973   0.0991   0.1053
  0.1255   0.1269   0.1340   0.1451   0.1621   0.1635   0.1753   0.1778
  0.1852   0.1882   0.1992   0.2046   0.2195   0.2230   0.2250   0.2406
  0.2453   0.2523   0.2601   0.2608   0.2643   0.2732   0.2742   0.2754
  0.2797   0.2835   0.2881   0.2920   0.2992   0.3039   0.3136   0.3166
  0.3214   0.3266   0.3359   0.3369   0.3397   0.3416   0.3450   0.3544
  0.3597   0.3644   0.3735   0.3756   0.3772   0.3814   0.3880   0.3900
  0.4038   0.4083   0.4111   0.4127   0.4167   0.4206   0.4253   0.4299
  0.4380   0.4386   0.4473   0.4563   0.4598   0.4599   0.4742   0.4772
  0.4879   0.4923   0.4946   0.4972   0.5002   0.5066   0.5155   0.5228
  0.5282   0.5370   0.5381   0.5477   0.5507   0.5517   0.5607   0.5642
  0.5667   0.5743   0.5790   0.5878   0.5898   0.6105   0.6184   0.6238
  0.6359   0.6410   0.6449   0.6478   0.6536   0.6687   0.6728   0.6749
  0.6810   0.6876   0.7038   0.7055   0.7159   0.7181   0.7282   0.7345
  0.7377   0.7434   0.7459   0.7504   0.7539   0.7616   0.7659   0.7770
  0.7795   0.7873   0.7916   0.8000   0.8024   0.8039   0.8079   0.8156
  0.8207   0.8281   0.8315   0.8323   0.8381   0.8458   0.8543   0.8618
  0.8704   0.8762   0.8917   0.8971   0.9038   0.9147   0.9235   0.9370
  0.9418   0.9542   0.9622   0.9879   0.9893   1.0006   1.0173   1.0261
  1.0356   1.0484   1.0496   1.0569   1.0679   1.0754   1.0805   1.0898
  1.1066   1.1238   1.1344   1.1394   1.1569   1.1802   1.2068   1.2260
  1.2275   1.2365   1.2496   1.2665   1.2981   1.3291   1.3467   1.3534
  1.3759   1.3925   1.4033   1.4164   1.4330   1.4469   1.4589   1.4860
  1.5182   1.5303   1.5556   1.5584   1.5719   1.5831   1.6004   1.6179
  1.6450   1.6639   1.7006   1.7068   1.7253   1.7290   1.7413   1.7538
  1.7870   1.8037   1.8358   1.8410   1.8529   1.8620   1.8810   1.8895
  1.8936   1.9147   1.9317   1.9437   1.9604   1.9617   1.9658   1.9831
  1.9905   1.9978   2.0038   2.0258   2.0379   2.0508   2.0617   2.0734
  2.0914   2.1187   2.1380   2.1697   2.1821   2.2032   2.2110   2.2163
  2.2484   2.2607   2.3008   2.3110   2.3176   2.3593   2.3734   2.3866
  2.4071   2.4336   2.4569   2.4669   2.4679   2.4911   2.5202   2.5362
  2.5547   2.5703   2.5965   2.6122   2.6303   2.6416   2.6586   2.6693
  2.6766   2.7381   2.7528   2.7601   2.7680   2.7853   2.8062   2.8120
  2.8187   2.8259   2.8405   2.8735   2.8805   2.8892   2.8979   2.9149
  2.9230   2.9440   2.9532   2.9732   2.9814   2.9896   3.0156   3.0269
  3.0327   3.0587   3.0712   3.0783   3.0837   3.1305   3.1508   3.1550
  3.1733   3.1870   3.2030   3.2211   3.2266   3.2467   3.2565   3.2662
  3.2827   3.2957   3.3167   3.3361   3.3449   3.3685   3.3709   3.3909
  3.3980   3.4150   3.4260   3.4371   3.4443   3.4490   3.4577   3.4735
  3.4804   3.4915   3.5140   3.5145   3.5208   3.5246   3.5608   3.5690
  3.5733   3.5913   3.6126   3.6199   3.6358   3.6531   3.6639   3.6753
  3.7036   3.7087   3.7155   3.7215   3.7522   3.7643   3.7832   3.7877
  3.7990   3.8616   3.8720   3.8906   3.9264   3.9549   3.9934   4.0275
  4.0489   4.0560   4.1097   4.1435   4.1573   4.1863   4.2178   4.2325
  4.2516   4.2720   4.2766   4.2964   4.3090   4.3540   4.3598   4.3722
  4.4084   4.4169   4.4212   4.4596   4.4709   4.5297   4.5526   4.5893
  4.5974   4.6290   4.6568   4.7511   4.7970   4.8053   4.8241   4.9210
  4.9334   4.9513   4.9716   4.9892   4.9932   5.0594   5.0645   5.1071
  5.1339   5.1529   5.1971   5.2038   5.2737   5.3797   5.4065   5.4480
  5.5110   5.5385   5.5911   5.6352   5.7135   5.8028   5.8284   5.9410
  5.9690   6.2587   6.3359  22.6719  22.7477  22.9180  22.9487  22.9689
 23.1897  23.2479  23.4499  23.7861  32.8301
 --------------------------------------------------------------

          Ground-State Mulliken Net Atomic Charges

     Atom                 Charge (a.u.)
  ----------------------------------------
      1 C                    -0.996518
      2 C                    -0.125984
      3 C                     0.395519
      4 C                     0.904015
      5 C                    -0.764253
      6 C                    -0.593912
      7 C                    -0.365132
      8 C                    -0.570834
      9 C                    -0.486048
     10 N                     0.162425
     11 H                     0.335583
     12 H                     0.333693
     13 H                     0.195654
     14 H                     0.343232
     15 H                     0.253493
     16 H                     0.306190
     17 H                     0.218454
     18 H                     0.232211
     19 H                     0.222212
  ----------------------------------------
  Sum of atomic charges =     0.000000

 -----------------------------------------------------------------
                    Cartesian Multipole Moments
 -----------------------------------------------------------------
    Charge (ESU x 10^10)
                -0.0000
    Dipole Moment (Debye)
         X      -0.1012      Y      -0.7252      Z       2.6556
       Tot       2.7547
    Quadrupole Moments (Debye-Ang)
        XX     -60.1600     XY       6.4199     YY     -58.9753
        XZ      -3.0091     YZ       2.3897     ZZ     -52.4903
    Octopole Moments (Debye-Ang^2)
       XXX     189.5000    XXY    -140.6886    XYY      78.4907
       YYY    -361.9685    XXZ      42.9775    XYZ      -5.1735
       YYZ      38.1892    XZZ      51.3419    YZZ    -111.1364
       ZZZ     110.8216
    Hexadecapole Moments (Debye-Ang^3)
      XXXX    -837.7345   XXXY     219.4529   XXYY    -529.8881
      XYYY     219.0132   YYYY   -2090.8935   XXXZ    -256.1912
      XXYZ      66.0781   XYYZ     -90.1305   YYYZ     131.8987
      XXZZ    -286.3510   XYZZ      65.4572   YYZZ    -485.5884
      XZZZ    -223.3097   YZZZ     129.3162   ZZZZ    -893.9703
 -----------------------------------------------------------------
Archival summary:
1\1\compute-0-11.local\SP\ProcedureUnspecified\BasisUnspecified\199\meili\WedSep2923:27:192021WedSep2923:27:192021\0\\#,ProcedureUnspecified,BasisUnspecified,\\0,1\C\C,1,1.40659\H,2,1.07683,1,120.145\C,2,1.39459,1,118.903,3,-178.857,0\H,4,1.08264,2,119.64,1,179.759,0\C,4,1.40273,2,120.942,1,0.38982,0\H,6,1.08325,4,119.264,2,-179.733,0\C,6,1.38285,4,121.117,2,-0.951391,0\H,8,1.07885,6,120.984,4,-177.174,0\C,8,1.38471,6,118.139,4,1.06414,0\N,10,1.36882,8,130.538,6,179.115,0\H,11,1.02372,10,124.705,8,-0.453369,0\C,11,1.37548,10,109.554,8,179.205,0\H,13,1.08203,11,124.864,10,179.813,0\C,13,1.37305,11,109.887,10,0.919942,0\C,15,1.49895,13,127.524,11,-177.749,0\H,16,1.08922,15,108.328,13,177.126,0\H,16,1.09138,15,109.474,13,-65.4539,0\H,16,1.1,15,112.387,13,57.0576,0\\\@

 Total job time:  30118.95s(wall), 193432.92s(cpu) 
 Wed Sep 29 23:27:19 2021

        *************************************************************
        *                                                           *
        *  Thank you very much for using Q-Chem.  Have a nice day.  *
        *                                                           *
        *************************************************************


Done Job For Fragment 1
calling putenv with: QCSCRATCH=/home/meili/scratch 
calling putenv with: QCTHREADS=8 
Doing General SCFMI
 Exchange:     0.1670 Hartree-Fock + 1.0000 wB97X-V + LR-HF
 Correlation:  1.0000 wB97X-V
 Using Euler-Maclaurin-Lebedev (99,590) quadrature formula
 Nonlocal Correlation:  VV10 with C = 0.0100 and b = 6.00 and scale = 1.00000
 Grid used for NLC:  SG-1 standard quadrature
performing fock build before subrot guess so that all methods have access
Printing subrot_rss_gen Method Specification:
Occupied Subspace Method is 0
Virtual Subspace Method is 0
Energy of the unrelaxed supersystem initial determinant -714.062907419057
performing fock build before subrot guess so that all methods have access
Printing subrot_rss_gen Method Specification:
Occupied Subspace Method is 0
Virtual Subspace Method is 0
Energy of the unrelaxed supersystem initial determinant w/ solvent -714.071303982527
write pseudocanon occs and virts to disk
write pseudocanon orbital energies to disk
Tolerance of ortho_decomp_scf: 1.00e-06
GDM subspace size: 20
Beginning the Orthogonal Decomposition of the Initial Supersystem Wavefunction
    1    -714.0361506512      1.66e-02     ortho_decomp Preconditoned Steepest Descent
    2    -714.0380537986      4.15e-04     ortho_decomp BFGS Step
    3    -714.0380599785      3.24e-05     ortho_decomp BFGS Step
    4    -714.0380599904      1.32e-06     ortho_decomp BFGS Step
    5    -714.0380599904      4.47e-08     ortho_decomp 00000 Convergence criterion met
 Hartree-Fock
 Hartree-Fock
 Hartree-Fock
Doing General SCFMI
 Exchange:     0.1670 Hartree-Fock + 1.0000 wB97X-V + LR-HF
 Correlation:  1.0000 wB97X-V
 Using Euler-Maclaurin-Lebedev (99,590) quadrature formula
 Nonlocal Correlation:  VV10 with C = 0.0100 and b = 6.00 and scale = 1.00000
 Grid used for NLC:  SG-1 standard quadrature
performing fock build at end of subrot_r(subrot) constructor so that all methods have access
<S^2> of initial wavefunction before polarization iterations 0.0000000000
Beginning iterations for the determination of the polarized wavefunction
Energy prior to optimization (guess energy) = -714.071303982528
Begin Timing: Total SCF Calculation
begin iterations for algorithm: DIIS         
the SCF tolerance is set to 1.00e-08
    1    -714.0713039825      4.70e-05     00000 
    2    -714.0716844177      2.01e-05     00000 
    3    -714.0717262901      1.03e-05     00000 
    4    -714.0717396785      3.70e-06     00000 
    5    -714.0717415275      1.76e-06     00000 
    6    -714.0717420408      7.43e-07     00000 
    7    -714.0717421189      3.51e-07     00000 
    8    -714.0717421317      1.91e-07     00000 
    9    -714.0717421353      8.43e-08     00000 
   10    -714.0717421358      4.53e-08     00000 
   11    -714.0717421360      1.77e-08     00000 
   12    -714.0717421360      8.43e-09     00000 Convergence criterion met
write pseudocanon occs and virts to disk
write pseudocanon orbital energies to disk
Timing for Total SCF: 8782.00s (wall), 57258.06s (cpu)
<S^2> of polarized wavefunction after polarization iterations 0.0000000000
relaxing scfmi constraint to allow all rotations in the entire AO span
Doing General SCFMI
 Exchange:     0.1670 Hartree-Fock + 1.0000 wB97X-V + LR-HF
 Correlation:  1.0000 wB97X-V
 Using Euler-Maclaurin-Lebedev (99,590) quadrature formula
 Nonlocal Correlation:  VV10 with C = 0.0100 and b = 6.00 and scale = 1.00000
 Grid used for NLC:  SG-1 standard quadrature
performing fock build at end of subrot_r(subrot) constructor so that all methods have access
<S^2> of polarized wavefunction before ct-allowed iterations 0.0000000000
Beginning iterations for the determination of the CT-Allowed wavefunction
Energy prior to optimization (guess energy) = -714.071742136004
Begin Timing: Total SCF Calculation
begin iterations for algorithm: DIIS         
the SCF tolerance is set to 1.00e-08
    1    -714.0717421360      5.76e-05     00000 
    2    -714.0728226444      5.62e-06     00000 
    3    -714.0728526684      1.06e-06     00000 
    4    -714.0728536838      6.61e-07     00000 
    5    -714.0728538415      1.28e-07     00000 
    6    -714.0728538510      6.55e-08     00000 
    7    -714.0728538529      1.29e-08     00000 
    8    -714.0728538530      6.09e-09     00000 Convergence criterion met
write pseudocanon occs and virts to disk
write pseudocanon orbital energies to disk
Timing for Total SCF: 5673.00s (wall), 36589.65s (cpu)
<S^2> of ct_allowed wavefunction after ct-allowed iterations 0.0000000000

================================
        Results of EDA2         
================================
Basic EDA Quantities
--------------------
Fragment Energies (Ha):
1 -310.8985169710
2 -403.1683162663
--------------------
  E_prp (kJ/mol) = 0.0000
  E_sol (kJ/mol) = 1.8938
  E_frz (kJ/mol) = -13.6319
  E_pol (kJ/mol) = -1.1504
  E_vct (kJ/mol) = -2.9188
  E_int (kJ/mol) = -15.8073
--------------------


Initial Wavefunction Decomposition
--------------------
  --------------------
  Orthogonal Fragment Subspace Decomposition:
  --------------------
     E_elec   (ELEC)   (kJ/mol) = -25.8543
     E_pauli  (PAULI)  (kJ/mol) = 39.0843
     E_disp   (DISP)   (kJ/mol) = -26.8619
     --------------------
     Terms summing to E_pauli:
     --------------------
        E_kep_pauli       (kJ/mol) = 51.6058
        E_disp_free_pauli (kJ/mol) = -12.5215
  --------------------
  Classical Frozen Decomposition:
  --------------------
     E_cls_elec  (CLS ELEC)  (kJ/mol) = -8.9649
     E_cls_pauli (CLS PAULI) (kJ/mol) = -4.6670
    [E_mod_pauli (MOD PAULI) (kJ/mol) = 22.1949 (CLS PAULI - DISP from orthogonal decomposition) ]
  --------------------
--------------------

Simplified EDA Summary (kJ/mol)
--------------------
 PREPARATION     0.0000
 SOLVATION       1.8938
 FROZEN          13.2300      (does not include dispersion)
[PAULI           39.0843]     (if this is negligible, then frozen describes electrostatics)
 DISPERSION      -26.8619
 POLARIZATION    -1.1504
 CHARGE TRANSFER -2.9188
 TOTAL           -15.8073     (PRP + SOL + FRZ + DISP + POL + CT)
--------------------

 --------------------------------------------------------------

                    Orbital Energies (a.u.)
 --------------------------------------------------------------

 Alpha MOs
 -- Occupied --
-14.4544 -10.3024 -10.2988 -10.2786 -10.2742 -10.2740 -10.2726 -10.2721
-10.2708 -10.2705 -10.2701 -10.2694 -10.2690 -10.2664 -10.2651 -10.2634
-10.2629 -10.2553  -1.1179  -0.9968  -0.9800  -0.9323  -0.9208  -0.8767
 -0.8704  -0.8615  -0.8532  -0.8195  -0.7560  -0.7478  -0.7312  -0.7149
 -0.6958  -0.6788  -0.6542  -0.6292  -0.6004  -0.5856  -0.5817  -0.5728
 -0.5575  -0.5529  -0.5408  -0.5400  -0.5316  -0.5231  -0.5191  -0.5140
 -0.5038  -0.4956  -0.4806  -0.4797  -0.4606  -0.4574  -0.4536  -0.4498
 -0.4351  -0.4337  -0.4279  -0.3777  -0.3470  -0.3385  -0.3174  -0.2913
 -- Virtual --
  0.0493   0.0562   0.0617   0.0639   0.0676   0.0729   0.0744   0.0860
  0.0871   0.0906   0.0955   0.0988   0.1002   0.1056   0.1115   0.1171
  0.1231   0.1258   0.1284   0.1364   0.1410   0.1506   0.1544   0.1621
  0.1661   0.1701   0.1717   0.1768   0.1856   0.1893   0.1915   0.1951
  0.2018   0.2040   0.2060   0.2120   0.2168   0.2207   0.2217   0.2295
  0.2344   0.2370   0.2381   0.2457   0.2498   0.2534   0.2548   0.2587
  0.2615   0.2631   0.2646   0.2684   0.2714   0.2731   0.2762   0.2792
  0.2813   0.2865   0.2886   0.2904   0.2931   0.2957   0.2988   0.3017
  0.3028   0.3053   0.3105   0.3115   0.3145   0.3170   0.3207   0.3228
  0.3241   0.3283   0.3334   0.3345   0.3386   0.3410   0.3487   0.3501
  0.3512   0.3524   0.3567   0.3589   0.3620   0.3628   0.3664   0.3691
  0.3719   0.3734   0.3769   0.3794   0.3846   0.3862   0.3871   0.3904
  0.3915   0.3957   0.3986   0.4035   0.4050   0.4065   0.4080   0.4131
  0.4156   0.4169   0.4207   0.4242   0.4256   0.4286   0.4301   0.4349
  0.4362   0.4384   0.4390   0.4440   0.4474   0.4490   0.4513   0.4531
  0.4604   0.4624   0.4658   0.4672   0.4731   0.4784   0.4813   0.4853
  0.4870   0.4888   0.4899   0.4964   0.4978   0.5020   0.5024   0.5046
  0.5060   0.5123   0.5146   0.5176   0.5219   0.5241   0.5246   0.5302
  0.5324   0.5385   0.5391   0.5432   0.5463   0.5497   0.5529   0.5538
  0.5578   0.5614   0.5628   0.5680   0.5702   0.5745   0.5774   0.5789
  0.5873   0.5907   0.5928   0.5973   0.5998   0.6059   0.6094   0.6122
  0.6146   0.6177   0.6234   0.6294   0.6345   0.6353   0.6394   0.6428
  0.6448   0.6480   0.6543   0.6609   0.6630   0.6667   0.6695   0.6748
  0.6767   0.6787   0.6831   0.6880   0.6900   0.6969   0.7030   0.7058
  0.7080   0.7106   0.7155   0.7167   0.7189   0.7227   0.7229   0.7288
  0.7319   0.7368   0.7398   0.7457   0.7491   0.7499   0.7518   0.7525
  0.7590   0.7615   0.7635   0.7660   0.7682   0.7689   0.7740   0.7764
  0.7818   0.7861   0.7880   0.7919   0.7936   0.7957   0.7982   0.7988
  0.8019   0.8093   0.8118   0.8129   0.8150   0.8176   0.8198   0.8215
  0.8280   0.8300   0.8326   0.8373   0.8384   0.8425   0.8477   0.8505
  0.8542   0.8585   0.8605   0.8651   0.8664   0.8695   0.8711   0.8731
  0.8768   0.8818   0.8861   0.8914   0.8956   0.8978   0.8995   0.9084
  0.9103   0.9140   0.9153   0.9257   0.9296   0.9352   0.9446   0.9480
  0.9491   0.9583   0.9622   0.9649   0.9680   0.9731   0.9791   0.9902
  0.9966   1.0021   1.0093   1.0122   1.0175   1.0258   1.0279   1.0370
  1.0469   1.0523   1.0539   1.0588   1.0645   1.0750   1.0805   1.0844
  1.0872   1.0888   1.0958   1.0976   1.1021   1.1097   1.1200   1.1211
  1.1300   1.1408   1.1435   1.1450   1.1522   1.1597   1.1643   1.1718
  1.1901   1.1924   1.1979   1.2013   1.2151   1.2215   1.2295   1.2394
  1.2404   1.2470   1.2577   1.2667   1.2715   1.2927   1.2959   1.3005
  1.3161   1.3209   1.3401   1.3457   1.3519   1.3636   1.3801   1.3915
  1.4044   1.4063   1.4157   1.4191   1.4284   1.4356   1.4411   1.4506
  1.4579   1.4622   1.4648   1.4745   1.4782   1.4886   1.4930   1.5014
  1.5104   1.5178   1.5324   1.5340   1.5391   1.5458   1.5659   1.5738
  1.5763   1.5888   1.5994   1.6046   1.6129   1.6260   1.6325   1.6398
  1.6533   1.6635   1.6750   1.6803   1.6944   1.6957   1.7087   1.7249
  1.7395   1.7462   1.7507   1.7623   1.7674   1.7863   1.8104   1.8155
  1.8204   1.8385   1.8492   1.8536   1.8559   1.8718   1.8785   1.8900
  1.8993   1.9053   1.9168   1.9190   1.9321   1.9356   1.9430   1.9448
  1.9521   1.9555   1.9623   1.9718   1.9776   1.9803   1.9867   1.9931
  1.9997   2.0106   2.0172   2.0197   2.0248   2.0301   2.0372   2.0453
  2.0535   2.0551   2.0652   2.0711   2.0830   2.0882   2.0930   2.0990
  2.1019   2.1113   2.1242   2.1264   2.1434   2.1509   2.1582   2.1630
  2.1711   2.1829   2.1853   2.1918   2.1964   2.2206   2.2227   2.2327
  2.2370   2.2441   2.2467   2.2683   2.2777   2.2876   2.3089   2.3139
  2.3229   2.3275   2.3337   2.3453   2.3496   2.3688   2.3750   2.3929
  2.4013   2.4093   2.4118   2.4232   2.4386   2.4428   2.4569   2.4676
  2.4721   2.4894   2.5017   2.5028   2.5069   2.5160   2.5435   2.5516
  2.5762   2.5867   2.5906   2.5943   2.6099   2.6178   2.6209   2.6354
  2.6499   2.6574   2.6620   2.6640   2.6674   2.6750   2.6855   2.6932
  2.6996   2.7066   2.7224   2.7282   2.7393   2.7471   2.7499   2.7737
  2.7823   2.7861   2.7944   2.8049   2.8102   2.8157   2.8208   2.8235
  2.8289   2.8390   2.8466   2.8526   2.8611   2.8718   2.8803   2.8889
  2.8929   2.9003   2.9050   2.9102   2.9225   2.9248   2.9318   2.9377
  2.9455   2.9522   2.9534   2.9661   2.9733   2.9817   2.9964   2.9976
  3.0051   3.0088   3.0108   3.0251   3.0265   3.0375   3.0501   3.0523
  3.0661   3.0698   3.0747   3.0761   3.0856   3.0876   3.0955   3.1089
  3.1128   3.1246   3.1347   3.1369   3.1602   3.1738   3.1834   3.1902
  3.2000   3.2057   3.2228   3.2292   3.2363   3.2442   3.2518   3.2542
  3.2658   3.2731   3.2898   3.2935   3.2972   3.3250   3.3270   3.3372
  3.3486   3.3525   3.3589   3.3694   3.3765   3.3848   3.3911   3.3973
  3.4006   3.4109   3.4202   3.4251   3.4286   3.4342   3.4430   3.4496
  3.4505   3.4565   3.4644   3.4681   3.4731   3.4851   3.4915   3.4941
  3.5025   3.5088   3.5107   3.5124   3.5152   3.5197   3.5311   3.5336
  3.5352   3.5404   3.5468   3.5563   3.5615   3.5676   3.5759   3.5843
  3.5890   3.5934   3.5962   3.6072   3.6117   3.6134   3.6234   3.6288
  3.6364   3.6455   3.6466   3.6575   3.6735   3.6794   3.6873   3.6891
  3.6961   3.7090   3.7186   3.7210   3.7249   3.7296   3.7363   3.7492
  3.7532   3.7567   3.7703   3.7743   3.7879   3.8013   3.8072   3.8121
  3.8241   3.8448   3.8612   3.8727   3.8849   3.8901   3.8998   3.9069
  3.9357   3.9475   3.9639   3.9786   4.0057   4.0104   4.0127   4.0610
  4.0616   4.0680   4.0765   4.0982   4.1187   4.1492   4.1649   4.1741
  4.1854   4.1937   4.2033   4.2228   4.2315   4.2421   4.2665   4.2728
  4.2898   4.2928   4.2969   4.3024   4.3169   4.3242   4.3339   4.3431
  4.3581   4.3591   4.3650   4.3757   4.3847   4.3908   4.4167   4.4225
  4.4306   4.4322   4.4366   4.4531   4.4628   4.4760   4.4874   4.4982
  4.5137   4.5396   4.5684   4.5787   4.6039   4.6165   4.6199   4.6445
  4.6718   4.6844   4.7157   4.7525   4.7625   4.7709   4.8066   4.8199
  4.8381   4.8407   4.8896   4.9231   4.9365   4.9430   4.9545   4.9716
  4.9766   4.9910   5.0064   5.0253   5.0305   5.0482   5.0672   5.0913
  5.1241   5.1417   5.1641   5.1738   5.2000   5.2154   5.2502   5.2848
  5.3336   5.3702   5.3849   5.3879   5.4212   5.4962   5.5233   5.5267
  5.5413   5.5468   5.5947   5.6464   5.7199   5.7327   5.8195   5.8393
  5.8507   5.9642   5.9721   6.2716   6.3344  22.6838  22.6910  22.7487
 22.8252  22.8462  22.9117  22.9573  22.9741  23.0099  23.0144  23.0502
 23.1030  23.2134  23.2707  23.4623  23.4779  23.7900  32.9138
 --------------------------------------------------------------

          Ground-State Mulliken Net Atomic Charges

     Atom                 Charge (a.u.)
  ----------------------------------------
      1 C                    -0.196555
      2 C                    -0.470512
      3 C                     0.100218
      4 C                    -0.219975
      5 C                    -0.369600
      6 C                    -0.551972
      7 C                    -0.437969
      8 C                    -0.410323
      9 H                    -0.026252
     10 H                     0.267376
     11 H                     0.005840
     12 H                     0.517259
     13 H                     0.340934
     14 H                     0.337756
     15 H                     0.321090
     16 H                     0.347161
     17 H                     0.159291
     18 H                     0.243374
     19 C                    -1.096186
     20 C                    -0.209404
     21 C                     0.284397
     22 C                     0.827827
     23 C                    -0.574893
     24 C                    -0.470611
     25 C                    -0.408443
     26 C                    -0.555073
     27 C                    -0.505805
     28 N                     0.217005
     29 H                     0.307031
     30 H                     0.330083
     31 H                     0.272975
     32 H                     0.351634
     33 H                     0.257047
     34 H                     0.290316
     35 H                     0.258884
     36 H                     0.247795
     37 H                     0.218278
  ----------------------------------------
  Sum of atomic charges =     0.000000

 -----------------------------------------------------------------
                    Cartesian Multipole Moments
 -----------------------------------------------------------------
    Charge (ESU x 10^10)
                 0.0000
    Dipole Moment (Debye)
         X      -0.3133      Y      -0.1634      Z       2.0421
       Tot       2.0724
    Quadrupole Moments (Debye-Ang)
        XX    -110.4775     XY       3.4056     YY    -108.2702
        XZ      -5.4454     YZ       1.9953     ZZ     -98.6840
    Octopole Moments (Debye-Ang^2)
       XXX      -5.8820    XXY     -23.8668    XYY      36.3637
       YYY       0.1172    XXZ       2.6940    XYZ      -3.8241
       YYZ      13.2302    XZZ     -15.0266    YZZ      -0.4247
       ZZZ      21.0222
    Hexadecapole Moments (Debye-Ang^3)
      XXXX   -1545.4809   XXXY     718.7125   XXYY   -1003.6588
      XYYY     600.3513   YYYY   -4483.2286   XXXZ    -360.6185
      XXYZ     226.1715   XYYZ     -98.2351   YYYZ     516.9570
      XXZZ    -543.5926   XYZZ     226.5161   YYZZ    -966.3487
      XZZZ    -320.8853   YZZZ     519.1872   ZZZZ   -1627.4705
 -----------------------------------------------------------------
Archival summary:
1\1\compute-0-11.local\SP\ProcedureUnspecified\BasisUnspecified\11719\meili\ThuSep3006:45:462021ThuSep3006:45:462021\0\\#,ProcedureUnspecified,BasisUnspecified,\\0,1\N\H,1,1.02372\C,1,1.36882,2,124.705\C,1,1.37548,2,125.74,3,-179.603,0\H,4,1.08203,1,124.864,2,-0.533674,0\C,4,1.37305,1,109.887,2,-179.426,0\C,3,1.38471,1,130.538,2,-0.453369,0\H,7,1.07885,3,120.854,1,-2.64494,0\C,7,1.38285,3,118.139,1,179.115,0\H,9,1.08325,7,119.607,3,179.841,0\C,9,1.40273,7,121.117,3,1.06414,0\H,11,1.08264,9,119.415,7,179.678,0\C,11,1.39459,9,120.942,7,-0.951391,0\H,13,1.07683,11,120.942,9,-178.458,0\C,13,1.40659,11,118.903,9,0.38982,0\C,6,1.49895,4,127.524,1,-177.749,0\H,16,1.08922,6,108.328,4,177.126,0\H,16,1.09138,6,109.474,4,-65.4539,0\H,16,1.1,6,112.387,4,57.0576,0\H,2,2.44866,1,96.7189,3,75.9878,0\C,20,1.07947,2,168.281,1,140.009,0\C,21,1.38965,20,119.985,2,-167.152,0\C,22,1.39738,21,118.814,20,-178.845,0\H,23,1.0817,22,119.816,21,179.518,0\C,23,1.40041,22,120.904,21,-0.791108,0\H,25,1.08308,23,120.122,22,-179.983,0\C,25,1.38993,23,119.819,22,0.955285,0\H,27,1.08011,25,120.098,23,178.301,0\C,27,1.38868,25,119.687,23,-0.848876,0\H,29,1.08143,27,119.836,25,179.443,0\C,22,1.50533,21,120.558,20,-0.552615,0\H,31,1.09046,22,108.526,21,-44.9762,0\H,31,1.09159,22,108.531,21,-161.078,0\C,31,1.53455,22,114.806,21,76.9093,0\H,34,1.09065,31,109.141,22,-67.7645,0\H,34,1.1,31,111.509,22,53.1659,0\H,34,1.1,31,108.037,22,172.978,0\\\@

 Total job time:  73695.58s(wall), 176338.02s(cpu) 
 Thu Sep 30 06:45:46 2021

        *************************************************************
        *                                                           *
        *  Thank you very much for using Q-Chem.  Have a nice day.  *
        *                                                           *
        *************************************************************


