
Running Job 1 of 1 SSI-048PHE-105TYR-1_SMD_TZVPD.in
qchem SSI-048PHE-105TYR-1_SMD_TZVPD.in_33732.0 /tmp/qchem33732/ 0
/global/common/cori/software/qchem/5.2/exe/qcprog.exe_s SSI-048PHE-105TYR-1_SMD_TZVPD.in_33732.0 /tmp/qchem33732/
                  Welcome to Q-Chem
     A Quantum Leap Into The Future Of Chemistry


 Q-Chem 5.2, Q-Chem, Inc., Pleasanton, CA (2019)

 License issued to: National Energy Research Scientific Computing Center

 Yihan Shao,  Zhengting Gan,  E. Epifanovsky,  A. T. B. Gilbert,  M. Wormit,  
 J. Kussmann,  A. W. Lange,  A. Behn,  Jia Deng,  Xintian Feng,  D. Ghosh,  
 M. Goldey,  P. R. Horn,  L. D. Jacobson,  I. Kaliman,  T. Kus,  A. Landau,  
 Jie Liu,  E. I. Proynov,  R. M. Richard,  R. P. Steele,  E. J. Sundstrom,  
 H. L. Woodcock III,  P. M. Zimmerman,  D. Zuev,  B. Albrecht,  E. Alguire,  
 S. A. Baeppler,  D. Barton,  Z. Benda,  Y. A. Bernard,  E. J. Berquist,  
 K. B. Bravaya,  H. Burton,  D. Casanova,  Chun-Min Chang,  Yunqing Chen,  
 A. Chien,  K. D. Closser,  M. P. Coons,  S. Coriani,  S. Dasgupta,  
 A. L. Dempwolff,  M. Diedenhofen,  Hainam Do,  R. G. Edgar,  Po-Tung Fang,  
 S. Faraji,  S. Fatehi,  Qingguo Feng,  K. D. Fenk,  J. Fosso-Tande,  
 J. Gayvert,  Qinghui Ge,  A. Ghysels,  G. Gidofalvi,  J. Gomes,  
 J. Gonthier,  A. Gunina,  D. Hait,  M. W. D. Hanson-Heine,  
 P. H. P. Harbach,  A. W. Hauser,  M. F. Herbst,  J. E. Herr,  
 E. G. Hohenstein,  Z. C. Holden,  Kerwin Hui,  B. C. Huynh,  T.-C. Jagau,  
 Hyunjun Ji,  B. Kaduk,  K. Khistyaev,  Jaehoon Kim,  P. Klunzinger,  K. Koh,  
 D. Kosenkov,  L. Koulias,  T. Kowalczyk,  C. M. Krauter,  A. Kunitsa,  
 Ka Un Lao,  A. Laurent,  K. V. Lawler,  Joonho Lee,  D. Lefrancois,  
 S. Lehtola,  D. S. Levine,  Yi-Pei Li,  You-Sheng Lin,  Fenglai Liu,  
 E. Livshits,  A. Luenser,  P. Manohar,  E. Mansoor,  S. F. Manzer,  
 Shan-Ping Mao,  Yuezhi Mao,  N. Mardirossian,  A. V. Marenich,  
 T. Markovich,  L. A. Martinez-Martinez,  S. A. Maurer,  N. J. Mayhall,  
 S. C. McKenzie,  J.-M. Mewes,  P. Morgante,  A. F. Morrison,  
 J. W. Mullinax,  K. Nanda,  T. S. Nguyen-Beck,  R. Olivares-Amaya,  
 J. A. Parkhill,  Zheng Pei,  T. M. Perrine,  F. Plasser,  P. Pokhilko,  
 S. Prager,  A. Prociuk,  E. Ramos,  D. R. Rehn,  F. Rob,  M. Scheurer,  
 M. Schneider,  N. Sergueev,  S. M. Sharada,  S. Sharma,  D. W. Small,  
 T. Stauch,  T. Stein,  Yu-Chuan Su,  A. J. W. Thom,  A. Tkatchenko,  
 T. Tsuchimochi,  N. M. Tubman,  L. Vogt,  M. L. Vidal,  O. Vydrov,  
 M. A. Watson,  J. Wenzel,  M. de Wergifosse,  T. A. Wesolowski,  A. White,  
 J. Witte,  A. Yamada,  Jun Yang,  K. Yao,  S. Yeganeh,  S. R. Yost,  
 Zhi-Qiang You,  A. Zech,  Igor Ying Zhang,  Xing Zhang,  Yan Zhao,  
 Ying Zhu,  B. R. Brooks,  G. K. L. Chan,  C. J. Cramer,  M. S. Gordon,  
 W. J. Hehre,  A. Klamt,  M. W. Schmidt,  C. D. Sherrill,  D. G. Truhlar,  
 A. Aspuru-Guzik,  R. Baer,  A. T. Bell,  N. A. Besley,  Jeng-Da Chai,  
 A. E. DePrince, III,  R. A. DiStasio Jr.,  A. Dreuw,  B. D. Dunietz,  
 T. R. Furlani,  Chao-Ping Hsu,  Yousung Jung,  Jing Kong,  D. S. Lambrecht,  
 WanZhen Liang,  C. Ochsenfeld,  V. A. Rassolov,  L. V. Slipchenko,  
 J. E. Subotnik,  T. Van Voorhis,  J. M. Herbert,  A. I. Krylov,  
 P. M. W. Gill,  M. Head-Gordon

 Contributors to earlier versions of Q-Chem not listed above: 
 R. D. Adamson,  B. Austin,  J. Baker,  G. J. O. Beran,  K. Brandhorst,  
 S. T. Brown,  E. F. C. Byrd,  A. K. Chakraborty,  C.-L. Cheng,  
 Siu Hung Chien,  D. M. Chipman,  D. L. Crittenden,  H. Dachsel,  
 R. J. Doerksen,  A. D. Dutoi,  L. Fusti-Molnar,  W. A. Goddard III,  
 A. Golubeva-Zadorozhnaya,  S. R. Gwaltney,  G. Hawkins,  A. Heyden,  
 S. Hirata,  G. Kedziora,  F. J. Keil,  C. Kelley,  Jihan Kim,  R. A. King,  
 R. Z. Khaliullin,  P. P. Korambath,  W. Kurlancheek,  A. M. Lee,  M. S. Lee,  
 S. V. Levchenko,  Ching Yeh Lin,  D. Liotard,  R. C. Lochan,  I. Lotan,  
 P. E. Maslen,  N. Nair,  D. P. O'Neill,  D. Neuhauser,  E. Neuscamman,  
 C. M. Oana,  R. Olson,  B. Peters,  R. Peverati,  P. A. Pieniazek,  
 Y. M. Rhee,  J. Ritchie,  M. A. Rohrdanz,  E. Rosta,  N. J. Russ,  
 H. F. Schaefer III,  N. E. Schultz,  N. Shenvi,  A. C. Simmonett,  A. Sodt,  
 D. Stuck,  K. S. Thanthiriwatte,  V. Vanovschi,  Tao Wang,  A. Warshel,  
 C. F. Williams,  Q. Wu,  X. Xu,  W. Zhang

 Please cite Q-Chem as follows:
 Y. Shao et al., Mol. Phys. 113, 184-215 (2015)
 DOI: 10.1080/00268976.2014.952696

 Q-Chem 5.2.0 for Intel X86 EM64T Linux

 Parts of Q-Chem use Armadillo 8.300.2 (Tropical Shenanigans).
 http://arma.sourceforge.net/

 Q-Chem begins on Sun Sep 26 08:21:04 2021  

Host: cori01
0

     Scratch files written to /tmp/qchem33732//
 May1019 |scratch|qcdevops|jenkins|workspace|build_RNUM -1
Processing $rem in /global/common/cori/software/qchem/5.2/config/preferences:
	 MEM_TOTAL  96000 
NAlpha2: 108
NElect   108
Mult     1
Symmetry turned off for PCM/SM12/SMD calculation

 Q-Chem warning in module libgen/rem_setup.C, line 2803:

 Neither GIA nor STOLL is specified by user. Use STOLL as the default


Checking the input file for inconsistencies... 	...done.

--------------------------------------------------------------
User input:
--------------------------------------------------------------
$comment
SSI-048PHE-105TYR-1.pdb
$end

$molecule
0 1
--
0 1
C   -2.585429844470    1.116324746194    2.699918019840
C   -0.329429844470    0.635324746194    1.702918019840
C   -1.103429844470    0.894324746194    2.829918019840
C    1.040570155530    0.439324746194    1.816918019840
C   -0.488429844470    0.965324746194    4.074918019840
C    1.648570155530    0.508324746194    3.062918019840
C    0.881570155530    0.769324746194    4.192918019840
H   -0.792429844470    0.581324746194    0.727918019840
H    1.633570155530    0.240324746194    0.933918019840
H   -3.086429844470    0.684324746194    3.566918019840
H   -2.936429844470    0.582324746194    1.822918019840
H   -1.079429844470    1.169324746194    4.956918019840
H    2.716570155530    0.364324746194    3.151918019840
H    1.349570155530    0.815324746194    5.165918019840
H   -2.863989844470    2.176734746194    2.610888019840
--
0 1
C    0.530570155530   -3.547675253806   -2.232081980160
C   -1.033429844470   -0.088675253806   -2.024081980160
C   -0.036429844470    0.698324746194   -2.590081980160
C   -0.847429844470   -1.462675253806   -1.910081980160
C    0.331570155530   -2.058675253806   -2.351081980160
C    1.142570155530    0.114324746194   -3.038081980160
C    1.320570155530   -1.259675253806   -2.919081980160
O   -0.217429844470    2.043324746194   -2.704081980160
H   -1.944429844470    0.374324746194   -1.674081980160
H   -1.627429844470   -2.072675253806   -1.473081980160
H    1.921570155530    0.718324746194   -3.475081980160
H    0.548570155530    2.503324746194   -3.060081980160
H   -0.181429844470   -3.959675253806   -1.519081980160
H    1.525570155530   -3.719675253806   -1.838081980160
H    2.239570155530   -1.709675253806   -3.272081980160
H    0.407966155530   -4.071985253806   -3.191281980160
$end

$rem
JOBTYPE			EDA
EDA2			1
method			wB97X-V
BASIS			def2-TZVPD
XC_GRID			000099000590
NL_GRID			1
UNRESTRICTED		FALSE
MAX_SCF_CYCLES		200
SYMMETRY		FALSE
SYM_IGNORE		TRUE
MEM_STATIC		2000
BASIS_LIN_DEP_THRESH 	6
THRESH 			14
SCF_CONVERGENCE 	8
SCF_PRINT_FRGM 		TRUE
SOLVENT_METHOD          SMD
$end

$SMX
SOLVENT			WATER
$END
--------------------------------------------------------------
 ----------------------------------------------------------------
             Standard Nuclear Orientation (Angstroms)
    I     Atom           X                Y                Z
 ----------------------------------------------------------------
    1      C      -2.5854298445     1.1163247462     2.6999180198
    2      C      -0.3294298445     0.6353247462     1.7029180198
    3      C      -1.1034298445     0.8943247462     2.8299180198
    4      C       1.0405701555     0.4393247462     1.8169180198
    5      C      -0.4884298445     0.9653247462     4.0749180198
    6      C       1.6485701555     0.5083247462     3.0629180198
    7      C       0.8815701555     0.7693247462     4.1929180198
    8      H      -0.7924298445     0.5813247462     0.7279180198
    9      H       1.6335701555     0.2403247462     0.9339180198
   10      H      -3.0864298445     0.6843247462     3.5669180198
   11      H      -2.9364298445     0.5823247462     1.8229180198
   12      H      -1.0794298445     1.1693247462     4.9569180198
   13      H       2.7165701555     0.3643247462     3.1519180198
   14      H       1.3495701555     0.8153247462     5.1659180198
   15      H      -2.8639898445     2.1767347462     2.6108880198
   16      C       0.5305701555    -3.5476752538    -2.2320819802
   17      C      -1.0334298445    -0.0886752538    -2.0240819802
   18      C      -0.0364298445     0.6983247462    -2.5900819802
   19      C      -0.8474298445    -1.4626752538    -1.9100819802
   20      C       0.3315701555    -2.0586752538    -2.3510819802
   21      C       1.1425701555     0.1143247462    -3.0380819802
   22      C       1.3205701555    -1.2596752538    -2.9190819802
   23      O      -0.2174298445     2.0433247462    -2.7040819802
   24      H      -1.9444298445     0.3743247462    -1.6740819802
   25      H      -1.6274298445    -2.0726752538    -1.4730819802
   26      H       1.9215701555     0.7183247462    -3.4750819802
   27      H       0.5485701555     2.5033247462    -3.0600819802
   28      H      -0.1814298445    -3.9596752538    -1.5190819802
   29      H       1.5255701555    -3.7196752538    -1.8380819802
   30      H       2.2395701555    -1.7096752538    -3.2720819802
   31      H       0.4079661555    -4.0719852538    -3.1912819802
 ----------------------------------------------------------------
 Nuclear Repulsion Energy =         873.75687977 hartrees
 There are       54 alpha and       54 beta electrons
 Requested basis set is def2-TZVPD
 There are 276 shells and 702 basis functions

 Total QAlloc Memory Limit  96000 MB
 Mega-Array Size      1956 MB
 MEM_STATIC part      2000 MB
 
 Citation of the SMD model:
 Marenich, A.V.; Cramer, C.J.; Truhlar, D.G.
 J. Phys. Chem. B 2009, 113, 6378-6396.
 iSolventCode=           1
 Solvent: water                                                           
 
 vradii
            1           2           3           4           5           6
    1   1.8500000   1.8500000   1.8500000   1.8500000   1.8500000   1.8500000
            7           8           9          10          11          12
    1   1.8500000   1.2000000   1.2000000   1.2000000   1.2000000   1.2000000
           13          14          15          16          17          18
    1   1.2000000   1.2000000   1.2000000   1.8500000   1.8500000   1.8500000
           19          20          21          22          23          24
    1   1.8500000   1.8500000   1.8500000   1.8500000   1.5200000   1.2000000
           25          26          27          28          29          30
    1   1.2000000   1.2000000   1.2000000   1.2000000   1.2000000   1.2000000
           31
    1   1.2000000
 Changing PCM_VDW_RADII to SMD_RADIUS
 Discretize the solute cavity surface with Lebedev spheres
	Using 110 Lebedev grid points for each H atom
	Using 194 Lebedev grid points for other atoms
	Atomic van der Waals radii will be scaled by 1.20
 Remove points where switching function is < 1.0e-08
 Keep 2250 surface tesserae and discard 2420 interior tesserae
 Molecular Surface Area = 271.609 Angst**2
 A cutoff of  1.0D-14 yielded  31760 shell pairs
 There are    205036 function pairs (    258354 Cartesian)
 Smallest overlap matrix eigenvalue = 4.29E-07
 Linear dependence detected in AO basis
 Tighter screening thresholds may be required for diffuse basis sets
 Use S2THRESH > 14 and THRESH = 14 in case of SCF convergence issues
 Number of orthogonalized atomic orbitals = 698
 Maximum deviation from orthogonality = 3.350E-10

 Scale SEOQF with 1.000000e-01/1.000000e-01/1.000000e-02

 Standard Electronic Orientation quadrupole field applied
 Nucleus-field energy     =     0.0000000151 hartrees

 -----------------------------------------------------------------------
  General SCF calculation program by
  Eric Jon Sundstrom, Paul Horn, Yuezhi Mao, Dmitri Zuev, Alec White,
  David Stuck, Shaama M.S., Shane Yost, Joonho Lee, David Small,
  Daniel Levine, Susi Lehtola, Hugh Burton, Evgeny Epifanovsky
 -----------------------------------------------------------------------
================================================================
                 ALMO-EDA with the EDA2 driver                  
================================================================
 The second-generation ALMO-EDA (for DFT):                      
 P. R. Horn, Y. Mao and M. Head-Gordon, PCCP, 18, 23067 (2016)  
 Decomposition of the frozen energy:                            
 P. R. Horn, Y. Mao and M. Head-Gordon, JCP, 144, 114107 (2016) 
 FERF model for polarization:                                   
 P. R. Horn and M. Head-Gordon, JCP, 143, 114111 (2015)         
Using eda2 option set 1
Option set summary: Frozen orbital wavefunction, initial wavefunction decomposition, and nDQ polarization.
--------------------------------
Printing EDA Options
--------------------------------
eda_child_super_basis      0
fragmo_guess_mode          0
child_mp                   1
child_mp_orders            232
cls_elec                   1
cls_disp                   0
scfmi_mode                 1
scfmi_occs                 0
scfmi_virts                0
frz_relax                  0
frz_relax_method           0
dc_pen_start               0
dc_pen_conv                0
dc_pen_increment           0
dc_pen_steps               0
dc_pen_thresh_factor       0
dc_pen_pre_newton_thresh   0
frz_ortho_decomp           1
frz_ortho_decomp_conv      6
frgm_method                2
scfmi_freeze_ss            0
separate_rehyb             0
plot_diff_den              0
eda_nocv                   0
eda_vct_relax              1
disp_free_x                0
disp_free_c                0
eda_bsse                   0
eda_pct_a                  0
eda_covp                   0
--------------------------------
Attempting to make child job directory: /tmp/qchem33732//Frg1/
Attempting to make child job directory: /tmp/qchem33732//Frg2/
Creating input file /tmp/qchem33732/Frg1.input
using default PutDataFrgm: nothing
calling putenv with: QCSCRATCH=/tmp/qchem33732/ 
calling putenv with: QCLOCALSCR=/tmp/qchem33732/ 
Spawning Job For Fragment 0
                  Welcome to Q-Chem
     A Quantum Leap Into The Future Of Chemistry


 Q-Chem 5.2, Q-Chem, Inc., Pleasanton, CA (2019)

 License issued to: National Energy Research Scientific Computing Center

 Yihan Shao,  Zhengting Gan,  E. Epifanovsky,  A. T. B. Gilbert,  M. Wormit,  
 J. Kussmann,  A. W. Lange,  A. Behn,  Jia Deng,  Xintian Feng,  D. Ghosh,  
 M. Goldey,  P. R. Horn,  L. D. Jacobson,  I. Kaliman,  T. Kus,  A. Landau,  
 Jie Liu,  E. I. Proynov,  R. M. Richard,  R. P. Steele,  E. J. Sundstrom,  
 H. L. Woodcock III,  P. M. Zimmerman,  D. Zuev,  B. Albrecht,  E. Alguire,  
 S. A. Baeppler,  D. Barton,  Z. Benda,  Y. A. Bernard,  E. J. Berquist,  
 K. B. Bravaya,  H. Burton,  D. Casanova,  Chun-Min Chang,  Yunqing Chen,  
 A. Chien,  K. D. Closser,  M. P. Coons,  S. Coriani,  S. Dasgupta,  
 A. L. Dempwolff,  M. Diedenhofen,  Hainam Do,  R. G. Edgar,  Po-Tung Fang,  
 S. Faraji,  S. Fatehi,  Qingguo Feng,  K. D. Fenk,  J. Fosso-Tande,  
 J. Gayvert,  Qinghui Ge,  A. Ghysels,  G. Gidofalvi,  J. Gomes,  
 J. Gonthier,  A. Gunina,  D. Hait,  M. W. D. Hanson-Heine,  
 P. H. P. Harbach,  A. W. Hauser,  M. F. Herbst,  J. E. Herr,  
 E. G. Hohenstein,  Z. C. Holden,  Kerwin Hui,  B. C. Huynh,  T.-C. Jagau,  
 Hyunjun Ji,  B. Kaduk,  K. Khistyaev,  Jaehoon Kim,  P. Klunzinger,  K. Koh,  
 D. Kosenkov,  L. Koulias,  T. Kowalczyk,  C. M. Krauter,  A. Kunitsa,  
 Ka Un Lao,  A. Laurent,  K. V. Lawler,  Joonho Lee,  D. Lefrancois,  
 S. Lehtola,  D. S. Levine,  Yi-Pei Li,  You-Sheng Lin,  Fenglai Liu,  
 E. Livshits,  A. Luenser,  P. Manohar,  E. Mansoor,  S. F. Manzer,  
 Shan-Ping Mao,  Yuezhi Mao,  N. Mardirossian,  A. V. Marenich,  
 T. Markovich,  L. A. Martinez-Martinez,  S. A. Maurer,  N. J. Mayhall,  
 S. C. McKenzie,  J.-M. Mewes,  P. Morgante,  A. F. Morrison,  
 J. W. Mullinax,  K. Nanda,  T. S. Nguyen-Beck,  R. Olivares-Amaya,  
 J. A. Parkhill,  Zheng Pei,  T. M. Perrine,  F. Plasser,  P. Pokhilko,  
 S. Prager,  A. Prociuk,  E. Ramos,  D. R. Rehn,  F. Rob,  M. Scheurer,  
 M. Schneider,  N. Sergueev,  S. M. Sharada,  S. Sharma,  D. W. Small,  
 T. Stauch,  T. Stein,  Yu-Chuan Su,  A. J. W. Thom,  A. Tkatchenko,  
 T. Tsuchimochi,  N. M. Tubman,  L. Vogt,  M. L. Vidal,  O. Vydrov,  
 M. A. Watson,  J. Wenzel,  M. de Wergifosse,  T. A. Wesolowski,  A. White,  
 J. Witte,  A. Yamada,  Jun Yang,  K. Yao,  S. Yeganeh,  S. R. Yost,  
 Zhi-Qiang You,  A. Zech,  Igor Ying Zhang,  Xing Zhang,  Yan Zhao,  
 Ying Zhu,  B. R. Brooks,  G. K. L. Chan,  C. J. Cramer,  M. S. Gordon,  
 W. J. Hehre,  A. Klamt,  M. W. Schmidt,  C. D. Sherrill,  D. G. Truhlar,  
 A. Aspuru-Guzik,  R. Baer,  A. T. Bell,  N. A. Besley,  Jeng-Da Chai,  
 A. E. DePrince, III,  R. A. DiStasio Jr.,  A. Dreuw,  B. D. Dunietz,  
 T. R. Furlani,  Chao-Ping Hsu,  Yousung Jung,  Jing Kong,  D. S. Lambrecht,  
 WanZhen Liang,  C. Ochsenfeld,  V. A. Rassolov,  L. V. Slipchenko,  
 J. E. Subotnik,  T. Van Voorhis,  J. M. Herbert,  A. I. Krylov,  
 P. M. W. Gill,  M. Head-Gordon

 Contributors to earlier versions of Q-Chem not listed above: 
 R. D. Adamson,  B. Austin,  J. Baker,  G. J. O. Beran,  K. Brandhorst,  
 S. T. Brown,  E. F. C. Byrd,  A. K. Chakraborty,  C.-L. Cheng,  
 Siu Hung Chien,  D. M. Chipman,  D. L. Crittenden,  H. Dachsel,  
 R. J. Doerksen,  A. D. Dutoi,  L. Fusti-Molnar,  W. A. Goddard III,  
 A. Golubeva-Zadorozhnaya,  S. R. Gwaltney,  G. Hawkins,  A. Heyden,  
 S. Hirata,  G. Kedziora,  F. J. Keil,  C. Kelley,  Jihan Kim,  R. A. King,  
 R. Z. Khaliullin,  P. P. Korambath,  W. Kurlancheek,  A. M. Lee,  M. S. Lee,  
 S. V. Levchenko,  Ching Yeh Lin,  D. Liotard,  R. C. Lochan,  I. Lotan,  
 P. E. Maslen,  N. Nair,  D. P. O'Neill,  D. Neuhauser,  E. Neuscamman,  
 C. M. Oana,  R. Olson,  B. Peters,  R. Peverati,  P. A. Pieniazek,  
 Y. M. Rhee,  J. Ritchie,  M. A. Rohrdanz,  E. Rosta,  N. J. Russ,  
 H. F. Schaefer III,  N. E. Schultz,  N. Shenvi,  A. C. Simmonett,  A. Sodt,  
 D. Stuck,  K. S. Thanthiriwatte,  V. Vanovschi,  Tao Wang,  A. Warshel,  
 C. F. Williams,  Q. Wu,  X. Xu,  W. Zhang

 Please cite Q-Chem as follows:
 Y. Shao et al., Mol. Phys. 113, 184-215 (2015)
 DOI: 10.1080/00268976.2014.952696

 Q-Chem 5.2.0 for Intel X86 EM64T Linux

 Parts of Q-Chem use Armadillo 8.300.2 (Tropical Shenanigans).
 http://arma.sourceforge.net/

 Q-Chem begins on Sun Sep 26 08:21:12 2021  

Host: cori01
0

     Scratch files written to /tmp/qchem33732//Frg1//
 May1019 |scratch|qcdevops|jenkins|workspace|build_RNUM -1
Processing $rem in /global/common/cori/software/qchem/5.2/config/preferences:
	 MEM_TOTAL  96000 
NAlpha2: 50
NElect   50
Mult     1
Symmetry turned off for PCM/SM12/SMD calculation

Checking the input file for inconsistencies... 	...done.

--------------------------------------------------------------
User input:
--------------------------------------------------------------
$molecule
0 1
 6	-2.5854298445	1.1163247462	2.6999180198
 6	-0.3294298445	0.6353247462	1.7029180198
 6	-1.1034298445	0.8943247462	2.8299180198
 6	1.0405701555	0.4393247462	1.8169180198
 6	-0.4884298445	0.9653247462	4.0749180198
 6	1.6485701555	0.5083247462	3.0629180198
 6	0.8815701555	0.7693247462	4.1929180198
 1	-0.7924298445	0.5813247462	0.7279180198
 1	1.6335701555	0.2403247462	0.9339180198
 1	-3.0864298445	0.6843247462	3.5669180198
 1	-2.9364298445	0.5823247462	1.8229180198
 1	-1.0794298445	1.1693247462	4.9569180198
 1	2.7165701555	0.3643247462	3.1519180198
 1	1.3495701555	0.8153247462	5.1659180198
 1	-2.8639898445	2.1767347462	2.6108880198
$end
$rem
EDA2		1
METHOD		WB97X-V
BASIS		DEF2-TZVPD
XC_GRID		000099000590
NL_GRID		1
UNRESTRICTED		FALSE
MAX_SCF_CYCLES		200
SYMMETRY		FALSE
SYM_IGNORE		TRUE
BASIS_LIN_DEP_THRESH		6
THRESH		14
SCF_CONVERGENCE		8
SCF_PRINT_FRGM		TRUE
SOLVENT_METHOD		SMD
!required keywords
JOBTYPE		SP
SYM_IGNORE		TRUE
SUBSYSTEM		TRUE
GEN_SCFMAN		TRUE
CHILD_INSTRUCTION		2
SYM_IGNORE		TRUE
SCFMI		0
RI_K 0		
PARI_K 0		
MIN_PARI_K 0		
IARI_K 0		
OCC_RI_K 0		
PURECART		1111
MEM_STATIC		2000
MEM_TOTAL		96000
GUI		0
CHILD_MP		1
CHILD_MP_ORDERS		232
FRZ_RELAX		0
FRZ_RELAX_METHOD		0
EDA_CLS_ELEC		1
EDA_CLS_DISP		0
FRZ_ORTHO_DECOMP		1
EDA2		FALSE
FRGM_METHOD		FALSE
CIS_N_ROOTS  0
LOCAL_CIS    0
CIS_RLX_DNS  1
$end
$smx
SOLVENT			WATER
$end
--------------------------------------------------------------
 ----------------------------------------------------------------
             Standard Nuclear Orientation (Angstroms)
    I     Atom           X                Y                Z
 ----------------------------------------------------------------
    1      C      -2.5854298445     1.1163247462     2.6999180198
    2      C      -0.3294298445     0.6353247462     1.7029180198
    3      C      -1.1034298445     0.8943247462     2.8299180198
    4      C       1.0405701555     0.4393247462     1.8169180198
    5      C      -0.4884298445     0.9653247462     4.0749180198
    6      C       1.6485701555     0.5083247462     3.0629180198
    7      C       0.8815701555     0.7693247462     4.1929180198
    8      H      -0.7924298445     0.5813247462     0.7279180198
    9      H       1.6335701555     0.2403247462     0.9339180198
   10      H      -3.0864298445     0.6843247462     3.5669180198
   11      H      -2.9364298445     0.5823247462     1.8229180198
   12      H      -1.0794298445     1.1693247462     4.9569180198
   13      H       2.7165701555     0.3643247462     3.1519180198
   14      H       1.3495701555     0.8153247462     5.1659180198
   15      H      -2.8639898445     2.1767347462     2.6108880198
 ----------------------------------------------------------------
 Nuclear Repulsion Energy =         270.31641792 hartrees
 There are       25 alpha and       25 beta electrons
 Requested basis set is def2-TZVPD
 There are 131 shells and 331 basis functions

 Total QAlloc Memory Limit  96000 MB
 Mega-Array Size      1956 MB
 MEM_STATIC part      2000 MB
 
 Citation of the SMD model:
 Marenich, A.V.; Cramer, C.J.; Truhlar, D.G.
 J. Phys. Chem. B 2009, 113, 6378-6396.
 iSolventCode=           1
 Solvent: water                                                           
 
 vradii
            1           2           3           4           5           6
    1   1.8500000   1.8500000   1.8500000   1.8500000   1.8500000   1.8500000
            7           8           9          10          11          12
    1   1.8500000   1.2000000   1.2000000   1.2000000   1.2000000   1.2000000
           13          14          15
    1   1.2000000   1.2000000   1.2000000
 Changing PCM_VDW_RADII to SMD_RADIUS
 Discretize the solute cavity surface with Lebedev spheres
	Using 110 Lebedev grid points for each H atom
	Using 194 Lebedev grid points for other atoms
	Atomic van der Waals radii will be scaled by 1.20
 Remove points where switching function is < 1.0e-08
 Keep 1082 surface tesserae and discard 1156 interior tesserae
 Molecular Surface Area = 132.129 Angst**2

                       Distance Matrix (Angstroms)
             C (  1)   C (  2)   C (  3)   C (  4)   C (  5)   C (  6)
   C (  2)  2.512948
   C (  3)  1.504164  1.391505
   C (  4)  3.792874  1.388637  2.414525
   C (  5)  2.512138  2.400118  1.390428  2.777243
   C (  6)  4.292807  2.403791  2.788689  1.388143  2.408270
   C (  7)  3.790719  2.772107  2.411145  2.404071  1.388971  1.390435
   H (  8)  2.718429  1.080699  2.147811  2.136814  3.382644  3.378762
   H (  9)  4.656833  2.144937  3.393184  1.082099  3.859325  2.145854
   H ( 10)  1.090557  3.328355  2.125925  4.489394  2.662072  4.764999
   H ( 11)  1.085120  2.610298  2.114541  3.979575  3.348268  4.750295
   H ( 12)  2.713834  3.381741  2.144838  3.858355  1.081120  3.386169
   H ( 13)  5.374106  3.383956  3.870011  2.144021  3.388976  1.081333
   H ( 14)  4.653599  3.852767  3.388266  3.384178  2.142668  2.146220
   H ( 15)  1.099996  3.102313  2.189091  4.346789  3.042069  4.832300
             C (  7)   H (  8)   H (  9)   H ( 10)   H ( 11)   H ( 12)
   H (  8)  3.852771
   H (  9)  3.386211  2.458494
   H ( 10)  4.017975  3.651433  5.422935
   H ( 11)  4.497665  2.407439  4.668210  1.753408
   H ( 12)  2.142246  4.279317  4.940439  2.489051  3.689847
   H ( 13)  2.148239  4.270357  2.471394  5.826614  5.811211  4.279681
   H ( 14)  1.080680  4.933433  4.280316  4.717209  5.440564  2.463542
   H ( 15)  4.302655  3.222153  5.175902  1.786270  1.779968  3.115026
             H ( 13)   H ( 14)
   H ( 14)  2.475538
   H ( 15)  5.892384  5.112309
 
 A cutoff of  1.0D-14 yielded   8360 shell pairs
 There are     54502 function pairs (     69456 Cartesian)
 Smallest overlap matrix eigenvalue = 5.41E-07
 Linear dependence detected in AO basis
 Tighter screening thresholds may be required for diffuse basis sets
 Use S2THRESH > 14 and THRESH = 14 in case of SCF convergence issues
 Number of orthogonalized atomic orbitals = 330
 Maximum deviation from orthogonality = 1.260E-10

 Scale SEOQF with 1.000000e-01/1.000000e-01/1.000000e-02

 Standard Electronic Orientation quadrupole field applied
 Nucleus-field energy     =     0.0000000016 hartrees
 Guess from superposition of atomic densities
 Warning:  Energy on first SCF cycle will be non-variational
 SAD guess density has 49.913408 electrons

 -----------------------------------------------------------------------
  General SCF calculation program by
  Eric Jon Sundstrom, Paul Horn, Yuezhi Mao, Dmitri Zuev, Alec White,
  David Stuck, Shaama M.S., Shane Yost, Joonho Lee, David Small,
  Daniel Levine, Susi Lehtola, Hugh Burton, Evgeny Epifanovsky
 -----------------------------------------------------------------------
 Exchange:     0.1670 Hartree-Fock + 1.0000 wB97X-V + LR-HF
 Correlation:  1.0000 wB97X-V
 Using Euler-Maclaurin-Lebedev (99,590) quadrature formula
 Nonlocal Correlation:  VV10 with C = 0.0100 and b = 6.00 and scale = 1.00000
 Grid used for NLC:  SG-1 standard quadrature
Energy prior to optimization (guess energy) = -271.519451318207
Begin Timing: Total SCF Calculation
begin iterations for algorithm: DIIS         
the SCF tolerance is set to 1.00e-08
    1    -271.5194513182      1.98e-03     00000 
    2    -271.5607381209      1.29e-03     00000 
    3    -271.5851172621      1.55e-04     00000 
    4    -271.5858107682      4.68e-05     00000 
    5    -271.5858618881      2.11e-05     00000 
    6    -271.5858693702      5.16e-06     00000 
    7    -271.5858700551      9.98e-07     00000 
    8    -271.5858700796      4.40e-07     00000 
    9    -271.5858700834      8.78e-08     00000 
   10    -271.5858700836      3.28e-08     00000 
   11    -271.5858700836      1.27e-08     00000 
   12    -271.5858700837      4.99e-09     00000 Convergence criterion met
Timing for Total SCF: 1286.00s (wall), 2531.04s (cpu)
(3)  G-ENP(liq) elect-nuc-pol free energy of system     -271.585870084 a.u.
(4)  G-CDS(liq) cavity-dispersion-solvent structure 
     free energy                                                3.1617 kcal/mol
(6)  G-S(liq) free energy of system                     -271.580831611 a.u.
E_pcm = -0.0073805714
E_cds = 0.0050384727
Multipole orders to be included
        2
        3
computing dipole RHS
computing quadrupole RHS
total number of RHS in solve_reponses: 8
RHS batch sizes
        8
Beginning Block Conjugate Gradient Iterations. Batch Number: 0
computing hessian-vector products by finite difference
              1      6.32e-01     00000 Conjugate Gradient Iteration
computing hessian-vector products by finite difference
              2      1.99e-01     00000 Conjugate Gradient Iteration
computing hessian-vector products by finite difference
              3      4.70e-02     00000 Conjugate Gradient Iteration
computing hessian-vector products by finite difference
              4      1.17e-02     00000 Conjugate Gradient Iteration
computing hessian-vector products by finite difference
              5      2.21e-03     00000 Conjugate Gradient Iteration
computing hessian-vector products by finite difference
              6      6.88e-04     00000 Conjugate Gradient Iteration
computing hessian-vector products by finite difference
              7      1.80e-04     00000 Conjugate Gradient Iteration
computing hessian-vector products by finite difference
              8      2.88e-05     00000 Conjugate Gradient Iteration
computing hessian-vector products by finite difference
              9      3.63e-06     00000 Conjugate Gradient Iteration
computing hessian-vector products by finite difference
             10      7.57e-07     00000 Conjugate Gradient Iteration
computing hessian-vector products by finite difference
             11      1.44e-07     00000 Conjugate Gradient Iteration
computing hessian-vector products by finite difference
             12      1.97e-08     00000 Conjugate Gradient Iteration
computing hessian-vector products by finite difference
             13      4.53e-09     00000 CG Converged
batch 0 complete
Done Calculating Responses
TESTING ORTHOGONALIZATION OF MULTIPOLE BASIS
Multipole virts passed orthogonality test
Virts Per Order
           75
          125
 
 --------------------------------------------------------------
 
                    Orbital Energies (a.u.)
 --------------------------------------------------------------
 
 Alpha MOs
 -- Occupied --
-10.2760 -10.2672 -10.2669 -10.2643 -10.2632 -10.2631 -10.2527  -0.9945
 -0.9021  -0.8752  -0.8071  -0.7250  -0.7006  -0.6243  -0.5691  -0.5595
 -0.5294  -0.5244  -0.5077  -0.4800  -0.4703  -0.4349  -0.4344  -0.3469
 -0.3349
 -- Virtual --
  0.0679   0.0684   0.0722   0.0844   0.0899   0.1096   0.1160   0.1183
  0.1411   0.1590   0.1711   0.1739   0.1927   0.1949   0.2003   0.2074
  0.2281   0.2303   0.2399   0.2456   0.2555   0.2641   0.2667   0.2767
  0.2853   0.2875   0.2882   0.2976   0.2993   0.3070   0.3081   0.3159
  0.3246   0.3294   0.3369   0.3400   0.3570   0.3577   0.3715   0.3780
  0.3849   0.3880   0.3884   0.3938   0.3955   0.4061   0.4089   0.4144
  0.4160   0.4334   0.4347   0.4412   0.4469   0.4533   0.4561   0.4572
  0.4679   0.4746   0.4792   0.4869   0.4990   0.5015   0.5176   0.5222
  0.5241   0.5304   0.5397   0.5428   0.5469   0.5519   0.5552   0.5709
  0.5893   0.5936   0.6016   0.6041   0.6060   0.6260   0.6464   0.6490
  0.6658   0.6781   0.6874   0.6916   0.6926   0.7013   0.7272   0.7278
  0.7343   0.7359   0.7486   0.7628   0.7683   0.7708   0.7825   0.7914
  0.7957   0.8000   0.8034   0.8075   0.8125   0.8270   0.8300   0.8389
  0.8413   0.8414   0.8481   0.8564   0.8639   0.8799   0.8941   0.9006
  0.9140   0.9209   0.9374   0.9514   0.9556   1.0179   1.0274   1.0464
  1.0497   1.0650   1.0767   1.0847   1.0930   1.0972   1.1076   1.1467
  1.1699   1.1850   1.2553   1.2799   1.3002   1.3247   1.3522   1.3567
  1.3842   1.4408   1.4565   1.4654   1.4697   1.4915   1.5318   1.5457
  1.6047   1.6076   1.6258   1.6291   1.6703   1.6831   1.7447   1.7857
  1.7998   1.8050   1.8099   1.8229   1.8346   1.8734   1.8923   1.9171
  1.9246   1.9339   1.9578   1.9664   1.9892   2.0008   2.0178   2.0296
  2.0363   2.0526   2.0759   2.0998   2.1204   2.1282   2.1772   2.1815
  2.2015   2.2405   2.2477   2.2742   2.2923   2.3171   2.4009   2.4061
  2.4119   2.4150   2.4903   2.5139   2.5427   2.5594   2.5708   2.6144
  2.6246   2.6315   2.6739   2.6796   2.7032   2.7174   2.7643   2.7766
  2.7947   2.8195   2.8282   2.8548   2.8698   2.9072   2.9144   2.9210
  2.9445   2.9483   2.9677   2.9822   2.9974   3.0201   3.0243   3.0577
  3.0675   3.0951   3.1072   3.1384   3.1874   3.1937   3.2084   3.2290
  3.2351   3.2452   3.2948   3.3124   3.3369   3.3610   3.3717   3.3845
  3.4057   3.4512   3.4529   3.4569   3.4675   3.4809   3.4973   3.5075
  3.5148   3.5334   3.5458   3.5490   3.5696   3.5796   3.5951   3.6120
  3.6238   3.6425   3.6611   3.6971   3.7156   3.7603   3.7886   3.8217
  3.8460   3.8975   3.9163   3.9670   3.9696   4.0018   4.0434   4.0621
  4.1233   4.2059   4.2757   4.2879   4.3042   4.3257   4.3331   4.3375
  4.3602   4.3807   4.3980   4.4099   4.4452   4.4559   4.4870   4.5385
  4.6059   4.6424   4.7667   4.7711   4.8406   4.9000   4.9094   4.9528
  5.0345   5.0566   5.1750   5.2738   5.3838   5.3954   5.5119   5.5380
  5.6831   5.8568  22.5800  22.6800  22.9007  22.9120  23.0296  23.0921
 23.4396
 --------------------------------------------------------------
 
          Ground-State Mulliken Net Atomic Charges

     Atom                 Charge (a.u.)
  ----------------------------------------
      1 C                    -1.091098
      2 C                    -0.414183
      3 C                     0.826004
      4 C                    -0.566288
      5 C                    -0.407421
      6 C                    -0.554663
      7 C                    -0.547203
      8 H                     0.384194
      9 H                     0.370665
     10 H                     0.290331
     11 H                     0.299537
     12 H                     0.395800
     13 H                     0.397723
     14 H                     0.373749
     15 H                     0.242853
  ----------------------------------------
  Sum of atomic charges =     0.000000

 -----------------------------------------------------------------
                    Cartesian Multipole Moments
 -----------------------------------------------------------------
    Charge (ESU x 10^10)
                 0.0000
    Dipole Moment (Debye)
         X      -0.5267      Y       0.0928      Z      -0.0478
       Tot       0.5370
    Quadrupole Moments (Debye-Ang)
        XX     -37.4603     XY      -1.7820     YY     -45.9206
        XZ      -1.3982     YZ       1.3057     ZZ     -37.9499
    Octopole Moments (Debye-Ang^2)
       XXX      28.8082    XXY     -29.9876    XYY       3.2292
       YYY    -103.8922    XXZ    -108.4313    XYZ      -4.6582
       YYZ    -132.4350    XZZ       5.4229    YZZ     -22.9794
       ZZZ    -329.1084
    Hexadecapole Moments (Debye-Ang^3)
      XXXX    -598.5249   XXXY      56.0950   XXYY    -141.8785
      XYYY      49.6269   YYYY    -234.3314   XXXZ      67.6764
      XXYZ     -89.7309   XYYZ       4.7126   YYYZ    -317.4637
      XXZZ    -455.8864   XYZZ       7.5909   YYZZ    -475.4454
      XZZZ      55.6071   YZZZ    -237.4667   ZZZZ   -2184.7323
 -----------------------------------------------------------------
Archival summary:
1\1\nid00507\SP\ProcedureUnspecified\BasisUnspecified\78\meili\SunSep2615:38:172021SunSep2615:38:172021\0\\#,ProcedureUnspecified,BasisUnspecified,\\0,1\C\C,1,1.39043\H,2,1.08112,1,119.89\C,2,1.38897,1,120.34,3,179.702,0\H,4,1.08068,2,119.843,1,-179.315,0\C,4,1.39044,2,120.102,1,0.385238,0\H,6,1.08133,4,120.194,2,179.449,0\C,6,1.38814,4,119.815,2,-0.234336,0\H,8,1.0821,6,120.104,4,179.76,0\C,8,1.38864,6,119.92,4,0.209901,0\H,10,1.0807,8,119.32,6,179.883,0\C,1,1.50416,2,120.374,3,0.743232,0\H,12,1.08512,1,108.416,2,-153.434,0\H,12,1.09056,1,108.993,2,-36.8258,0\H,12,1.1,1,113.502,2,85.1868,0\\\@

 Total job time:  26227.37s(wall), 51887.13s(cpu) 
 Sun Sep 26 15:38:19 2021

        *************************************************************
        *                                                           *
        *  Thank you very much for using Q-Chem.  Have a nice day.  *
        *                                                           *
        *************************************************************


Done Job For Fragment 0
calling putenv with: QCSCRATCH=/global/cscratch1/sd/meili 
calling putenv with: QCLOCALSCR=/tmp 
calling putenv with: QCTHREADS=32 
Creating input file /tmp/qchem33732/Frg2.input
using default PutDataFrgm: nothing
calling putenv with: QCSCRATCH=/tmp/qchem33732/ 
calling putenv with: QCLOCALSCR=/tmp/qchem33732/ 
Spawning Job For Fragment 1
                  Welcome to Q-Chem
     A Quantum Leap Into The Future Of Chemistry


 Q-Chem 5.2, Q-Chem, Inc., Pleasanton, CA (2019)

 License issued to: National Energy Research Scientific Computing Center

 Yihan Shao,  Zhengting Gan,  E. Epifanovsky,  A. T. B. Gilbert,  M. Wormit,  
 J. Kussmann,  A. W. Lange,  A. Behn,  Jia Deng,  Xintian Feng,  D. Ghosh,  
 M. Goldey,  P. R. Horn,  L. D. Jacobson,  I. Kaliman,  T. Kus,  A. Landau,  
 Jie Liu,  E. I. Proynov,  R. M. Richard,  R. P. Steele,  E. J. Sundstrom,  
 H. L. Woodcock III,  P. M. Zimmerman,  D. Zuev,  B. Albrecht,  E. Alguire,  
 S. A. Baeppler,  D. Barton,  Z. Benda,  Y. A. Bernard,  E. J. Berquist,  
 K. B. Bravaya,  H. Burton,  D. Casanova,  Chun-Min Chang,  Yunqing Chen,  
 A. Chien,  K. D. Closser,  M. P. Coons,  S. Coriani,  S. Dasgupta,  
 A. L. Dempwolff,  M. Diedenhofen,  Hainam Do,  R. G. Edgar,  Po-Tung Fang,  
 S. Faraji,  S. Fatehi,  Qingguo Feng,  K. D. Fenk,  J. Fosso-Tande,  
 J. Gayvert,  Qinghui Ge,  A. Ghysels,  G. Gidofalvi,  J. Gomes,  
 J. Gonthier,  A. Gunina,  D. Hait,  M. W. D. Hanson-Heine,  
 P. H. P. Harbach,  A. W. Hauser,  M. F. Herbst,  J. E. Herr,  
 E. G. Hohenstein,  Z. C. Holden,  Kerwin Hui,  B. C. Huynh,  T.-C. Jagau,  
 Hyunjun Ji,  B. Kaduk,  K. Khistyaev,  Jaehoon Kim,  P. Klunzinger,  K. Koh,  
 D. Kosenkov,  L. Koulias,  T. Kowalczyk,  C. M. Krauter,  A. Kunitsa,  
 Ka Un Lao,  A. Laurent,  K. V. Lawler,  Joonho Lee,  D. Lefrancois,  
 S. Lehtola,  D. S. Levine,  Yi-Pei Li,  You-Sheng Lin,  Fenglai Liu,  
 E. Livshits,  A. Luenser,  P. Manohar,  E. Mansoor,  S. F. Manzer,  
 Shan-Ping Mao,  Yuezhi Mao,  N. Mardirossian,  A. V. Marenich,  
 T. Markovich,  L. A. Martinez-Martinez,  S. A. Maurer,  N. J. Mayhall,  
 S. C. McKenzie,  J.-M. Mewes,  P. Morgante,  A. F. Morrison,  
 J. W. Mullinax,  K. Nanda,  T. S. Nguyen-Beck,  R. Olivares-Amaya,  
 J. A. Parkhill,  Zheng Pei,  T. M. Perrine,  F. Plasser,  P. Pokhilko,  
 S. Prager,  A. Prociuk,  E. Ramos,  D. R. Rehn,  F. Rob,  M. Scheurer,  
 M. Schneider,  N. Sergueev,  S. M. Sharada,  S. Sharma,  D. W. Small,  
 T. Stauch,  T. Stein,  Yu-Chuan Su,  A. J. W. Thom,  A. Tkatchenko,  
 T. Tsuchimochi,  N. M. Tubman,  L. Vogt,  M. L. Vidal,  O. Vydrov,  
 M. A. Watson,  J. Wenzel,  M. de Wergifosse,  T. A. Wesolowski,  A. White,  
 J. Witte,  A. Yamada,  Jun Yang,  K. Yao,  S. Yeganeh,  S. R. Yost,  
 Zhi-Qiang You,  A. Zech,  Igor Ying Zhang,  Xing Zhang,  Yan Zhao,  
 Ying Zhu,  B. R. Brooks,  G. K. L. Chan,  C. J. Cramer,  M. S. Gordon,  
 W. J. Hehre,  A. Klamt,  M. W. Schmidt,  C. D. Sherrill,  D. G. Truhlar,  
 A. Aspuru-Guzik,  R. Baer,  A. T. Bell,  N. A. Besley,  Jeng-Da Chai,  
 A. E. DePrince, III,  R. A. DiStasio Jr.,  A. Dreuw,  B. D. Dunietz,  
 T. R. Furlani,  Chao-Ping Hsu,  Yousung Jung,  Jing Kong,  D. S. Lambrecht,  
 WanZhen Liang,  C. Ochsenfeld,  V. A. Rassolov,  L. V. Slipchenko,  
 J. E. Subotnik,  T. Van Voorhis,  J. M. Herbert,  A. I. Krylov,  
 P. M. W. Gill,  M. Head-Gordon

 Contributors to earlier versions of Q-Chem not listed above: 
 R. D. Adamson,  B. Austin,  J. Baker,  G. J. O. Beran,  K. Brandhorst,  
 S. T. Brown,  E. F. C. Byrd,  A. K. Chakraborty,  C.-L. Cheng,  
 Siu Hung Chien,  D. M. Chipman,  D. L. Crittenden,  H. Dachsel,  
 R. J. Doerksen,  A. D. Dutoi,  L. Fusti-Molnar,  W. A. Goddard III,  
 A. Golubeva-Zadorozhnaya,  S. R. Gwaltney,  G. Hawkins,  A. Heyden,  
 S. Hirata,  G. Kedziora,  F. J. Keil,  C. Kelley,  Jihan Kim,  R. A. King,  
 R. Z. Khaliullin,  P. P. Korambath,  W. Kurlancheek,  A. M. Lee,  M. S. Lee,  
 S. V. Levchenko,  Ching Yeh Lin,  D. Liotard,  R. C. Lochan,  I. Lotan,  
 P. E. Maslen,  N. Nair,  D. P. O'Neill,  D. Neuhauser,  E. Neuscamman,  
 C. M. Oana,  R. Olson,  B. Peters,  R. Peverati,  P. A. Pieniazek,  
 Y. M. Rhee,  J. Ritchie,  M. A. Rohrdanz,  E. Rosta,  N. J. Russ,  
 H. F. Schaefer III,  N. E. Schultz,  N. Shenvi,  A. C. Simmonett,  A. Sodt,  
 D. Stuck,  K. S. Thanthiriwatte,  V. Vanovschi,  Tao Wang,  A. Warshel,  
 C. F. Williams,  Q. Wu,  X. Xu,  W. Zhang

 Please cite Q-Chem as follows:
 Y. Shao et al., Mol. Phys. 113, 184-215 (2015)
 DOI: 10.1080/00268976.2014.952696

 Q-Chem 5.2.0 for Intel X86 EM64T Linux

 Parts of Q-Chem use Armadillo 8.300.2 (Tropical Shenanigans).
 http://arma.sourceforge.net/

 Q-Chem begins on Sun Sep 26 15:38:26 2021  

Host: cori01
0

     Scratch files written to /tmp/qchem33732//Frg2//
 May1019 |scratch|qcdevops|jenkins|workspace|build_RNUM -1
Processing $rem in /global/common/cori/software/qchem/5.2/config/preferences:
	 MEM_TOTAL  96000 
NAlpha2: 58
NElect   58
Mult     1
Symmetry turned off for PCM/SM12/SMD calculation

Checking the input file for inconsistencies... 	...done.

--------------------------------------------------------------
User input:
--------------------------------------------------------------
$molecule
0 1
 6	0.5305701555	-3.5476752538	-2.2320819802
 6	-1.0334298445	-0.0886752538	-2.0240819802
 6	-0.0364298445	0.6983247462	-2.5900819802
 6	-0.8474298445	-1.4626752538	-1.9100819802
 6	0.3315701555	-2.0586752538	-2.3510819802
 6	1.1425701555	0.1143247462	-3.0380819802
 6	1.3205701555	-1.2596752538	-2.9190819802
 8	-0.2174298445	2.0433247462	-2.7040819802
 1	-1.9444298445	0.3743247462	-1.6740819802
 1	-1.6274298445	-2.0726752538	-1.4730819802
 1	1.9215701555	0.7183247462	-3.4750819802
 1	0.5485701555	2.5033247462	-3.0600819802
 1	-0.1814298445	-3.9596752538	-1.5190819802
 1	1.5255701555	-3.7196752538	-1.8380819802
 1	2.2395701555	-1.7096752538	-3.2720819802
 1	0.4079661555	-4.0719852538	-3.1912819802
$end
$rem
EDA2		1
METHOD		WB97X-V
BASIS		DEF2-TZVPD
XC_GRID		000099000590
NL_GRID		1
UNRESTRICTED		FALSE
MAX_SCF_CYCLES		200
SYMMETRY		FALSE
SYM_IGNORE		TRUE
BASIS_LIN_DEP_THRESH		6
THRESH		14
SCF_CONVERGENCE		8
SCF_PRINT_FRGM		TRUE
SOLVENT_METHOD		SMD
!required keywords
JOBTYPE		SP
SYM_IGNORE		TRUE
SUBSYSTEM		TRUE
GEN_SCFMAN		TRUE
CHILD_INSTRUCTION		2
SYM_IGNORE		TRUE
SCFMI		0
RI_K 0		
PARI_K 0		
MIN_PARI_K 0		
IARI_K 0		
OCC_RI_K 0		
PURECART		1111
MEM_STATIC		2000
MEM_TOTAL		96000
GUI		0
CHILD_MP		1
CHILD_MP_ORDERS		232
FRZ_RELAX		0
FRZ_RELAX_METHOD		0
EDA_CLS_ELEC		1
EDA_CLS_DISP		0
FRZ_ORTHO_DECOMP		1
EDA2		FALSE
FRGM_METHOD		FALSE
CIS_N_ROOTS  0
LOCAL_CIS    0
CIS_RLX_DNS  1
$end
$smx
SOLVENT			WATER
$end
--------------------------------------------------------------
 ----------------------------------------------------------------
             Standard Nuclear Orientation (Angstroms)
    I     Atom           X                Y                Z
 ----------------------------------------------------------------
    1      C       0.5305701555    -3.5476752538    -2.2320819802
    2      C      -1.0334298445    -0.0886752538    -2.0240819802
    3      C      -0.0364298445     0.6983247462    -2.5900819802
    4      C      -0.8474298445    -1.4626752538    -1.9100819802
    5      C       0.3315701555    -2.0586752538    -2.3510819802
    6      C       1.1425701555     0.1143247462    -3.0380819802
    7      C       1.3205701555    -1.2596752538    -2.9190819802
    8      O      -0.2174298445     2.0433247462    -2.7040819802
    9      H      -1.9444298445     0.3743247462    -1.6740819802
   10      H      -1.6274298445    -2.0726752538    -1.4730819802
   11      H       1.9215701555     0.7183247462    -3.4750819802
   12      H       0.5485701555     2.5033247462    -3.0600819802
   13      H      -0.1814298445    -3.9596752538    -1.5190819802
   14      H       1.5255701555    -3.7196752538    -1.8380819802
   15      H       2.2395701555    -1.7096752538    -3.2720819802
   16      H       0.4079661555    -4.0719852538    -3.1912819802
 ----------------------------------------------------------------
 Nuclear Repulsion Energy =         343.47876658 hartrees
 There are       29 alpha and       29 beta electrons
 Requested basis set is def2-TZVPD
 There are 145 shells and 371 basis functions

 Total QAlloc Memory Limit  96000 MB
 Mega-Array Size      1956 MB
 MEM_STATIC part      2000 MB
 
 Citation of the SMD model:
 Marenich, A.V.; Cramer, C.J.; Truhlar, D.G.
 J. Phys. Chem. B 2009, 113, 6378-6396.
 iSolventCode=           1
 Solvent: water                                                           
 
 vradii
            1           2           3           4           5           6
    1   1.8500000   1.8500000   1.8500000   1.8500000   1.8500000   1.8500000
            7           8           9          10          11          12
    1   1.8500000   1.5200000   1.2000000   1.2000000   1.2000000   1.2000000
           13          14          15          16
    1   1.2000000   1.2000000   1.2000000   1.2000000
 Changing PCM_VDW_RADII to SMD_RADIUS
 Discretize the solute cavity surface with Lebedev spheres
	Using 110 Lebedev grid points for each H atom
	Using 194 Lebedev grid points for other atoms
	Atomic van der Waals radii will be scaled by 1.20
 Remove points where switching function is < 1.0e-08
 Keep 1168 surface tesserae and discard 1264 interior tesserae
 Molecular Surface Area = 141.348 Angst**2
 A cutoff of  1.0D-14 yielded  10046 shell pairs
 There are     67106 function pairs (     85808 Cartesian)
 Smallest overlap matrix eigenvalue = 5.39E-07
 Linear dependence detected in AO basis
 Tighter screening thresholds may be required for diffuse basis sets
 Use S2THRESH > 14 and THRESH = 14 in case of SCF convergence issues
 Number of orthogonalized atomic orbitals = 370
 Maximum deviation from orthogonality = 1.793E-10

 Scale SEOQF with 1.000000e-01/1.000000e-01/1.000000e-01

 Standard Electronic Orientation quadrupole field applied
 Nucleus-field energy     =    -0.0000000219 hartrees
 Guess from superposition of atomic densities
 Warning:  Energy on first SCF cycle will be non-variational
 SAD guess density has 57.738434 electrons

 -----------------------------------------------------------------------
  General SCF calculation program by
  Eric Jon Sundstrom, Paul Horn, Yuezhi Mao, Dmitri Zuev, Alec White,
  David Stuck, Shaama M.S., Shane Yost, Joonho Lee, David Small,
  Daniel Levine, Susi Lehtola, Hugh Burton, Evgeny Epifanovsky
 -----------------------------------------------------------------------
 Exchange:     0.1670 Hartree-Fock + 1.0000 wB97X-V + LR-HF
 Correlation:  1.0000 wB97X-V
 Using Euler-Maclaurin-Lebedev (99,590) quadrature formula
 Nonlocal Correlation:  VV10 with C = 0.0100 and b = 6.00 and scale = 1.00000
 Grid used for NLC:  SG-1 standard quadrature
Energy prior to optimization (guess energy) = -346.497165178067
Begin Timing: Total SCF Calculation
begin iterations for algorithm: DIIS         
the SCF tolerance is set to 1.00e-08
    1    -346.4971651781      5.17e-03     00000 
    2    -346.4416986186      5.56e-03     00000 
    3    -346.8207244860      5.31e-04     00000 
    4    -346.8255688679      1.74e-04     00000 
    5    -346.8262576326      3.65e-05     00000 
    6    -346.8263067087      1.24e-05     00000 
    7    -346.8263111149      4.58e-06     00000 
    8    -346.8263117493      1.37e-06     00000 
    9    -346.8263118276      4.30e-07     00000 
   10    -346.8263118377      2.38e-07     00000 
   11    -346.8263118406      6.70e-08     00000 
   12    -346.8263118412      3.16e-08     00000 
   13    -346.8263118413      1.34e-08     00000 
   14    -346.8263118413      3.35e-09     00000 Convergence criterion met
Timing for Total SCF: 2086.00s (wall), 4121.47s (cpu)
(3)  G-ENP(liq) elect-nuc-pol free energy of system     -346.826311841 a.u.
(4)  G-CDS(liq) cavity-dispersion-solvent structure 
     free energy                                                3.7920 kcal/mol
(6)  G-S(liq) free energy of system                     -346.820268904 a.u.
E_pcm = -0.0173175416
E_cds = 0.0060429377
Multipole orders to be included
        2
        3
computing dipole RHS
computing quadrupole RHS
total number of RHS in solve_reponses: 8
RHS batch sizes
        8
Beginning Block Conjugate Gradient Iterations. Batch Number: 0
computing hessian-vector products by finite difference
              1      6.56e-01     00000 Conjugate Gradient Iteration
computing hessian-vector products by finite difference
              2      1.94e-01     00000 Conjugate Gradient Iteration
computing hessian-vector products by finite difference
              3      5.06e-02     00000 Conjugate Gradient Iteration
computing hessian-vector products by finite difference
              4      1.62e-02     00000 Conjugate Gradient Iteration
computing hessian-vector products by finite difference
              5      4.71e-03     00000 Conjugate Gradient Iteration
computing hessian-vector products by finite difference
              6      1.86e-03     00000 Conjugate Gradient Iteration
computing hessian-vector products by finite difference
              7      4.05e-04     00000 Conjugate Gradient Iteration
computing hessian-vector products by finite difference
              8      8.04e-05     00000 Conjugate Gradient Iteration
computing hessian-vector products by finite difference
              9      1.54e-05     00000 Conjugate Gradient Iteration
computing hessian-vector products by finite difference
             10      2.23e-06     00000 Conjugate Gradient Iteration
computing hessian-vector products by finite difference
             11      3.11e-07     00000 Conjugate Gradient Iteration
computing hessian-vector products by finite difference
             12      6.46e-08     00000 Conjugate Gradient Iteration
computing hessian-vector products by finite difference
             13      1.31e-08     00000 Conjugate Gradient Iteration
computing hessian-vector products by finite difference
             14      2.88e-09     00000 CG Converged
batch 0 complete
Done Calculating Responses
TESTING ORTHOGONALIZATION OF MULTIPOLE BASIS
Multipole virts passed orthogonality test
Virts Per Order
           87
          145
 
 --------------------------------------------------------------
 
                    Orbital Energies (a.u.)
 --------------------------------------------------------------
 
 Alpha MOs
 -- Occupied --
-19.2387 -10.3303 -10.2699 -10.2680 -10.2673 -10.2654 -10.2648 -10.2514
 -1.1893  -0.9916  -0.8964  -0.8792  -0.8045  -0.7422  -0.7093  -0.6610
 -0.5971  -0.5734  -0.5438  -0.5374  -0.5273  -0.5171  -0.5044  -0.4698
 -0.4490  -0.4400  -0.4339  -0.3495  -0.3094
 -- Virtual --
  0.0635   0.0642   0.0744   0.0830   0.0889   0.0996   0.1140   0.1158
  0.1186   0.1368   0.1509   0.1567   0.1605   0.1785   0.1820   0.1977
  0.2068   0.2110   0.2217   0.2302   0.2414   0.2464   0.2550   0.2601
  0.2683   0.2746   0.2792   0.2801   0.2884   0.3007   0.3011   0.3074
  0.3098   0.3130   0.3185   0.3295   0.3379   0.3469   0.3496   0.3563
  0.3604   0.3622   0.3687   0.3788   0.3797   0.3844   0.3874   0.3984
  0.3999   0.4025   0.4039   0.4109   0.4196   0.4245   0.4315   0.4385
  0.4415   0.4601   0.4609   0.4665   0.4777   0.4795   0.4832   0.4889
  0.4936   0.4963   0.5030   0.5083   0.5171   0.5200   0.5345   0.5436
  0.5471   0.5508   0.5527   0.5574   0.5661   0.5767   0.5834   0.5978
  0.6081   0.6098   0.6205   0.6354   0.6425   0.6630   0.6653   0.6766
  0.6848   0.6872   0.6944   0.6973   0.7055   0.7076   0.7225   0.7336
  0.7381   0.7432   0.7508   0.7558   0.7626   0.7762   0.7872   0.7891
  0.7937   0.7976   0.8020   0.8043   0.8117   0.8207   0.8334   0.8415
  0.8499   0.8545   0.8581   0.8620   0.8671   0.8810   0.8894   0.8945
  0.9082   0.9178   0.9372   0.9528   0.9659   0.9903   0.9976   1.0160
  1.0253   1.0447   1.0464   1.0527   1.0614   1.0765   1.0796   1.0927
  1.1040   1.1239   1.1410   1.1762   1.2020   1.2414   1.2808   1.3009
  1.3106   1.3187   1.3360   1.3596   1.3732   1.3870   1.4015   1.4427
  1.4643   1.4728   1.4748   1.4908   1.5385   1.5716   1.6107   1.6299
  1.6378   1.6503   1.6826   1.6895   1.7105   1.7326   1.7808   1.8074
  1.8225   1.8351   1.8384   1.8644   1.8698   1.8882   1.9248   1.9306
  1.9477   1.9610   1.9811   1.9934   2.0015   2.0320   2.0496   2.0557
  2.0618   2.0829   2.0924   2.1129   2.1224   2.1669   2.2041   2.2074
  2.2284   2.2468   2.2762   2.2911   2.3073   2.3310   2.3510   2.3746
  2.4065   2.4128   2.4416   2.4719   2.4930   2.5031   2.5360   2.5612
  2.5845   2.6153   2.6280   2.6492   2.6586   2.6740   2.6910   2.7529
  2.7688   2.7706   2.7840   2.8116   2.8279   2.8407   2.8724   2.8776
  2.9180   2.9266   2.9419   2.9541   2.9750   2.9807   2.9873   3.0188
  3.0231   3.0500   3.0770   3.0843   3.1067   3.1371   3.1580   3.1798
  3.1906   3.2059   3.2195   3.2312   3.2471   3.2693   3.2908   3.2982
  3.3231   3.3656   3.3925   3.3948   3.4038   3.4186   3.4537   3.4615
  3.4693   3.4812   3.4979   3.5169   3.5315   3.5339   3.5465   3.5503
  3.5574   3.5735   3.5818   3.5983   3.6074   3.6386   3.6537   3.6784
  3.6995   3.7123   3.7449   3.7626   3.8075   3.8308   3.8589   3.9118
  3.9432   3.9687   3.9886   4.0047   4.0469   4.0931   4.1545   4.1640
  4.2589   4.2768   4.2929   4.3196   4.3310   4.3407   4.3511   4.3673
  4.3847   4.4011   4.4405   4.4763   4.4992   4.5480   4.6019   4.6297
  4.7498   4.7509   4.7979   4.8253   4.8747   4.9275   5.0302   5.0728
  5.0956   5.1361   5.1681   5.3137   5.3453   5.3919   5.4557   5.5497
  5.6242   5.6519   5.7123   5.7688   5.9524   6.2262   6.5052   6.6081
  6.6382   6.8784   7.0059   7.3092   7.4648  22.6761  22.6881  22.9479
 23.0056  23.0471  23.1983  23.5243  44.4264
 --------------------------------------------------------------
 
          Ground-State Mulliken Net Atomic Charges

     Atom                 Charge (a.u.)
  ----------------------------------------
      1 C                    -1.077655
      2 C                    -0.794057
      3 C                     0.683631
      4 C                    -0.473148
      5 C                     0.499923
      6 C                    -0.391051
      7 C                    -0.603429
      8 O                    -0.544644
      9 H                     0.399597
     10 H                     0.375554
     11 H                     0.368521
     12 H                     0.327697
     13 H                     0.302130
     14 H                     0.283392
     15 H                     0.397797
     16 H                     0.245743
  ----------------------------------------
  Sum of atomic charges =     0.000000

 -----------------------------------------------------------------
                    Cartesian Multipole Moments
 -----------------------------------------------------------------
    Charge (ESU x 10^10)
                -0.0000
    Dipole Moment (Debye)
         X       1.8927      Y      -0.3681      Z      -0.6754
       Tot       2.0431
    Quadrupole Moments (Debye-Ang)
        XX     -43.4042     XY       4.2736     YY     -41.9376
        XZ      -9.0195     YZ      -2.0518     ZZ     -46.0317
    Octopole Moments (Debye-Ang^2)
       XXX     -20.9180    XXY      35.5463    XYY       4.7341
       YYY     108.1036    XXZ     106.2636    XYZ     -10.9446
       YYZ      98.8482    XZZ      25.2295    YZZ      51.4132
       ZZZ     352.0784
    Hexadecapole Moments (Debye-Ang^3)
      XXXX    -270.7079   XXXY      59.8601   XXYY    -217.7220
      XYYY      95.3068   YYYY   -1051.5610   XXXZ      78.8996
      XXYZ     -77.4013   XYYZ     -10.8811   YYYZ    -242.6442
      XXZZ    -323.8508   XYZZ      53.5595   YYZZ    -428.9611
      XZZZ      -6.1790   YZZZ    -294.6617   ZZZZ   -1874.6320
 -----------------------------------------------------------------
Archival summary:
1\1\nid00507\SP\ProcedureUnspecified\BasisUnspecified\178\meili\MonSep2701:55:322021MonSep2701:55:322021\0\\#,ProcedureUnspecified,BasisUnspecified,\\0,1\C\O,1,1.3619\H,2,0.961817,1,113.42\C,1,1.38989,2,120.047,3,-3.36122,0\H,4,1.07825,1,120.538,2,0.174449,0\C,4,1.39058,1,119.747,2,-179.975,0\H,6,1.08244,4,119.442,1,179.833,0\C,1,1.39059,2,119.848,3,176.61,0\H,8,1.08018,1,119.602,2,-0.277299,0\C,8,1.39121,1,119.765,2,179.916,0\H,10,1.08234,8,119.561,1,-179.726,0\C,6,1.39253,4,120.726,1,-0.22123,0\C,12,1.50694,6,120.356,4,179.715,0\H,13,1.0839,12,107.862,6,46.2784,0\H,13,1.0886,12,109.835,6,163.269,0\H,13,1.1,12,112.792,6,-75.528,0\\\@

 Total job time:  37034.58s(wall), 73453.12s(cpu) 
 Mon Sep 27 01:55:37 2021

        *************************************************************
        *                                                           *
        *  Thank you very much for using Q-Chem.  Have a nice day.  *
        *                                                           *
        *************************************************************


Done Job For Fragment 1
calling putenv with: QCSCRATCH=/global/cscratch1/sd/meili 
calling putenv with: QCLOCALSCR=/tmp 
calling putenv with: QCTHREADS=32 
Doing General SCFMI
 Exchange:     0.1670 Hartree-Fock + 1.0000 wB97X-V + LR-HF
 Correlation:  1.0000 wB97X-V
 Using Euler-Maclaurin-Lebedev (99,590) quadrature formula
 Nonlocal Correlation:  VV10 with C = 0.0100 and b = 6.00 and scale = 1.00000
 Grid used for NLC:  SG-1 standard quadrature
performing fock build before subrot guess so that all methods have access
Printing subrot_rss_gen Method Specification:
Occupied Subspace Method is 0
Virtual Subspace Method is 0
Energy of the unrelaxed supersystem initial determinant -618.390159130100
performing fock build before subrot guess so that all methods have access
Printing subrot_rss_gen Method Specification:
Occupied Subspace Method is 0
Virtual Subspace Method is 0
Energy of the unrelaxed supersystem initial determinant w/ solvent -618.414224069905
write pseudocanon occs and virts to disk
write pseudocanon orbital energies to disk
Tolerance of ortho_decomp_scf: 1.00e-06
GDM subspace size: 20
Beginning the Orthogonal Decomposition of the Initial Supersystem Wavefunction
    1    -618.3813467289      1.03e-02     ortho_decomp Preconditoned Steepest Descent
    2    -618.3818833386      2.42e-04     ortho_decomp BFGS Step
    3    -618.3818848070      1.72e-05     ortho_decomp BFGS Step
    4    -618.3818848096      6.85e-07     ortho_decomp 00000 Convergence criterion met
 Hartree-Fock
 Hartree-Fock
 Hartree-Fock
Doing General SCFMI
 Exchange:     0.1670 Hartree-Fock + 1.0000 wB97X-V + LR-HF
 Correlation:  1.0000 wB97X-V
 Using Euler-Maclaurin-Lebedev (99,590) quadrature formula
 Nonlocal Correlation:  VV10 with C = 0.0100 and b = 6.00 and scale = 1.00000
 Grid used for NLC:  SG-1 standard quadrature
performing fock build at end of subrot_r(subrot) constructor so that all methods have access
<S^2> of initial wavefunction before polarization iterations 0.0000000000
Beginning iterations for the determination of the polarized wavefunction
Energy prior to optimization (guess energy) = -618.414224069906
Begin Timing: Total SCF Calculation
begin iterations for algorithm: DIIS         
the SCF tolerance is set to 1.00e-08
    1    -618.4142240699      2.30e-05     00000 
    2    -618.4142851870      8.78e-06     00000 
    3    -618.4142916838      5.34e-06     00000 
    4    -618.4142940152      1.27e-06     00000 
    5    -618.4142942447      6.40e-07     00000 
    6    -618.4142942871      1.98e-07     00000 
    7    -618.4142942903      9.42e-08     00000 
    8    -618.4142942908      3.57e-08     00000 
    9    -618.4142942909      1.29e-08     00000 
   10    -618.4142942909      5.58e-09     00000 Convergence criterion met
write pseudocanon occs and virts to disk
write pseudocanon orbital energies to disk
Timing for Total SCF: 9029.00s (wall), 17994.37s (cpu)
<S^2> of polarized wavefunction after polarization iterations 0.0000000000
relaxing scfmi constraint to allow all rotations in the entire AO span
Doing General SCFMI
 Exchange:     0.1670 Hartree-Fock + 1.0000 wB97X-V + LR-HF
 Correlation:  1.0000 wB97X-V
 Using Euler-Maclaurin-Lebedev (99,590) quadrature formula
 Nonlocal Correlation:  VV10 with C = 0.0100 and b = 6.00 and scale = 1.00000
 Grid used for NLC:  SG-1 standard quadrature
performing fock build at end of subrot_r(subrot) constructor so that all methods have access
<S^2> of polarized wavefunction before ct-allowed iterations 0.0000000000
Beginning iterations for the determination of the CT-Allowed wavefunction
Energy prior to optimization (guess energy) = -618.414294290869
Begin Timing: Total SCF Calculation
begin iterations for algorithm: DIIS         
the SCF tolerance is set to 1.00e-08
    1    -618.4142942909      4.40e-05     00000 
    2    -618.4146970832      4.03e-06     00000 
    3    -618.4147085760      7.17e-07     00000 
    4    -618.4147090227      2.93e-07     00000 
    5    -618.4147090501      9.55e-08     00000 
    6    -618.4147090554      2.65e-08     00000 
    7    -618.4147090557      1.03e-08     00000 
    8    -618.4147090558      3.79e-09     00000 Convergence criterion met
write pseudocanon occs and virts to disk
write pseudocanon orbital energies to disk
Timing for Total SCF: 7148.00s (wall), 14245.14s (cpu)
<S^2> of ct_allowed wavefunction after ct-allowed iterations 0.0000000000

================================
        Results of EDA2         
================================
Basic EDA Quantities
--------------------
Fragment Energies (Ha):
1 -271.5808316110
2 -346.8202689036
--------------------
  E_prp (kJ/mol) = 0.0000
  E_sol (kJ/mol) = 0.8878
  E_frz (kJ/mol) = -7.0241
  E_pol (kJ/mol) = -0.1844
  E_vct (kJ/mol) = -1.0890
  E_int (kJ/mol) = -7.4097
--------------------


Initial Wavefunction Decomposition
--------------------
  --------------------
  Orthogonal Fragment Subspace Decomposition:
  --------------------
     E_elec   (ELEC)   (kJ/mol) = -8.5498
     E_pauli  (PAULI)  (kJ/mol) = 11.1989
     E_disp   (DISP)   (kJ/mol) = -9.6733
     --------------------
     Terms summing to E_pauli:
     --------------------
        E_kep_pauli       (kJ/mol) = 14.7004
        E_disp_free_pauli (kJ/mol) = -3.5014
  --------------------
  Classical Frozen Decomposition:
  --------------------
     E_cls_elec  (CLS ELEC)  (kJ/mol) = -3.5052
     E_cls_pauli (CLS PAULI) (kJ/mol) = -3.5189
    [E_mod_pauli (MOD PAULI) (kJ/mol) = 6.1544 (CLS PAULI - DISP from orthogonal decomposition) ]
  --------------------
--------------------

Simplified EDA Summary (kJ/mol)
--------------------
 PREPARATION     0.0000
 SOLVATION       0.8878
 FROZEN          2.6491      (does not include dispersion)
[PAULI           11.1989]     (if this is negligible, then frozen describes electrostatics)
 DISPERSION      -9.6733
 POLARIZATION    -0.1844
 CHARGE TRANSFER -1.0890
 TOTAL           -7.4097     (PRP + SOL + FRZ + DISP + POL + CT)
--------------------
 
 --------------------------------------------------------------
 
                    Orbital Energies (a.u.)
 --------------------------------------------------------------
 
 Alpha MOs
 -- Occupied --
-19.2389 -10.3304 -10.2759 -10.2702 -10.2681 -10.2675 -10.2672 -10.2670
-10.2656 -10.2651 -10.2644 -10.2631 -10.2626 -10.2526 -10.2515  -1.1894
 -0.9944  -0.9917  -0.9020  -0.8966  -0.8795  -0.8751  -0.8071  -0.8046
 -0.7424  -0.7250  -0.7095  -0.7005  -0.6612  -0.6244  -0.5973  -0.5737
 -0.5690  -0.5595  -0.5439  -0.5383  -0.5294  -0.5279  -0.5236  -0.5170
 -0.5076  -0.5046  -0.4800  -0.4703  -0.4699  -0.4491  -0.4406  -0.4353
 -0.4344  -0.4331  -0.3498  -0.3464  -0.3348  -0.3095
 -- Virtual --
  0.0590   0.0621   0.0676   0.0682   0.0739   0.0756   0.0782   0.0832
  0.0941   0.0985   0.1026   0.1092   0.1126   0.1184   0.1236   0.1315
  0.1355   0.1388   0.1481   0.1507   0.1550   0.1644   0.1681   0.1696
  0.1812   0.1913   0.1944   0.1966   0.1981   0.2030   0.2100   0.2151
  0.2188   0.2245   0.2266   0.2334   0.2366   0.2382   0.2457   0.2478
  0.2515   0.2557   0.2597   0.2629   0.2716   0.2735   0.2749   0.2792
  0.2799   0.2831   0.2860   0.2906   0.2932   0.2955   0.3027   0.3041
  0.3072   0.3092   0.3107   0.3171   0.3198   0.3222   0.3249   0.3285
  0.3332   0.3382   0.3397   0.3425   0.3463   0.3485   0.3513   0.3535
  0.3571   0.3586   0.3626   0.3640   0.3722   0.3737   0.3769   0.3784
  0.3801   0.3812   0.3852   0.3900   0.3913   0.3943   0.3978   0.4007
  0.4024   0.4074   0.4114   0.4130   0.4141   0.4185   0.4236   0.4290
  0.4323   0.4328   0.4393   0.4418   0.4442   0.4458   0.4461   0.4496
  0.4505   0.4572   0.4582   0.4612   0.4631   0.4690   0.4714   0.4764
  0.4826   0.4871   0.4900   0.4921   0.4978   0.4992   0.5022   0.5050
  0.5063   0.5074   0.5128   0.5156   0.5191   0.5260   0.5282   0.5323
  0.5337   0.5377   0.5425   0.5442   0.5473   0.5497   0.5543   0.5585
  0.5656   0.5696   0.5723   0.5737   0.5805   0.5850   0.5909   0.5965
  0.5976   0.6049   0.6072   0.6117   0.6146   0.6205   0.6217   0.6281
  0.6316   0.6361   0.6428   0.6475   0.6524   0.6561   0.6594   0.6679
  0.6695   0.6718   0.6831   0.6890   0.6941   0.7005   0.7036   0.7048
  0.7108   0.7135   0.7209   0.7219   0.7273   0.7293   0.7344   0.7378
  0.7462   0.7487   0.7507   0.7528   0.7567   0.7628   0.7648   0.7686
  0.7734   0.7779   0.7798   0.7807   0.7858   0.7887   0.7917   0.7927
  0.7972   0.7986   0.8027   0.8074   0.8109   0.8121   0.8172   0.8202
  0.8251   0.8302   0.8344   0.8363   0.8389   0.8438   0.8477   0.8522
  0.8534   0.8568   0.8603   0.8637   0.8659   0.8734   0.8772   0.8782
  0.8836   0.8898   0.8916   0.8944   0.8980   0.9038   0.9113   0.9145
  0.9175   0.9293   0.9342   0.9358   0.9420   0.9497   0.9574   0.9623
  0.9653   0.9719   0.9788   0.9837   0.9925   1.0026   1.0119   1.0242
  1.0296   1.0356   1.0396   1.0528   1.0569   1.0626   1.0670   1.0802
  1.0838   1.0859   1.0905   1.0978   1.1042   1.1101   1.1104   1.1178
  1.1243   1.1369   1.1428   1.1508   1.1618   1.1665   1.1765   1.1960
  1.2059   1.2127   1.2312   1.2410   1.2511   1.2715   1.2840   1.2984
  1.3067   1.3126   1.3355   1.3409   1.3532   1.3608   1.3773   1.3835
  1.3917   1.3945   1.4006   1.4056   1.4247   1.4468   1.4561   1.4686
  1.4790   1.4800   1.4855   1.4870   1.4989   1.5112   1.5119   1.5180
  1.5514   1.5613   1.5670   1.5809   1.6092   1.6209   1.6293   1.6324
  1.6382   1.6583   1.6625   1.6661   1.6861   1.6912   1.7122   1.7189
  1.7354   1.7562   1.7812   1.7973   1.8079   1.8124   1.8172   1.8244
  1.8344   1.8462   1.8543   1.8610   1.8675   1.8809   1.8981   1.9086
  1.9131   1.9253   1.9270   1.9436   1.9480   1.9510   1.9619   1.9640
  1.9717   1.9844   1.9895   1.9943   2.0013   2.0144   2.0261   2.0323
  2.0399   2.0455   2.0499   2.0570   2.0674   2.0775   2.0859   2.0972
  2.1089   2.1201   2.1246   2.1386   2.1419   2.1546   2.1674   2.1768
  2.1863   2.1938   2.2075   2.2244   2.2273   2.2334   2.2400   2.2543
  2.2700   2.2740   2.2835   2.2989   2.3013   2.3075   2.3198   2.3476
  2.3512   2.3556   2.3808   2.4012   2.4145   2.4186   2.4218   2.4256
  2.4371   2.4461   2.4569   2.4882   2.5029   2.5109   2.5264   2.5340
  2.5467   2.5640   2.5798   2.5847   2.5999   2.6090   2.6264   2.6293
  2.6361   2.6428   2.6495   2.6600   2.6751   2.6878   2.6964   2.7050
  2.7133   2.7307   2.7452   2.7611   2.7700   2.7786   2.7852   2.7890
  2.8028   2.8125   2.8190   2.8232   2.8434   2.8509   2.8558   2.8647
  2.8824   2.8839   2.9085   2.9202   2.9234   2.9318   2.9375   2.9395
  2.9521   2.9571   2.9666   2.9687   2.9827   2.9916   2.9954   3.0055
  3.0113   3.0225   3.0280   3.0409   3.0459   3.0511   3.0678   3.0765
  3.0868   3.0938   3.0949   3.1152   3.1304   3.1406   3.1452   3.1550
  3.1777   3.1946   3.1987   3.2052   3.2153   3.2247   3.2314   3.2359
  3.2435   3.2495   3.2567   3.2738   3.2791   3.2861   3.3019   3.3094
  3.3255   3.3290   3.3465   3.3517   3.3721   3.3814   3.3836   3.3976
  3.4021   3.4095   3.4160   3.4291   3.4382   3.4590   3.4612   3.4666
  3.4694   3.4727   3.4766   3.4816   3.4890   3.5005   3.5078   3.5169
  3.5197   3.5276   3.5387   3.5420   3.5445   3.5554   3.5590   3.5606
  3.5706   3.5720   3.5737   3.5812   3.5876   3.5986   3.6069   3.6159
  3.6207   3.6255   3.6350   3.6391   3.6470   3.6576   3.6736   3.6780
  3.6917   3.7057   3.7094   3.7156   3.7245   3.7305   3.7426   3.7711
  3.8009   3.8096   3.8316   3.8480   3.8556   3.8641   3.9120   3.9171
  3.9261   3.9515   3.9748   3.9775   3.9838   4.0017   4.0099   4.0119
  4.0502   4.0571   4.0705   4.1015   4.1443   4.1636   4.1687   4.2173
  4.2676   4.2856   4.2964   4.3003   4.3088   4.3154   4.3295   4.3350
  4.3397   4.3467   4.3477   4.3568   4.3635   4.3728   4.3768   4.3846
  4.3934   4.4073   4.4166   4.4207   4.4505   4.4539   4.4689   4.4809
  4.5052   4.5067   4.5508   4.5561   4.6185   4.6243   4.6361   4.6481
  4.7529   4.7569   4.7739   4.7803   4.8009   4.8303   4.8463   4.8796
  4.9073   4.9396   4.9480   4.9717   5.0387   5.0416   5.0687   5.0799
  5.1061   5.1442   5.1788   5.1922   5.2833   5.3175   5.3468   5.3875
  5.3984   5.4015   5.4591   5.5168   5.5433   5.5512   5.6265   5.6600
  5.7012   5.7186   5.7539   5.8348   5.9563   6.2281   6.5008   6.6180
  6.6655   6.8867   7.0154   7.3163   7.4755  22.6160  22.6952  22.7020
 22.7535  22.9197  22.9314  22.9983  23.0293  23.0577  23.0730  23.1167
 23.2168  23.4654  23.5292  44.4622
 --------------------------------------------------------------
 
          Ground-State Mulliken Net Atomic Charges

     Atom                 Charge (a.u.)
  ----------------------------------------
      1 C                    -1.102445
      2 C                    -0.276159
      3 C                     0.226854
      4 C                    -0.322262
      5 C                    -0.480923
      6 C                    -0.582454
      7 C                    -0.434819
      8 H                     0.426857
      9 H                     0.447646
     10 H                     0.301255
     11 H                     0.292055
     12 H                     0.429218
     13 H                     0.414694
     14 H                     0.385001
     15 H                     0.245032
     16 C                    -1.187938
     17 C                    -0.654414
     18 C                     0.668087
     19 C                    -0.482054
     20 C                     0.501645
     21 C                    -0.432345
     22 C                    -0.534020
     23 O                    -0.558911
     24 H                     0.341018
     25 H                     0.376175
     26 H                     0.376298
     27 H                     0.332097
     28 H                     0.311635
     29 H                     0.287423
     30 H                     0.428148
     31 H                     0.257606
  ----------------------------------------
  Sum of atomic charges =     0.000000

 -----------------------------------------------------------------
                    Cartesian Multipole Moments
 -----------------------------------------------------------------
    Charge (ESU x 10^10)
                -0.0000
    Dipole Moment (Debye)
         X       1.3512      Y      -0.2771      Z      -0.7417
       Tot       1.5661
    Quadrupole Moments (Debye-Ang)
        XX     -80.8878     XY       2.4853     YY     -87.8607
        XZ     -10.4275     YZ      -0.7255     ZZ     -83.9181
    Octopole Moments (Debye-Ang^2)
       XXX       7.8679    XXY       5.5619    XYY       7.9621
       YYY       4.0639    XXZ      -2.1594    XYZ     -15.5862
       YYZ     -33.6807    XZZ      30.7538    YZZ      28.4304
       ZZZ      22.8696
    Hexadecapole Moments (Debye-Ang^3)
      XXXX    -869.4587   XXXY     115.9042   XXYY    -359.6419
      XYYY     144.8359   YYYY   -1285.6417   XXXZ     146.4270
      XXYZ    -167.1134   XYYZ      -6.2636   YYYZ    -559.7893
      XXZZ    -779.7213   XYZZ      61.1001   YYZZ    -904.1570
      XZZZ      49.0277   YZZZ    -532.0418   ZZZZ   -4059.0464
 -----------------------------------------------------------------
Archival summary:
1\1\nid00507\SP\ProcedureUnspecified\BasisUnspecified\11416\meili\MonSep2710:12:242021MonSep2710:12:242021\0\\#,ProcedureUnspecified,BasisUnspecified,\\0,1\O\H,1,0.961817\C,1,1.3619,2,113.42\C,3,1.38989,1,120.047,2,-3.36122,0\H,4,1.07825,3,120.538,1,0.174449,0\C,4,1.39058,3,119.747,1,-179.975,0\H,6,1.08244,4,119.442,3,179.833,0\C,3,1.39059,1,119.848,2,176.61,0\H,8,1.08018,3,119.602,1,-0.277299,0\C,8,1.39121,3,119.765,1,179.916,0\H,10,1.08234,8,119.561,3,-179.726,0\C,6,1.39253,4,120.726,3,-0.22123,0\C,12,1.50694,6,120.356,4,179.715,0\H,13,1.0839,12,107.862,6,46.2784,0\H,13,1.0886,12,109.835,6,163.269,0\H,13,1.1,12,112.792,6,-75.528,0\H,9,2.67199,8,87.7576,3,-92.1284,0\C,17,1.0807,9,178.406,8,-72.2698,0\C,18,1.38864,17,119.32,9,86.9691,0\H,19,1.0821,18,119.975,17,0.332473,0\C,19,1.38814,18,119.92,17,179.883,0\H,21,1.08133,19,119.99,18,-179.474,0\C,21,1.39044,19,119.815,18,0.209901,0\H,23,1.08068,21,120.054,19,179.465,0\C,23,1.38897,21,120.102,19,-0.234336,0\H,25,1.08112,23,119.769,21,-179.912,0\C,25,1.39043,23,120.34,21,0.385238,0\C,27,1.50416,25,120.374,23,-179.555,0\H,28,1.08512,27,108.416,25,-153.434,0\H,28,1.09056,27,108.993,25,-36.8258,0\H,28,1.1,27,113.502,25,85.1868,0\\\@

 Total job time:  93084.38s(wall), 59440.48s(cpu) 
 Mon Sep 27 10:12:28 2021

        *************************************************************
        *                                                           *
        *  Thank you very much for using Q-Chem.  Have a nice day.  *
        *                                                           *
        *************************************************************


