                  Welcome to Q-Chem
     A Quantum Leap Into The Future Of Chemistry


 Q-Chem 5.2 (devel), Q-Chem, Inc., Pleasanton, CA (2019)

 Yihan Shao,  Zhengting Gan,  E. Epifanovsky,  A. T. B. Gilbert,  M. Wormit,  
 J. Kussmann,  A. W. Lange,  A. Behn,  Jia Deng,  Xintian Feng,  D. Ghosh,  
 M. Goldey,  P. R. Horn,  L. D. Jacobson,  I. Kaliman,  T. Kus,  A. Landau,  
 Jie Liu,  E. I. Proynov,  R. M. Richard,  R. P. Steele,  E. J. Sundstrom,  
 H. L. Woodcock III,  P. M. Zimmerman,  D. Zuev,  B. Albrecht,  E. Alguire,  
 S. A. Baeppler,  D. Barton,  Z. Benda,  Y. A. Bernard,  E. J. Berquist,  
 K. B. Bravaya,  H. Burton,  D. Casanova,  Chun-Min Chang,  Yunqing Chen,  
 A. Chien,  K. D. Closser,  M. P. Coons,  S. Coriani,  S. Dasgupta,  
 A. L. Dempwolff,  M. Diedenhofen,  Hainam Do,  R. G. Edgar,  Po-Tung Fang,  
 S. Faraji,  S. Fatehi,  Qingguo Feng,  K. D. Fenk,  J. Fosso-Tande,  
 J. Gayvert,  Qinghui Ge,  A. Ghysels,  G. Gidofalvi,  J. Gomes,  
 J. Gonthier,  A. Gunina,  D. Hait,  M. W. D. Hanson-Heine,  
 P. H. P. Harbach,  A. W. Hauser,  M. F. Herbst,  J. E. Herr,  
 E. G. Hohenstein,  Z. C. Holden,  Kerwin Hui,  B. C. Huynh,  T.-C. Jagau,  
 Hyunjun Ji,  B. Kaduk,  K. Khistyaev,  Jaehoon Kim,  P. Klunzinger,  K. Koh,  
 D. Kosenkov,  L. Koulias,  T. Kowalczyk,  C. M. Krauter,  A. Kunitsa,  
 Ka Un Lao,  A. Laurent,  K. V. Lawler,  Joonho Lee,  D. Lefrancois,  
 S. Lehtola,  D. S. Levine,  Yi-Pei Li,  You-Sheng Lin,  Fenglai Liu,  
 E. Livshits,  A. Luenser,  P. Manohar,  E. Mansoor,  S. F. Manzer,  
 Shan-Ping Mao,  Yuezhi Mao,  N. Mardirossian,  A. V. Marenich,  
 T. Markovich,  L. A. Martinez-Martinez,  S. A. Maurer,  N. J. Mayhall,  
 S. C. McKenzie,  J.-M. Mewes,  P. Morgante,  A. F. Morrison,  
 J. W. Mullinax,  K. Nanda,  T. S. Nguyen-Beck,  R. Olivares-Amaya,  
 J. A. Parkhill,  Zheng Pei,  T. M. Perrine,  F. Plasser,  P. Pokhilko,  
 S. Prager,  A. Prociuk,  E. Ramos,  D. R. Rehn,  F. Rob,  M. Scheurer,  
 M. Schneider,  N. Sergueev,  S. M. Sharada,  S. Sharma,  D. W. Small,  
 T. Stauch,  T. Stein,  Yu-Chuan Su,  A. J. W. Thom,  A. Tkatchenko,  
 T. Tsuchimochi,  N. M. Tubman,  L. Vogt,  M. L. Vidal,  O. Vydrov,  
 M. A. Watson,  J. Wenzel,  M. de Wergifosse,  T. A. Wesolowski,  A. White,  
 J. Witte,  A. Yamada,  Jun Yang,  K. Yao,  S. Yeganeh,  S. R. Yost,  
 Zhi-Qiang You,  A. Zech,  Igor Ying Zhang,  Xing Zhang,  Yan Zhao,  
 Ying Zhu,  B. R. Brooks,  G. K. L. Chan,  C. J. Cramer,  M. S. Gordon,  
 W. J. Hehre,  A. Klamt,  M. W. Schmidt,  C. D. Sherrill,  D. G. Truhlar,  
 A. Aspuru-Guzik,  R. Baer,  A. T. Bell,  N. A. Besley,  Jeng-Da Chai,  
 A. E. DePrince, III,  R. A. DiStasio Jr.,  A. Dreuw,  B. D. Dunietz,  
 T. R. Furlani,  Chao-Ping Hsu,  Yousung Jung,  Jing Kong,  D. S. Lambrecht,  
 WanZhen Liang,  C. Ochsenfeld,  V. A. Rassolov,  L. V. Slipchenko,  
 J. E. Subotnik,  T. Van Voorhis,  J. M. Herbert,  A. I. Krylov,  
 P. M. W. Gill,  M. Head-Gordon

 Contributors to earlier versions of Q-Chem not listed above: 
 R. D. Adamson,  B. Austin,  J. Baker,  G. J. O. Beran,  K. Brandhorst,  
 S. T. Brown,  E. F. C. Byrd,  A. K. Chakraborty,  C.-L. Cheng,  
 Siu Hung Chien,  D. M. Chipman,  D. L. Crittenden,  H. Dachsel,  
 R. J. Doerksen,  A. D. Dutoi,  L. Fusti-Molnar,  W. A. Goddard III,  
 A. Golubeva-Zadorozhnaya,  S. R. Gwaltney,  G. Hawkins,  A. Heyden,  
 S. Hirata,  G. Kedziora,  F. J. Keil,  C. Kelley,  Jihan Kim,  R. A. King,  
 R. Z. Khaliullin,  P. P. Korambath,  W. Kurlancheek,  A. M. Lee,  M. S. Lee,  
 S. V. Levchenko,  Ching Yeh Lin,  D. Liotard,  R. C. Lochan,  I. Lotan,  
 P. E. Maslen,  N. Nair,  D. P. O'Neill,  D. Neuhauser,  E. Neuscamman,  
 C. M. Oana,  R. Olson,  B. Peters,  R. Peverati,  P. A. Pieniazek,  
 Y. M. Rhee,  J. Ritchie,  M. A. Rohrdanz,  E. Rosta,  N. J. Russ,  
 H. F. Schaefer III,  N. E. Schultz,  N. Shenvi,  A. C. Simmonett,  A. Sodt,  
 D. Stuck,  K. S. Thanthiriwatte,  V. Vanovschi,  Tao Wang,  A. Warshel,  
 C. F. Williams,  Q. Wu,  X. Xu,  W. Zhang

 Please cite Q-Chem as follows:
 Y. Shao et al., Mol. Phys. 113, 184-215 (2015)
 DOI: 10.1080/00268976.2014.952696

 Q-Chem 5.2.1 for Intel X86 EM64T Linux

 Parts of Q-Chem use Armadillo 8.300.2 (Tropical Shenanigans).
 http://arma.sourceforge.net/

 Q-Chem begins on Tue Sep 28 23:32:45 2021  

compute-0-11.local
Host: 0

     Scratch files written to /home/meili/scratch/qchem22705//
NAlpha2: 94
NElect   94
Mult     1
Symmetry turned off for PCM/SM12/SMD calculation

 Q-Chem warning in module libgen/rem_setup.C, line 2813:

 Neither GIA nor STOLL is specified by user. Use STOLL as the default


Checking the input file for inconsistencies... 	...done.

--------------------------------------------------------------
User input:
--------------------------------------------------------------
$comment
SSI-034PHE-062HIE-1.pdb
$end

$molecule
0 1
--
0 1
C    0.453150890957    4.585365171143   -0.163374814411
C    1.442150890957    1.158365171143    1.052625185589
C    2.514150890957    0.853365171143    0.217625185589
C    0.777150890957    2.371365171143    0.932625185589
C    1.191150890957    3.299365171143   -0.012374814411
C    2.932150890957    1.777365171143   -0.728374814411
C    2.263150890957    2.991365171143   -0.845374814411
H    1.126150890957    0.451365171143    1.803625185589
H    3.032150890957   -0.091634828857    0.320625185589
H   -0.042849109043    2.602365171143    1.597625185589
H    3.783150890957    1.558365171143   -1.359374814411
H    1.149150890957    5.418365171143   -0.059374814411
H   -0.272849109043    4.677365171143    0.646625185589
H    2.650150890957    3.721365171143   -1.539374814411
H   -0.093159109043    4.651495171143   -1.115824814411
--
0 1
C   -2.270849109043   -4.899634828857   -0.515374814411
C   -0.998849109043   -1.677634828857    0.605625185589
C   -1.991849109043   -3.446634828857   -0.241374814411
C   -2.657849109043   -2.344634828857   -0.672374814411
N   -0.962849109043   -3.000634828857    0.560625185589
N   -2.019849109043   -1.250634828857   -0.128374814411
H   -0.350849109043   -1.063634828857    1.215625185589
H   -2.395849109043   -0.312634828857   -0.069374814411
H   -3.544849109043   -2.346634828857   -1.294374814411
H   -3.217849109043   -4.951634828857   -1.048374814411
H   -2.379849109043   -5.428634828857    0.428625185589
H   -1.503499109043   -5.398524828857   -1.125524814411
$end

$rem
JOBTYPE			EDA
EDA2			1
method			wB97X-V
BASIS			def2-TZVPD
XC_GRID			000099000590
NL_GRID			1
UNRESTRICTED		FALSE
MAX_SCF_CYCLES		200
SYMMETRY		FALSE
SYM_IGNORE		TRUE
MEM_STATIC		2000
BASIS_LIN_DEP_THRESH 	6
THRESH 			14
SCF_CONVERGENCE 	8
SCF_PRINT_FRGM 		TRUE
SOLVENT_METHOD          PCM
$end

$PCM
THEORY                  CPCM
METHOD                  SWIG
SOLVER                  INVERSION
RADII                   UFF
HPOINTS                 302
HEAVYPOINTS             302
PRINTLEVEL              0
$END

$SOLVENT
DIELECTRIC              78.390000 ! water
$END
--------------------------------------------------------------
 ----------------------------------------------------------------
             Standard Nuclear Orientation (Angstroms)
    I     Atom           X                Y                Z
 ----------------------------------------------------------------
    1      C       0.4531508910     4.5853651711    -0.1633748144
    2      C       1.4421508910     1.1583651711     1.0526251856
    3      C       2.5141508910     0.8533651711     0.2176251856
    4      C       0.7771508910     2.3713651711     0.9326251856
    5      C       1.1911508910     3.2993651711    -0.0123748144
    6      C       2.9321508910     1.7773651711    -0.7283748144
    7      C       2.2631508910     2.9913651711    -0.8453748144
    8      H       1.1261508910     0.4513651711     1.8036251856
    9      H       3.0321508910    -0.0916348289     0.3206251856
   10      H      -0.0428491090     2.6023651711     1.5976251856
   11      H       3.7831508910     1.5583651711    -1.3593748144
   12      H       1.1491508910     5.4183651711    -0.0593748144
   13      H      -0.2728491090     4.6773651711     0.6466251856
   14      H       2.6501508910     3.7213651711    -1.5393748144
   15      H      -0.0931591090     4.6514951711    -1.1158248144
   16      C      -2.2708491090    -4.8996348289    -0.5153748144
   17      C      -0.9988491090    -1.6776348289     0.6056251856
   18      C      -1.9918491090    -3.4466348289    -0.2413748144
   19      C      -2.6578491090    -2.3446348289    -0.6723748144
   20      N      -0.9628491090    -3.0006348289     0.5606251856
   21      N      -2.0198491090    -1.2506348289    -0.1283748144
   22      H      -0.3508491090    -1.0636348289     1.2156251856
   23      H      -2.3958491090    -0.3126348289    -0.0693748144
   24      H      -3.5448491090    -2.3466348289    -1.2943748144
   25      H      -3.2178491090    -4.9516348289    -1.0483748144
   26      H      -2.3798491090    -5.4286348289     0.4286251856
   27      H      -1.5034991090    -5.3985248289    -1.1255248144
 ----------------------------------------------------------------
 Nuclear Repulsion Energy =         681.26728007 hartrees
 There are       47 alpha and       47 beta electrons
 Requested basis set is def2-TZVPD
 There are 239 shells and 607 basis functions

 Total QAlloc Memory Limit   2000 MB
 Mega-Array Size      1956 MB
 MEM_STATIC part      2000 MB
 Discretize the solute cavity surface with Lebedev spheres
	Using 302 Lebedev grid points for each H atom
	Using 302 Lebedev grid points for other atoms
	Atomic van der Waals radii will be scaled by 1.20
 Remove points where switching function is < 1.0e-08
 Keep 3198 surface tesserae and discard 4956 interior tesserae
 Molecular Surface Area = 317.047 Angst**2
 A cutoff of  1.0D-14 yielded  23267 shell pairs
 There are    149891 function pairs (    189181 Cartesian)
 Smallest overlap matrix eigenvalue = 5.14E-07
 Linear dependence detected in AO basis
 Tighter screening thresholds may be required for diffuse basis sets
 Use S2THRESH > 14 and THRESH = 14 in case of SCF convergence issues
 Number of orthogonalized atomic orbitals = 606
 Maximum deviation from orthogonality = 1.404E-10

 Scale SEOQF with 1.000000e-01/1.000000e-02/1.000000e-01

 Standard Electronic Orientation quadrupole field applied
 Nucleus-field energy     =     0.0000000136 hartrees

 -----------------------------------------------------------------------
  General SCF calculation program by
  Eric Jon Sundstrom, Paul Horn, Yuezhi Mao, Dmitri Zuev, Alec White,
  David Stuck, Shaama M.S., Shane Yost, Joonho Lee, David Small,
  Daniel Levine, Susi Lehtola, Hugh Burton, Evgeny Epifanovsky,
  Bang C. Huynh
 -----------------------------------------------------------------------
================================================================
                 ALMO-EDA with the EDA2 driver                  
================================================================
 The second-generation ALMO-EDA (for DFT):                      
 P. R. Horn, Y. Mao and M. Head-Gordon, PCCP, 18, 23067 (2016)  
 Decomposition of the frozen energy:                            
 P. R. Horn, Y. Mao and M. Head-Gordon, JCP, 144, 114107 (2016) 
 FERF model for polarization:                                   
 P. R. Horn and M. Head-Gordon, JCP, 143, 114111 (2015)         
Using eda2 option set 1
Option set summary: Frozen orbital wavefunction, initial wavefunction decomposition, and nDQ polarization.
--------------------------------
Printing EDA Options
--------------------------------
eda_child_super_basis      0
fragmo_guess_mode          0
child_mp                   1
child_mp_orders            232
cls_elec                   1
cls_disp                   0
scfmi_mode                 1
scfmi_occs                 0
scfmi_virts                0
frz_relax                  0
frz_relax_method           0
dc_pen_start               0
dc_pen_conv                0
dc_pen_increment           0
dc_pen_steps               0
dc_pen_thresh_factor       0
dc_pen_pre_newton_thresh   0
frz_ortho_decomp           1
frz_ortho_decomp_conv      6
frgm_method                2
scfmi_freeze_ss            0
separate_rehyb             0
plot_diff_den              0
eda_nocv                   0
eda_vct_relax              1
disp_free_x                0
disp_free_c                0
eda_bsse                   0
eda_pct_a                  0
eda_covp                   0
--------------------------------
Attempting to make child job directory: /home/meili/scratch/qchem22705//Frg1/
Attempting to make child job directory: /home/meili/scratch/qchem22705//Frg2/
Creating input file /home/meili/scratch/qchem22705/Frg1.input
using default PutDataFrgm: nothing
calling putenv with: QCSCRATCH=/home/meili/scratch/qchem22705/ 
Spawning Job For Fragment 0
                  Welcome to Q-Chem
     A Quantum Leap Into The Future Of Chemistry


 Q-Chem 5.2 (devel), Q-Chem, Inc., Pleasanton, CA (2019)

 Yihan Shao,  Zhengting Gan,  E. Epifanovsky,  A. T. B. Gilbert,  M. Wormit,  
 J. Kussmann,  A. W. Lange,  A. Behn,  Jia Deng,  Xintian Feng,  D. Ghosh,  
 M. Goldey,  P. R. Horn,  L. D. Jacobson,  I. Kaliman,  T. Kus,  A. Landau,  
 Jie Liu,  E. I. Proynov,  R. M. Richard,  R. P. Steele,  E. J. Sundstrom,  
 H. L. Woodcock III,  P. M. Zimmerman,  D. Zuev,  B. Albrecht,  E. Alguire,  
 S. A. Baeppler,  D. Barton,  Z. Benda,  Y. A. Bernard,  E. J. Berquist,  
 K. B. Bravaya,  H. Burton,  D. Casanova,  Chun-Min Chang,  Yunqing Chen,  
 A. Chien,  K. D. Closser,  M. P. Coons,  S. Coriani,  S. Dasgupta,  
 A. L. Dempwolff,  M. Diedenhofen,  Hainam Do,  R. G. Edgar,  Po-Tung Fang,  
 S. Faraji,  S. Fatehi,  Qingguo Feng,  K. D. Fenk,  J. Fosso-Tande,  
 J. Gayvert,  Qinghui Ge,  A. Ghysels,  G. Gidofalvi,  J. Gomes,  
 J. Gonthier,  A. Gunina,  D. Hait,  M. W. D. Hanson-Heine,  
 P. H. P. Harbach,  A. W. Hauser,  M. F. Herbst,  J. E. Herr,  
 E. G. Hohenstein,  Z. C. Holden,  Kerwin Hui,  B. C. Huynh,  T.-C. Jagau,  
 Hyunjun Ji,  B. Kaduk,  K. Khistyaev,  Jaehoon Kim,  P. Klunzinger,  K. Koh,  
 D. Kosenkov,  L. Koulias,  T. Kowalczyk,  C. M. Krauter,  A. Kunitsa,  
 Ka Un Lao,  A. Laurent,  K. V. Lawler,  Joonho Lee,  D. Lefrancois,  
 S. Lehtola,  D. S. Levine,  Yi-Pei Li,  You-Sheng Lin,  Fenglai Liu,  
 E. Livshits,  A. Luenser,  P. Manohar,  E. Mansoor,  S. F. Manzer,  
 Shan-Ping Mao,  Yuezhi Mao,  N. Mardirossian,  A. V. Marenich,  
 T. Markovich,  L. A. Martinez-Martinez,  S. A. Maurer,  N. J. Mayhall,  
 S. C. McKenzie,  J.-M. Mewes,  P. Morgante,  A. F. Morrison,  
 J. W. Mullinax,  K. Nanda,  T. S. Nguyen-Beck,  R. Olivares-Amaya,  
 J. A. Parkhill,  Zheng Pei,  T. M. Perrine,  F. Plasser,  P. Pokhilko,  
 S. Prager,  A. Prociuk,  E. Ramos,  D. R. Rehn,  F. Rob,  M. Scheurer,  
 M. Schneider,  N. Sergueev,  S. M. Sharada,  S. Sharma,  D. W. Small,  
 T. Stauch,  T. Stein,  Yu-Chuan Su,  A. J. W. Thom,  A. Tkatchenko,  
 T. Tsuchimochi,  N. M. Tubman,  L. Vogt,  M. L. Vidal,  O. Vydrov,  
 M. A. Watson,  J. Wenzel,  M. de Wergifosse,  T. A. Wesolowski,  A. White,  
 J. Witte,  A. Yamada,  Jun Yang,  K. Yao,  S. Yeganeh,  S. R. Yost,  
 Zhi-Qiang You,  A. Zech,  Igor Ying Zhang,  Xing Zhang,  Yan Zhao,  
 Ying Zhu,  B. R. Brooks,  G. K. L. Chan,  C. J. Cramer,  M. S. Gordon,  
 W. J. Hehre,  A. Klamt,  M. W. Schmidt,  C. D. Sherrill,  D. G. Truhlar,  
 A. Aspuru-Guzik,  R. Baer,  A. T. Bell,  N. A. Besley,  Jeng-Da Chai,  
 A. E. DePrince, III,  R. A. DiStasio Jr.,  A. Dreuw,  B. D. Dunietz,  
 T. R. Furlani,  Chao-Ping Hsu,  Yousung Jung,  Jing Kong,  D. S. Lambrecht,  
 WanZhen Liang,  C. Ochsenfeld,  V. A. Rassolov,  L. V. Slipchenko,  
 J. E. Subotnik,  T. Van Voorhis,  J. M. Herbert,  A. I. Krylov,  
 P. M. W. Gill,  M. Head-Gordon

 Contributors to earlier versions of Q-Chem not listed above: 
 R. D. Adamson,  B. Austin,  J. Baker,  G. J. O. Beran,  K. Brandhorst,  
 S. T. Brown,  E. F. C. Byrd,  A. K. Chakraborty,  C.-L. Cheng,  
 Siu Hung Chien,  D. M. Chipman,  D. L. Crittenden,  H. Dachsel,  
 R. J. Doerksen,  A. D. Dutoi,  L. Fusti-Molnar,  W. A. Goddard III,  
 A. Golubeva-Zadorozhnaya,  S. R. Gwaltney,  G. Hawkins,  A. Heyden,  
 S. Hirata,  G. Kedziora,  F. J. Keil,  C. Kelley,  Jihan Kim,  R. A. King,  
 R. Z. Khaliullin,  P. P. Korambath,  W. Kurlancheek,  A. M. Lee,  M. S. Lee,  
 S. V. Levchenko,  Ching Yeh Lin,  D. Liotard,  R. C. Lochan,  I. Lotan,  
 P. E. Maslen,  N. Nair,  D. P. O'Neill,  D. Neuhauser,  E. Neuscamman,  
 C. M. Oana,  R. Olson,  B. Peters,  R. Peverati,  P. A. Pieniazek,  
 Y. M. Rhee,  J. Ritchie,  M. A. Rohrdanz,  E. Rosta,  N. J. Russ,  
 H. F. Schaefer III,  N. E. Schultz,  N. Shenvi,  A. C. Simmonett,  A. Sodt,  
 D. Stuck,  K. S. Thanthiriwatte,  V. Vanovschi,  Tao Wang,  A. Warshel,  
 C. F. Williams,  Q. Wu,  X. Xu,  W. Zhang

 Please cite Q-Chem as follows:
 Y. Shao et al., Mol. Phys. 113, 184-215 (2015)
 DOI: 10.1080/00268976.2014.952696

 Q-Chem 5.2.1 for Intel X86 EM64T Linux

 Parts of Q-Chem use Armadillo 8.300.2 (Tropical Shenanigans).
 http://arma.sourceforge.net/

 Q-Chem begins on Tue Sep 28 23:32:50 2021  

compute-0-11.local
Host: 0

     Scratch files written to /home/meili/scratch/qchem22705//Frg1//
NAlpha2: 50
NElect   50
Mult     1
Symmetry turned off for PCM/SM12/SMD calculation

Checking the input file for inconsistencies... 	...done.

--------------------------------------------------------------
User input:
--------------------------------------------------------------
$molecule
0 1
 6	0.4531508910	4.5853651711	-0.1633748144
 6	1.4421508910	1.1583651711	1.0526251856
 6	2.5141508910	0.8533651711	0.2176251856
 6	0.7771508910	2.3713651711	0.9326251856
 6	1.1911508910	3.2993651711	-0.0123748144
 6	2.9321508910	1.7773651711	-0.7283748144
 6	2.2631508910	2.9913651711	-0.8453748144
 1	1.1261508910	0.4513651711	1.8036251856
 1	3.0321508910	-0.0916348289	0.3206251856
 1	-0.0428491090	2.6023651711	1.5976251856
 1	3.7831508910	1.5583651711	-1.3593748144
 1	1.1491508910	5.4183651711	-0.0593748144
 1	-0.2728491090	4.6773651711	0.6466251856
 1	2.6501508910	3.7213651711	-1.5393748144
 1	-0.0931591090	4.6514951711	-1.1158248144
$end
$rem
EDA2		1
METHOD		WB97X-V
BASIS		DEF2-TZVPD
XC_GRID		000099000590
NL_GRID		1
UNRESTRICTED		FALSE
MAX_SCF_CYCLES		200
SYMMETRY		FALSE
SYM_IGNORE		TRUE
BASIS_LIN_DEP_THRESH		6
THRESH		14
SCF_CONVERGENCE		8
SCF_PRINT_FRGM		TRUE
SOLVENT_METHOD		PCM
!required keywords
JOBTYPE		SP
SYM_IGNORE		TRUE
SUBSYSTEM		TRUE
GEN_SCFMAN		TRUE
CHILD_INSTRUCTION		2
SYM_IGNORE		TRUE
SCFMI		0
RI_K 0		
PARI_K 0		
MIN_PARI_K 0		
IARI_K 0		
OCC_RI_K 0		
PURECART		1111
MEM_STATIC		2000
MEM_TOTAL		2000
GUI		0
CHILD_MP		1
CHILD_MP_ORDERS		232
FRZ_RELAX		0
FRZ_RELAX_METHOD		0
EDA_CLS_ELEC		1
EDA_CLS_DISP		0
FRZ_ORTHO_DECOMP		1
EDA2		FALSE
FRGM_METHOD		FALSE
CIS_N_ROOTS  0
LOCAL_CIS    0
CIS_RLX_DNS  1
$end
$pcm
THEORY                  CPCM
METHOD                  SWIG
SOLVER                  INVERSION
RADII                   UFF
HPOINTS                 302
HEAVYPOINTS             302
PRINTLEVEL              0
$end
$solvent
DIELECTRIC              78.390000 ! water
$end
--------------------------------------------------------------
 ----------------------------------------------------------------
             Standard Nuclear Orientation (Angstroms)
    I     Atom           X                Y                Z
 ----------------------------------------------------------------
    1      C       0.4531508910     4.5853651711    -0.1633748144
    2      C       1.4421508910     1.1583651711     1.0526251856
    3      C       2.5141508910     0.8533651711     0.2176251856
    4      C       0.7771508910     2.3713651711     0.9326251856
    5      C       1.1911508910     3.2993651711    -0.0123748144
    6      C       2.9321508910     1.7773651711    -0.7283748144
    7      C       2.2631508910     2.9913651711    -0.8453748144
    8      H       1.1261508910     0.4513651711     1.8036251856
    9      H       3.0321508910    -0.0916348289     0.3206251856
   10      H      -0.0428491090     2.6023651711     1.5976251856
   11      H       3.7831508910     1.5583651711    -1.3593748144
   12      H       1.1491508910     5.4183651711    -0.0593748144
   13      H      -0.2728491090     4.6773651711     0.6466251856
   14      H       2.6501508910     3.7213651711    -1.5393748144
   15      H      -0.0931591090     4.6514951711    -1.1158248144
 ----------------------------------------------------------------
 Nuclear Repulsion Energy =         270.61309235 hartrees
 There are       25 alpha and       25 beta electrons
 Requested basis set is def2-TZVPD
 There are 131 shells and 331 basis functions

 Total QAlloc Memory Limit   2000 MB
 Mega-Array Size      1956 MB
 MEM_STATIC part      2000 MB
 Discretize the solute cavity surface with Lebedev spheres
	Using 302 Lebedev grid points for each H atom
	Using 302 Lebedev grid points for other atoms
	Atomic van der Waals radii will be scaled by 1.20
 Remove points where switching function is < 1.0e-08
 Keep 1801 surface tesserae and discard 2729 interior tesserae
 Molecular Surface Area = 177.924 Angst**2

                       Distance Matrix (Angstroms)
             C (  1)   C (  2)   C (  3)   C (  4)   C (  5)   C (  6)
   C (  2)  3.768435
   C (  3)  4.280269  1.392636
   C (  4)  2.491583  1.388522  2.415102
   C (  5)  1.490383  2.404393  2.790366  1.387662
   C (  6)  3.788077  2.403169  1.386873  2.784920  2.420789
   C (  7)  2.506404  2.763392  2.400836  2.398725  1.392098  1.391059
   H (  8)  4.627307  1.078752  2.145587  2.137017  3.378341  3.380967
   H (  9)  5.362819  2.150912  1.082570  3.394987  3.872861  2.145591
   H ( 10)  2.698041  2.141818  3.391408  1.080734  2.144916  3.865427
   H ( 11)  4.656398  3.384970  2.143435  3.866558  3.400581  1.081815
   H ( 12)  1.090468  4.412482  4.772754  3.225935  2.119937  4.108957
   H ( 13)  1.091623  3.935660  4.751251  2.549889  2.115765  4.535708
   H ( 14)  2.732523  3.840143  3.366150  3.382516  2.153716  2.125178
   H ( 15)  1.099995  4.388771  4.796034  3.186311  2.166866  4.190852
             C (  7)   H (  8)   H (  9)   H ( 10)   H ( 11)   H ( 12)
   H (  8)  3.842079
   H (  9)  3.384643  2.475273
   H ( 10)  3.381894  2.456786  4.282988
   H ( 11)  2.151298  4.276642  2.471619  4.946924
   H ( 12)  2.783724  5.304940  5.835254  3.477983  4.850521
   H ( 13)  3.391159  4.599448  5.811425  2.294107  5.495756  1.752028
   H ( 14)  1.079030  4.918447  4.259635  4.283127  2.448399  2.706143
   H ( 15)  2.895060  5.258422  5.859030  3.400629  4.965133  1.802085
             H ( 13)   H ( 14)
   H ( 14)  3.773124
   H ( 15)  1.771775  2.927505

 A cutoff of  1.0D-14 yielded   8366 shell pairs
 There are     54534 function pairs (     69497 Cartesian)
 Smallest overlap matrix eigenvalue = 5.60E-07
 Linear dependence detected in AO basis
 Tighter screening thresholds may be required for diffuse basis sets
 Use S2THRESH > 14 and THRESH = 14 in case of SCF convergence issues
 Number of orthogonalized atomic orbitals = 330
 Maximum deviation from orthogonality = 1.449E-10

 Scale SEOQF with 1.000000e-01/1.000000e-02/1.000000e-01

 Standard Electronic Orientation quadrupole field applied
 Nucleus-field energy     =     0.0000000059 hartrees
 Guess from superposition of atomic densities
 Warning:  Energy on first SCF cycle will be non-variational
 SAD guess density has 50.000000 electrons

 -----------------------------------------------------------------------
  General SCF calculation program by
  Eric Jon Sundstrom, Paul Horn, Yuezhi Mao, Dmitri Zuev, Alec White,
  David Stuck, Shaama M.S., Shane Yost, Joonho Lee, David Small,
  Daniel Levine, Susi Lehtola, Hugh Burton, Evgeny Epifanovsky,
  Bang C. Huynh
 -----------------------------------------------------------------------
 Exchange:     0.1670 Hartree-Fock + 1.0000 wB97X-V + LR-HF
 Correlation:  1.0000 wB97X-V
 Using Euler-Maclaurin-Lebedev (99,590) quadrature formula
 Nonlocal Correlation:  VV10 with C = 0.0100 and b = 6.00 and scale = 1.00000
 Grid used for NLC:  SG-1 standard quadrature
Energy prior to optimization (guess energy) = -271.526003908294
Begin Timing: Total SCF Calculation
begin iterations for algorithm: DIIS         
the SCF tolerance is set to 1.00e-08
    1    -271.5260039083      1.85e-03     00000 
    2    -271.5621826352      1.15e-03     00000 
    3    -271.5805792417      1.41e-04     00000 
    4    -271.5809994548      4.31e-05     00000 
    5    -271.5810275532      1.49e-05     00000 
    6    -271.5810314950      3.41e-06     00000 
    7    -271.5810317630      1.34e-06     00000 
    8    -271.5810317944      3.81e-07     00000 
    9    -271.5810317978      7.07e-08     00000 
   10    -271.5810317980      3.81e-08     00000 
   11    -271.5810317980      1.37e-08     00000 
   12    -271.5810317980      4.66e-09     00000 Convergence criterion met
Timing for Total SCF: 524.00s (wall), 3212.33s (cpu)

************** Final PCM Free Energy Summary **************
 G_electrostatic  =      -0.00242804 hartree =      -1.52361825 kcal/mol
 G_cavitation     =       0.00000000 hartree =       0.00000000 kcal/mol
 G_dispersion     =       0.00000000 hartree =       0.00000000 kcal/mol
 G_repulsion      =       0.00000000 hartree =       0.00000000 kcal/mol
 --------------------------------------------------
 Non-electrostatic Free Energy =       0.00000000 hartree =       0.00000000 kcal/mol
 Total                         =      -0.00242804 hartree =      -1.52361825 kcal/mol
 --------------------------------------------------
 SCF Energy (H0 + V/2)                       =    -271.58103180 
 Solute Internal Energy (H0)                 =    -271.57860376 
 Total Free Energy (H0 + V/2 + non-elec)     =    -271.58103180 hartree
                                             = -170419.66959723 kcal/mol
***********************************************************

E_pcm = -0.0024280402
Multipole orders to be included
        2
        3
computing dipole RHS
computing quadrupole RHS
total number of RHS in solve_reponses: 8
RHS batch sizes
        8
Beginning Block Conjugate Gradient Iterations. Batch Number: 0
computing hessian-vector products by finite difference
              1      5.69e-01     00000 Conjugate Gradient Iteration
computing hessian-vector products by finite difference
              2      1.80e-01     00000 Conjugate Gradient Iteration
computing hessian-vector products by finite difference
              3      4.26e-02     00000 Conjugate Gradient Iteration
computing hessian-vector products by finite difference
              4      9.99e-03     00000 Conjugate Gradient Iteration
computing hessian-vector products by finite difference
              5      2.02e-03     00000 Conjugate Gradient Iteration
computing hessian-vector products by finite difference
              6      6.05e-04     00000 Conjugate Gradient Iteration
computing hessian-vector products by finite difference
              7      1.47e-04     00000 Conjugate Gradient Iteration
computing hessian-vector products by finite difference
              8      2.23e-05     00000 Conjugate Gradient Iteration
computing hessian-vector products by finite difference
              9      3.50e-06     00000 Conjugate Gradient Iteration
computing hessian-vector products by finite difference
             10      5.54e-07     00000 Conjugate Gradient Iteration
computing hessian-vector products by finite difference
             11      1.21e-07     00000 Conjugate Gradient Iteration
computing hessian-vector products by finite difference
             12      2.36e-08     00000 Conjugate Gradient Iteration
computing hessian-vector products by finite difference
             13      3.67e-09     00000 CG Converged
batch 0 complete
Done Calculating Responses
TESTING ORTHOGONALIZATION OF MULTIPOLE BASIS
Multipole virts passed orthogonality test
Virts Per Order
           75
          125

 --------------------------------------------------------------

                    Orbital Energies (a.u.)
 --------------------------------------------------------------

 Alpha MOs
 -- Occupied --
-10.2800 -10.2726 -10.2721 -10.2698 -10.2686 -10.2684 -10.2612  -0.9992
 -0.9094  -0.8801  -0.8139  -0.7311  -0.7066  -0.6306  -0.5755  -0.5672
 -0.5391  -0.5308  -0.5151  -0.4855  -0.4745  -0.4434  -0.4398  -0.3500
 -0.3381
 -- Virtual --
  0.0625   0.0634   0.0693   0.0791   0.0844   0.1044   0.1102   0.1131
  0.1354   0.1517   0.1650   0.1725   0.1822   0.1892   0.1939   0.2002
  0.2220   0.2284   0.2323   0.2410   0.2450   0.2564   0.2595   0.2703
  0.2799   0.2834   0.2860   0.2917   0.2938   0.3007   0.3019   0.3122
  0.3221   0.3242   0.3282   0.3395   0.3500   0.3549   0.3703   0.3715
  0.3736   0.3816   0.3875   0.3925   0.3927   0.3963   0.4002   0.4029
  0.4147   0.4271   0.4329   0.4384   0.4414   0.4465   0.4510   0.4588
  0.4685   0.4719   0.4794   0.4886   0.4937   0.4966   0.5094   0.5128
  0.5169   0.5220   0.5282   0.5448   0.5472   0.5509   0.5544   0.5679
  0.5729   0.5750   0.5867   0.5959   0.6003   0.6244   0.6344   0.6425
  0.6646   0.6751   0.6798   0.6821   0.6911   0.7047   0.7173   0.7253
  0.7286   0.7359   0.7442   0.7609   0.7651   0.7670   0.7692   0.7811
  0.7890   0.7954   0.7990   0.8009   0.8104   0.8233   0.8256   0.8289
  0.8341   0.8360   0.8514   0.8574   0.8629   0.8670   0.8804   0.8963
  0.9141   0.9264   0.9402   0.9458   0.9563   1.0036   1.0375   1.0401
  1.0445   1.0576   1.0659   1.0791   1.0891   1.0936   1.1039   1.1470
  1.1647   1.1708   1.2687   1.2739   1.2991   1.3330   1.3567   1.3665
  1.3694   1.4399   1.4509   1.4597   1.4685   1.4774   1.5319   1.5400
  1.6062   1.6121   1.6232   1.6291   1.6566   1.6798   1.7381   1.7636
  1.7784   1.7933   1.7989   1.8125   1.8434   1.8537   1.8746   1.9072
  1.9195   1.9263   1.9372   1.9693   1.9884   1.9947   2.0113   2.0269
  2.0363   2.0403   2.0682   2.0874   2.1046   2.1264   2.1726   2.1964
  2.2009   2.2326   2.2544   2.2788   2.2918   2.3126   2.3817   2.4032
  2.4112   2.4228   2.4578   2.5182   2.5472   2.5574   2.5653   2.5893
  2.6328   2.6533   2.6675   2.6774   2.6970   2.7086   2.7710   2.7776
  2.7830   2.8057   2.8125   2.8482   2.8588   2.9000   2.9150   2.9172
  2.9352   2.9414   2.9770   2.9869   2.9942   3.0133   3.0273   3.0546
  3.0619   3.0862   3.0967   3.1441   3.1567   3.1826   3.2013   3.2218
  3.2337   3.2578   3.2746   3.2897   3.3532   3.3614   3.3708   3.3782
  3.4087   3.4293   3.4377   3.4491   3.4517   3.4796   3.4861   3.4906
  3.5062   3.5341   3.5479   3.5508   3.5586   3.5743   3.5759   3.6102
  3.6342   3.6410   3.6629   3.7017   3.7318   3.7506   3.7606   3.8084
  3.8669   3.9035   3.9365   3.9565   3.9720   3.9917   4.0429   4.0587
  4.1258   4.2092   4.2627   4.2800   4.2942   4.3113   4.3263   4.3546
  4.3636   4.3782   4.3986   4.4059   4.4258   4.4583   4.5114   4.5433
  4.5976   4.6171   4.7757   4.8150   4.8201   4.8579   4.9126   4.9513
  5.0330   5.0547   5.1749   5.2696   5.3810   5.3970   5.5003   5.5389
  5.6705   5.8499  22.5815  22.7052  22.8920  22.9119  23.0254  23.0902
 23.4427
 --------------------------------------------------------------

          Ground-State Mulliken Net Atomic Charges

     Atom                 Charge (a.u.)
  ----------------------------------------
      1 C                    -1.010060
      2 C                    -0.510296
      3 C                    -0.461147
      4 C                    -0.412515
      5 C                     0.898509
      6 C                    -0.470987
      7 C                    -0.314891
      8 H                     0.310731
      9 H                     0.332132
     10 H                     0.275957
     11 H                     0.306316
     12 H                     0.239326
     13 H                     0.266657
     14 H                     0.334864
     15 H                     0.215402
  ----------------------------------------
  Sum of atomic charges =     0.000000

 -----------------------------------------------------------------
                    Cartesian Multipole Moments
 -----------------------------------------------------------------
    Charge (ESU x 10^10)
                 0.0000
    Dipole Moment (Debye)
         X      -0.1581      Y       0.4587      Z       0.0098
       Tot       0.4853
    Quadrupole Moments (Debye-Ang)
        XX     -41.6791     XY      -1.7268     YY     -37.3383
        XZ      -3.2880     YZ      -2.0576     ZZ     -41.9215
    Octopole Moments (Debye-Ang^2)
       XXX    -201.1775    XXY    -110.0835    XYY     -68.3281
       YYY    -290.1951    XXZ     -15.5312    XYZ     -10.6100
       YYZ     -10.0847    XZZ     -69.8508    YZZ    -104.6432
       ZZZ      -7.3999
    Hexadecapole Moments (Debye-Ang^3)
      XXXX    -936.3901   XXXY    -427.9892   XXYY    -509.7079
      XYYY    -392.2053   YYYY   -1966.0423   XXXZ     -13.8042
      XXYZ     -23.1398   XYYZ     -18.7175   YYYZ      -0.5602
      XXZZ    -188.5084   XYZZ    -140.0321   YYZZ    -374.6236
      XZZZ      26.9995   YZZZ      21.5954   ZZZZ    -205.0953
 -----------------------------------------------------------------
Archival summary:
1\1\compute-0-11.local\SP\ProcedureUnspecified\BasisUnspecified\78\meili\WedSep2902:31:502021WedSep2902:31:502021\0\\#,ProcedureUnspecified,BasisUnspecified,\\0,1\C\C,1,1.38766\H,2,1.08073,1,120.163\C,2,1.38852,1,120.012,3,-178.076,0\H,4,1.07875,2,119.499,1,178.751,0\C,1,1.3921,2,119.293,3,178.975,0\H,6,1.07903,1,120.755,2,-175.57,0\C,6,1.39106,1,120.871,2,-0.911974,0\H,8,1.08181,6,120.393,1,-178.132,0\C,8,1.38687,6,119.595,1,0.925589,0\H,10,1.08257,8,120.15,6,-179.615,0\C,1,1.49038,2,119.888,3,-3.53853,0\H,12,1.09047,1,109.477,2,125.115,0\H,12,1.09162,1,109.079,2,8.56016,0\H,12,1.09999,1,112.677,2,-111.222,0\\\@

 Total job time:  10739.43s(wall), 68350.65s(cpu) 
 Wed Sep 29 02:31:50 2021

        *************************************************************
        *                                                           *
        *  Thank you very much for using Q-Chem.  Have a nice day.  *
        *                                                           *
        *************************************************************


Done Job For Fragment 0
calling putenv with: QCSCRATCH=/home/meili/scratch 
calling putenv with: QCTHREADS=8 
Creating input file /home/meili/scratch/qchem22705/Frg2.input
using default PutDataFrgm: nothing
calling putenv with: QCSCRATCH=/home/meili/scratch/qchem22705/ 
Spawning Job For Fragment 1
                  Welcome to Q-Chem
     A Quantum Leap Into The Future Of Chemistry


 Q-Chem 5.2 (devel), Q-Chem, Inc., Pleasanton, CA (2019)

 Yihan Shao,  Zhengting Gan,  E. Epifanovsky,  A. T. B. Gilbert,  M. Wormit,  
 J. Kussmann,  A. W. Lange,  A. Behn,  Jia Deng,  Xintian Feng,  D. Ghosh,  
 M. Goldey,  P. R. Horn,  L. D. Jacobson,  I. Kaliman,  T. Kus,  A. Landau,  
 Jie Liu,  E. I. Proynov,  R. M. Richard,  R. P. Steele,  E. J. Sundstrom,  
 H. L. Woodcock III,  P. M. Zimmerman,  D. Zuev,  B. Albrecht,  E. Alguire,  
 S. A. Baeppler,  D. Barton,  Z. Benda,  Y. A. Bernard,  E. J. Berquist,  
 K. B. Bravaya,  H. Burton,  D. Casanova,  Chun-Min Chang,  Yunqing Chen,  
 A. Chien,  K. D. Closser,  M. P. Coons,  S. Coriani,  S. Dasgupta,  
 A. L. Dempwolff,  M. Diedenhofen,  Hainam Do,  R. G. Edgar,  Po-Tung Fang,  
 S. Faraji,  S. Fatehi,  Qingguo Feng,  K. D. Fenk,  J. Fosso-Tande,  
 J. Gayvert,  Qinghui Ge,  A. Ghysels,  G. Gidofalvi,  J. Gomes,  
 J. Gonthier,  A. Gunina,  D. Hait,  M. W. D. Hanson-Heine,  
 P. H. P. Harbach,  A. W. Hauser,  M. F. Herbst,  J. E. Herr,  
 E. G. Hohenstein,  Z. C. Holden,  Kerwin Hui,  B. C. Huynh,  T.-C. Jagau,  
 Hyunjun Ji,  B. Kaduk,  K. Khistyaev,  Jaehoon Kim,  P. Klunzinger,  K. Koh,  
 D. Kosenkov,  L. Koulias,  T. Kowalczyk,  C. M. Krauter,  A. Kunitsa,  
 Ka Un Lao,  A. Laurent,  K. V. Lawler,  Joonho Lee,  D. Lefrancois,  
 S. Lehtola,  D. S. Levine,  Yi-Pei Li,  You-Sheng Lin,  Fenglai Liu,  
 E. Livshits,  A. Luenser,  P. Manohar,  E. Mansoor,  S. F. Manzer,  
 Shan-Ping Mao,  Yuezhi Mao,  N. Mardirossian,  A. V. Marenich,  
 T. Markovich,  L. A. Martinez-Martinez,  S. A. Maurer,  N. J. Mayhall,  
 S. C. McKenzie,  J.-M. Mewes,  P. Morgante,  A. F. Morrison,  
 J. W. Mullinax,  K. Nanda,  T. S. Nguyen-Beck,  R. Olivares-Amaya,  
 J. A. Parkhill,  Zheng Pei,  T. M. Perrine,  F. Plasser,  P. Pokhilko,  
 S. Prager,  A. Prociuk,  E. Ramos,  D. R. Rehn,  F. Rob,  M. Scheurer,  
 M. Schneider,  N. Sergueev,  S. M. Sharada,  S. Sharma,  D. W. Small,  
 T. Stauch,  T. Stein,  Yu-Chuan Su,  A. J. W. Thom,  A. Tkatchenko,  
 T. Tsuchimochi,  N. M. Tubman,  L. Vogt,  M. L. Vidal,  O. Vydrov,  
 M. A. Watson,  J. Wenzel,  M. de Wergifosse,  T. A. Wesolowski,  A. White,  
 J. Witte,  A. Yamada,  Jun Yang,  K. Yao,  S. Yeganeh,  S. R. Yost,  
 Zhi-Qiang You,  A. Zech,  Igor Ying Zhang,  Xing Zhang,  Yan Zhao,  
 Ying Zhu,  B. R. Brooks,  G. K. L. Chan,  C. J. Cramer,  M. S. Gordon,  
 W. J. Hehre,  A. Klamt,  M. W. Schmidt,  C. D. Sherrill,  D. G. Truhlar,  
 A. Aspuru-Guzik,  R. Baer,  A. T. Bell,  N. A. Besley,  Jeng-Da Chai,  
 A. E. DePrince, III,  R. A. DiStasio Jr.,  A. Dreuw,  B. D. Dunietz,  
 T. R. Furlani,  Chao-Ping Hsu,  Yousung Jung,  Jing Kong,  D. S. Lambrecht,  
 WanZhen Liang,  C. Ochsenfeld,  V. A. Rassolov,  L. V. Slipchenko,  
 J. E. Subotnik,  T. Van Voorhis,  J. M. Herbert,  A. I. Krylov,  
 P. M. W. Gill,  M. Head-Gordon

 Contributors to earlier versions of Q-Chem not listed above: 
 R. D. Adamson,  B. Austin,  J. Baker,  G. J. O. Beran,  K. Brandhorst,  
 S. T. Brown,  E. F. C. Byrd,  A. K. Chakraborty,  C.-L. Cheng,  
 Siu Hung Chien,  D. M. Chipman,  D. L. Crittenden,  H. Dachsel,  
 R. J. Doerksen,  A. D. Dutoi,  L. Fusti-Molnar,  W. A. Goddard III,  
 A. Golubeva-Zadorozhnaya,  S. R. Gwaltney,  G. Hawkins,  A. Heyden,  
 S. Hirata,  G. Kedziora,  F. J. Keil,  C. Kelley,  Jihan Kim,  R. A. King,  
 R. Z. Khaliullin,  P. P. Korambath,  W. Kurlancheek,  A. M. Lee,  M. S. Lee,  
 S. V. Levchenko,  Ching Yeh Lin,  D. Liotard,  R. C. Lochan,  I. Lotan,  
 P. E. Maslen,  N. Nair,  D. P. O'Neill,  D. Neuhauser,  E. Neuscamman,  
 C. M. Oana,  R. Olson,  B. Peters,  R. Peverati,  P. A. Pieniazek,  
 Y. M. Rhee,  J. Ritchie,  M. A. Rohrdanz,  E. Rosta,  N. J. Russ,  
 H. F. Schaefer III,  N. E. Schultz,  N. Shenvi,  A. C. Simmonett,  A. Sodt,  
 D. Stuck,  K. S. Thanthiriwatte,  V. Vanovschi,  Tao Wang,  A. Warshel,  
 C. F. Williams,  Q. Wu,  X. Xu,  W. Zhang

 Please cite Q-Chem as follows:
 Y. Shao et al., Mol. Phys. 113, 184-215 (2015)
 DOI: 10.1080/00268976.2014.952696

 Q-Chem 5.2.1 for Intel X86 EM64T Linux

 Parts of Q-Chem use Armadillo 8.300.2 (Tropical Shenanigans).
 http://arma.sourceforge.net/

 Q-Chem begins on Wed Sep 29 02:31:50 2021  

compute-0-11.local
Host: 0

     Scratch files written to /home/meili/scratch/qchem22705//Frg2//
NAlpha2: 44
NElect   44
Mult     1
Symmetry turned off for PCM/SM12/SMD calculation

Checking the input file for inconsistencies... 	...done.

--------------------------------------------------------------
User input:
--------------------------------------------------------------
$molecule
0 1
 6	-2.2708491090	-4.8996348289	-0.5153748144
 6	-0.9988491090	-1.6776348289	0.6056251856
 6	-1.9918491090	-3.4466348289	-0.2413748144
 6	-2.6578491090	-2.3446348289	-0.6723748144
 7	-0.9628491090	-3.0006348289	0.5606251856
 7	-2.0198491090	-1.2506348289	-0.1283748144
 1	-0.3508491090	-1.0636348289	1.2156251856
 1	-2.3958491090	-0.3126348289	-0.0693748144
 1	-3.5448491090	-2.3466348289	-1.2943748144
 1	-3.2178491090	-4.9516348289	-1.0483748144
 1	-2.3798491090	-5.4286348289	0.4286251856
 1	-1.5034991090	-5.3985248289	-1.1255248144
$end
$rem
EDA2		1
METHOD		WB97X-V
BASIS		DEF2-TZVPD
XC_GRID		000099000590
NL_GRID		1
UNRESTRICTED		FALSE
MAX_SCF_CYCLES		200
SYMMETRY		FALSE
SYM_IGNORE		TRUE
BASIS_LIN_DEP_THRESH		6
THRESH		14
SCF_CONVERGENCE		8
SCF_PRINT_FRGM		TRUE
SOLVENT_METHOD		PCM
!required keywords
JOBTYPE		SP
SYM_IGNORE		TRUE
SUBSYSTEM		TRUE
GEN_SCFMAN		TRUE
CHILD_INSTRUCTION		2
SYM_IGNORE		TRUE
SCFMI		0
RI_K 0		
PARI_K 0		
MIN_PARI_K 0		
IARI_K 0		
OCC_RI_K 0		
PURECART		1111
MEM_STATIC		2000
MEM_TOTAL		2000
GUI		0
CHILD_MP		1
CHILD_MP_ORDERS		232
FRZ_RELAX		0
FRZ_RELAX_METHOD		0
EDA_CLS_ELEC		1
EDA_CLS_DISP		0
FRZ_ORTHO_DECOMP		1
EDA2		FALSE
FRGM_METHOD		FALSE
CIS_N_ROOTS  0
LOCAL_CIS    0
CIS_RLX_DNS  1
$end
$pcm
THEORY                  CPCM
METHOD                  SWIG
SOLVER                  INVERSION
RADII                   UFF
HPOINTS                 302
HEAVYPOINTS             302
PRINTLEVEL              0
$end
$solvent
DIELECTRIC              78.390000 ! water
$end
--------------------------------------------------------------
 ----------------------------------------------------------------
             Standard Nuclear Orientation (Angstroms)
    I     Atom           X                Y                Z
 ----------------------------------------------------------------
    1      C      -2.2708491090    -4.8996348289    -0.5153748144
    2      C      -0.9988491090    -1.6776348289     0.6056251856
    3      C      -1.9918491090    -3.4466348289    -0.2413748144
    4      C      -2.6578491090    -2.3446348289    -0.6723748144
    5      N      -0.9628491090    -3.0006348289     0.5606251856
    6      N      -2.0198491090    -1.2506348289    -0.1283748144
    7      H      -0.3508491090    -1.0636348289     1.2156251856
    8      H      -2.3958491090    -0.3126348289    -0.0693748144
    9      H      -3.5448491090    -2.3466348289    -1.2943748144
   10      H      -3.2178491090    -4.9516348289    -1.0483748144
   11      H      -2.3798491090    -5.4286348289     0.4286251856
   12      H      -1.5034991090    -5.3985248289    -1.1255248144
 ----------------------------------------------------------------
 Nuclear Repulsion Energy =         224.70510488 hartrees
 There are       22 alpha and       22 beta electrons
 Requested basis set is def2-TZVPD
 There are 108 shells and 276 basis functions

 Total QAlloc Memory Limit   2000 MB
 Mega-Array Size      1956 MB
 MEM_STATIC part      2000 MB
 Discretize the solute cavity surface with Lebedev spheres
	Using 302 Lebedev grid points for each H atom
	Using 302 Lebedev grid points for other atoms
	Atomic van der Waals radii will be scaled by 1.20
 Remove points where switching function is < 1.0e-08
 Keep 1519 surface tesserae and discard 2105 interior tesserae
 Molecular Surface Area = 156.934 Angst**2

                       Distance Matrix (Angstroms)
             C (  1)   C (  2)   C (  3)   C (  4)   N (  5)   N (  6)
   C (  2)  3.640867
   C (  3)  1.504701  2.198367
   C (  4)  2.588908  2.197829  1.357837
   N (  5)  2.544571  1.324255  1.378753  2.196281
   N (  6)  3.678039  1.327978  2.199084  1.378338  2.157422
   H (  7)  4.625760  1.081203  3.239509  3.244650  2.134371  2.151015
   H (  8)  4.610326  2.066509  3.164610  2.135715  3.110584  1.012275
   H (  9)  2.957655  3.246487  2.174998  1.083355  3.245838  2.210520
   H ( 10)  1.087935  4.287045  2.102225  2.692847  3.388260  3.997375
   H ( 11)  1.087593  4.001061  2.127855  3.286418  2.814338  4.230311
   H ( 12)  1.100000  4.134800  2.197745  3.296075  2.980819  4.297199
             H (  7)   H (  8)   H (  9)   H ( 10)   H ( 11)
   H (  8)  2.529279
   H (  9)  4.260026  2.637799
   H ( 10)  5.334972  4.811907  2.636943
   H ( 11)  4.877441  5.140206  3.718155  1.763888
   H ( 12)  5.059729  5.270486  3.675548  1.773319  1.784455

 A cutoff of  1.0D-14 yielded   5739 shell pairs
 There are     38179 function pairs (     48961 Cartesian)
 Smallest overlap matrix eigenvalue = 1.87E-06

 Scale SEOQF with 1.000000e-01/1.000000e-02/1.000000e-01

 Standard Electronic Orientation quadrupole field applied
 Nucleus-field energy     =     0.0000000077 hartrees
 Guess from superposition of atomic densities
 Warning:  Energy on first SCF cycle will be non-variational
 SAD guess density has 44.000000 electrons

 -----------------------------------------------------------------------
  General SCF calculation program by
  Eric Jon Sundstrom, Paul Horn, Yuezhi Mao, Dmitri Zuev, Alec White,
  David Stuck, Shaama M.S., Shane Yost, Joonho Lee, David Small,
  Daniel Levine, Susi Lehtola, Hugh Burton, Evgeny Epifanovsky,
  Bang C. Huynh
 -----------------------------------------------------------------------
 Exchange:     0.1670 Hartree-Fock + 1.0000 wB97X-V + LR-HF
 Correlation:  1.0000 wB97X-V
 Using Euler-Maclaurin-Lebedev (99,590) quadrature formula
 Nonlocal Correlation:  VV10 with C = 0.0100 and b = 6.00 and scale = 1.00000
 Grid used for NLC:  SG-1 standard quadrature
Energy prior to optimization (guess energy) = -265.479097463116
Begin Timing: Total SCF Calculation
begin iterations for algorithm: DIIS         
the SCF tolerance is set to 1.00e-08
    1    -265.4790974631      2.70e-03     00000 
    2    -265.4923483597      2.84e-03     00000 
    3    -265.5608038165      4.07e-04     00000 
    4    -265.5625790736      1.53e-04     00000 
    5    -265.5629207109      5.86e-05     00000 
    6    -265.5629656016      2.19e-05     00000 
    7    -265.5629713792      7.94e-06     00000 
    8    -265.5629723495      1.48e-06     00000 
    9    -265.5629724246      6.58e-07     00000 
   10    -265.5629724314      2.34e-07     00000 
   11    -265.5629724325      3.98e-08     00000 
   12    -265.5629724325      1.57e-08     00000 
   13    -265.5629724325      6.21e-09     00000 Convergence criterion met
Timing for Total SCF: 342.00s (wall), 2103.75s (cpu)

************** Final PCM Free Energy Summary **************
 G_electrostatic  =      -0.01064063 hartree =      -6.67709717 kcal/mol
 G_cavitation     =       0.00000000 hartree =       0.00000000 kcal/mol
 G_dispersion     =       0.00000000 hartree =       0.00000000 kcal/mol
 G_repulsion      =       0.00000000 hartree =       0.00000000 kcal/mol
 --------------------------------------------------
 Non-electrostatic Free Energy =       0.00000000 hartree =       0.00000000 kcal/mol
 Total                         =      -0.01064063 hartree =      -6.67709717 kcal/mol
 --------------------------------------------------
 SCF Energy (H0 + V/2)                       =    -265.56297243 
 Solute Internal Energy (H0)                 =    -265.55233180 
 Total Free Energy (H0 + V/2 + non-elec)     =    -265.56297243 hartree
                                             = -166643.28034833 kcal/mol
***********************************************************

E_pcm = -0.0106406317
Multipole orders to be included
        2
        3
computing dipole RHS
computing quadrupole RHS
total number of RHS in solve_reponses: 8
RHS batch sizes
        8
Beginning Block Conjugate Gradient Iterations. Batch Number: 0
computing hessian-vector products by finite difference
              1      6.02e-01     00000 Conjugate Gradient Iteration
computing hessian-vector products by finite difference
              2      1.89e-01     00000 Conjugate Gradient Iteration
computing hessian-vector products by finite difference
              3      4.29e-02     00000 Conjugate Gradient Iteration
computing hessian-vector products by finite difference
              4      1.26e-02     00000 Conjugate Gradient Iteration
computing hessian-vector products by finite difference
              5      3.15e-03     00000 Conjugate Gradient Iteration
computing hessian-vector products by finite difference
              6      5.91e-04     00000 Conjugate Gradient Iteration
computing hessian-vector products by finite difference
              7      1.01e-04     00000 Conjugate Gradient Iteration
computing hessian-vector products by finite difference
              8      1.57e-05     00000 Conjugate Gradient Iteration
computing hessian-vector products by finite difference
              9      2.33e-06     00000 Conjugate Gradient Iteration
computing hessian-vector products by finite difference
             10      3.62e-07     00000 Conjugate Gradient Iteration
computing hessian-vector products by finite difference
             11      5.74e-08     00000 Conjugate Gradient Iteration
computing hessian-vector products by finite difference
             12      8.02e-09     00000 CG Converged
batch 0 complete
Done Calculating Responses
TESTING ORTHOGONALIZATION OF MULTIPOLE BASIS
Multipole virts passed orthogonality test
Virts Per Order
           66
          110

 --------------------------------------------------------------

                    Orbital Energies (a.u.)
 --------------------------------------------------------------

 Alpha MOs
 -- Occupied --
-14.4664 -14.3873 -10.3226 -10.2906 -10.2878 -10.2655  -1.1584  -0.9987
 -0.9014  -0.8294  -0.7295  -0.6888  -0.6718  -0.5688  -0.5590  -0.5439
 -0.5166  -0.5013  -0.4835  -0.3812  -0.3735  -0.3270
 -- Virtual --
  0.0641   0.0820   0.0932   0.1010   0.1143   0.1243   0.1309   0.1439
  0.1648   0.1674   0.1747   0.1792   0.1978   0.2008   0.2217   0.2334
  0.2418   0.2476   0.2574   0.2634   0.2679   0.2872   0.2955   0.3037
  0.3079   0.3102   0.3177   0.3193   0.3255   0.3335   0.3449   0.3547
  0.3564   0.3644   0.3751   0.3793   0.3920   0.3999   0.4033   0.4112
  0.4168   0.4239   0.4281   0.4456   0.4513   0.4680   0.4680   0.4821
  0.4881   0.4930   0.4987   0.5173   0.5319   0.5362   0.5482   0.5558
  0.5662   0.5750   0.5897   0.5918   0.6019   0.6088   0.6221   0.6381
  0.6398   0.6522   0.6685   0.6810   0.6859   0.7011   0.7044   0.7108
  0.7335   0.7390   0.7566   0.7702   0.7723   0.7835   0.7875   0.7986
  0.8024   0.8155   0.8210   0.8262   0.8504   0.8603   0.8750   0.8960
  0.9176   0.9346   0.9709   0.9925   0.9967   1.0029   1.0117   1.0203
  1.0658   1.0838   1.1027   1.1146   1.1244   1.1498   1.1674   1.1774
  1.2218   1.2460   1.2742   1.3420   1.3445   1.3504   1.3755   1.4240
  1.4300   1.4559   1.5450   1.5577   1.6025   1.6358   1.6496   1.6762
  1.6950   1.7300   1.7509   1.8095   1.8264   1.8439   1.8669   1.8950
  1.9395   1.9443   1.9480   1.9528   1.9675   1.9796   1.9952   2.0082
  2.0382   2.0593   2.0857   2.1280   2.1722   2.2173   2.2605   2.2738
  2.3012   2.3384   2.3541   2.3878   2.4293   2.4476   2.4715   2.5007
  2.5441   2.5920   2.6030   2.6138   2.6299   2.6595   2.6826   2.7113
  2.7418   2.7656   2.7844   2.8351   2.8611   2.8684   2.8991   2.9840
  2.9995   3.0326   3.0512   3.0738   3.0845   3.0893   3.1147   3.1639
  3.1720   3.1908   3.2123   3.2207   3.2612   3.2902   3.3078   3.3323
  3.3476   3.3637   3.3863   3.3911   3.4212   3.4457   3.4750   3.4946
  3.5166   3.5351   3.5706   3.5935   3.6126   3.6491   3.7033   3.7267
  3.7527   3.7965   3.8333   3.8530   3.8682   3.9464   3.9678   4.0370
  4.0701   4.0948   4.1496   4.2316   4.2913   4.4000   4.4260   4.4739
  4.5003   4.5356   4.6067   4.6899   4.6982   4.7708   4.8701   4.9327
  4.9525   4.9693   4.9954   5.0417   5.0465   5.0799   5.1656   5.2315
  5.2525   5.3074   5.3725   5.4382   5.4870   5.5342   5.5742   5.5952
  5.6632   5.6871   5.7128   5.7907   5.8732   6.0320   6.2113   6.2761
 22.6228  22.8667  23.1264  23.3741  32.6463  32.7723
 --------------------------------------------------------------

          Ground-State Mulliken Net Atomic Charges

     Atom                 Charge (a.u.)
  ----------------------------------------
      1 C                    -0.724653
      2 C                    -0.244912
      3 C                     0.538794
      4 C                    -0.527104
      5 N                    -0.480897
      6 N                     0.066341
      7 H                     0.290271
      8 H                     0.217149
      9 H                     0.257326
     10 H                     0.206752
     11 H                     0.199691
     12 H                     0.201242
  ----------------------------------------
  Sum of atomic charges =     0.000000

 -----------------------------------------------------------------
                    Cartesian Multipole Moments
 -----------------------------------------------------------------
    Charge (ESU x 10^10)
                 0.0000
    Dipole Moment (Debye)
         X      -2.5965      Y       3.4182      Z      -1.0756
       Tot       4.4253
    Quadrupole Moments (Debye-Ang)
        XX     -27.3257     XY       2.2439     YY     -45.4789
        XZ       3.1191     YZ       5.9177     ZZ     -37.2019
    Octopole Moments (Debye-Ang^2)
       XXX     172.2628    XXY      91.0604    XYY      53.4214
       YYY     326.7788    XXZ      -8.4317    XYZ      -9.1828
       YYZ     -19.6725    XZZ      66.7784    YZZ     107.3183
       ZZZ       8.9502
    Hexadecapole Moments (Debye-Ang^3)
      XXXX    -801.9369   XXXY    -552.4343   XXYY    -463.8845
      XYYY    -525.5533   YYYY   -2185.6049   XXXZ     -12.2658
      XXYZ      11.3859   XYYZ       7.7349   YYYZ      25.1909
      XXZZ    -158.7410   XYZZ    -197.2940   YYZZ    -395.3223
      XZZZ     -55.3945   YZZZ     -52.5716   ZZZZ    -117.4613
 -----------------------------------------------------------------
Archival summary:
1\1\compute-0-11.local\SP\ProcedureUnspecified\BasisUnspecified\246\meili\WedSep2904:17:032021WedSep2904:17:032021\0\\#,ProcedureUnspecified,BasisUnspecified,\\0,1\N\C,1,1.32425\H,2,1.0812,1,124.766\N,2,1.32798,1,108.866,3,-175.014,0\H,4,1.01228,2,123.457,1,164.175,0\C,4,1.37834,2,108.591,1,-0.408041,0\H,6,1.08335,4,127.376,2,177.918,0\C,6,1.35784,4,106.969,2,0.136091,0\C,8,1.5047,6,129.417,4,179.08,0\H,9,1.08759,8,109.282,6,-124.348,0\H,9,1.08793,8,107.263,6,-7.09595,0\H,9,1.1,8,114.18,6,112.887,0\\\@

 Total job time:  6312.79s(wall), 38701.39s(cpu) 
 Wed Sep 29 04:17:03 2021

        *************************************************************
        *                                                           *
        *  Thank you very much for using Q-Chem.  Have a nice day.  *
        *                                                           *
        *************************************************************


Done Job For Fragment 1
calling putenv with: QCSCRATCH=/home/meili/scratch 
calling putenv with: QCTHREADS=8 
Doing General SCFMI
 Exchange:     0.1670 Hartree-Fock + 1.0000 wB97X-V + LR-HF
 Correlation:  1.0000 wB97X-V
 Using Euler-Maclaurin-Lebedev (99,590) quadrature formula
 Nonlocal Correlation:  VV10 with C = 0.0100 and b = 6.00 and scale = 1.00000
 Grid used for NLC:  SG-1 standard quadrature
performing fock build before subrot guess so that all methods have access
Printing subrot_rss_gen Method Specification:
Occupied Subspace Method is 0
Virtual Subspace Method is 0
Energy of the unrelaxed supersystem initial determinant -537.131540876064
performing fock build before subrot guess so that all methods have access
Printing subrot_rss_gen Method Specification:
Occupied Subspace Method is 0
Virtual Subspace Method is 0
Energy of the unrelaxed supersystem initial determinant w/ solvent -537.144150374970
write pseudocanon occs and virts to disk
write pseudocanon orbital energies to disk
Tolerance of ortho_decomp_scf: 1.00e-06
GDM subspace size: 20
Beginning the Orthogonal Decomposition of the Initial Supersystem Wavefunction
    1    -537.1240849776      1.43e-02     ortho_decomp Preconditoned Steepest Descent
    2    -537.1248194807      3.14e-04     ortho_decomp BFGS Step
    3    -537.1248211459      2.03e-05     ortho_decomp BFGS Step
    4    -537.1248211486      7.51e-07     ortho_decomp 00000 Convergence criterion met
 Hartree-Fock
 Hartree-Fock
 Hartree-Fock
Doing General SCFMI
 Exchange:     0.1670 Hartree-Fock + 1.0000 wB97X-V + LR-HF
 Correlation:  1.0000 wB97X-V
 Using Euler-Maclaurin-Lebedev (99,590) quadrature formula
 Nonlocal Correlation:  VV10 with C = 0.0100 and b = 6.00 and scale = 1.00000
 Grid used for NLC:  SG-1 standard quadrature
performing fock build at end of subrot_r(subrot) constructor so that all methods have access
<S^2> of initial wavefunction before polarization iterations 0.0000000000
Beginning iterations for the determination of the polarized wavefunction
Energy prior to optimization (guess energy) = -537.144150374970
Begin Timing: Total SCF Calculation
begin iterations for algorithm: DIIS         
the SCF tolerance is set to 1.00e-08
    1    -537.1441503750      3.74e-05     00000 
    2    -537.1443029848      1.30e-05     00000 
    3    -537.1443179067      7.04e-06     00000 
    4    -537.1443216113      2.39e-06     00000 
    5    -537.1443222370      1.02e-06     00000 
    6    -537.1443223385      3.91e-07     00000 
    7    -537.1443223495      1.24e-07     00000 
    8    -537.1443223503      5.35e-08     00000 
    9    -537.1443223504      1.56e-08     00000 
   10    -537.1443223505      7.24e-09     00000 Convergence criterion met
write pseudocanon occs and virts to disk
write pseudocanon orbital energies to disk
Timing for Total SCF: 2162.00s (wall), 13475.90s (cpu)
<S^2> of polarized wavefunction after polarization iterations 0.0000000000
relaxing scfmi constraint to allow all rotations in the entire AO span
Doing General SCFMI
 Exchange:     0.1670 Hartree-Fock + 1.0000 wB97X-V + LR-HF
 Correlation:  1.0000 wB97X-V
 Using Euler-Maclaurin-Lebedev (99,590) quadrature formula
 Nonlocal Correlation:  VV10 with C = 0.0100 and b = 6.00 and scale = 1.00000
 Grid used for NLC:  SG-1 standard quadrature
performing fock build at end of subrot_r(subrot) constructor so that all methods have access
<S^2> of polarized wavefunction before ct-allowed iterations 0.0000000000
Beginning iterations for the determination of the CT-Allowed wavefunction
Energy prior to optimization (guess energy) = -537.144322350476
Begin Timing: Total SCF Calculation
begin iterations for algorithm: DIIS         
the SCF tolerance is set to 1.00e-08
    1    -537.1443223505      4.97e-05     00000 
    2    -537.1448242200      5.62e-06     00000 
    3    -537.1448389343      8.29e-07     00000 
    4    -537.1448392905      4.00e-07     00000 
    5    -537.1448393201      1.04e-07     00000 
    6    -537.1448393235      3.83e-08     00000 
    7    -537.1448393238      1.24e-08     00000 
    8    -537.1448393239      4.53e-09     00000 Convergence criterion met
write pseudocanon occs and virts to disk
write pseudocanon orbital energies to disk
Timing for Total SCF: 1709.00s (wall), 10536.45s (cpu)
<S^2> of ct_allowed wavefunction after ct-allowed iterations 0.0000000000

================================
        Results of EDA2         
================================
Basic EDA Quantities
--------------------
Fragment Energies (Ha):
1 -271.5810317980
2 -265.5629724325
--------------------
  E_prp (kJ/mol) = 0.0000
  E_sol (kJ/mol) = 1.2056
  E_frz (kJ/mol) = -1.5893
  E_pol (kJ/mol) = -0.4515
  E_vct (kJ/mol) = -1.3573
  E_int (kJ/mol) = -2.1926
--------------------


Initial Wavefunction Decomposition
--------------------
  --------------------
  Orthogonal Fragment Subspace Decomposition:
  --------------------
     E_elec   (ELEC)   (kJ/mol) = -7.3591
     E_pauli  (PAULI)  (kJ/mol) = 12.5224
     E_disp   (DISP)   (kJ/mol) = -6.7526
     --------------------
     Terms summing to E_pauli:
     --------------------
        E_kep_pauli       (kJ/mol) = 16.0536
        E_disp_free_pauli (kJ/mol) = -3.5312
  --------------------
  Classical Frozen Decomposition:
  --------------------
     E_cls_elec  (CLS ELEC)  (kJ/mol) = -2.4987
     E_cls_pauli (CLS PAULI) (kJ/mol) = 0.9095
    [E_mod_pauli (MOD PAULI) (kJ/mol) = 7.6621 (CLS PAULI - DISP from orthogonal decomposition) ]
  --------------------
--------------------

Simplified EDA Summary (kJ/mol)
--------------------
 PREPARATION     0.0000
 SOLVATION       1.2056
 FROZEN          5.1633      (does not include dispersion)
[PAULI           12.5224]     (if this is negligible, then frozen describes electrostatics)
 DISPERSION      -6.7526
 POLARIZATION    -0.4515
 CHARGE TRANSFER -1.3573
 TOTAL           -2.1926     (PRP + SOL + FRZ + DISP + POL + CT)
--------------------

 --------------------------------------------------------------

                    Orbital Energies (a.u.)
 --------------------------------------------------------------

 Alpha MOs
 -- Occupied --
-14.4666 -14.3875 -10.3226 -10.2908 -10.2879 -10.2812 -10.2745 -10.2737
-10.2714 -10.2701 -10.2698 -10.2655 -10.2618  -1.1585  -1.0006  -0.9988
 -0.9106  -0.9015  -0.8817  -0.8295  -0.8148  -0.7333  -0.7292  -0.7081
 -0.6889  -0.6722  -0.6320  -0.5768  -0.5717  -0.5679  -0.5586  -0.5443
 -0.5396  -0.5318  -0.5166  -0.5161  -0.5014  -0.4863  -0.4837  -0.4755
 -0.4446  -0.4412  -0.3813  -0.3736  -0.3515  -0.3395  -0.3269
 -- Virtual --
  0.0559   0.0605   0.0658   0.0699   0.0775   0.0816   0.0879   0.0956
  0.1027   0.1067   0.1091   0.1103   0.1211   0.1297   0.1341   0.1443
  0.1460   0.1523   0.1596   0.1630   0.1704   0.1740   0.1775   0.1839
  0.1911   0.1986   0.1989   0.2080   0.2104   0.2137   0.2197   0.2252
  0.2305   0.2316   0.2372   0.2380   0.2466   0.2525   0.2594   0.2632
  0.2677   0.2696   0.2751   0.2769   0.2796   0.2809   0.2839   0.2921
  0.2952   0.2986   0.3027   0.3066   0.3098   0.3125   0.3154   0.3205
  0.3214   0.3263   0.3274   0.3329   0.3414   0.3452   0.3476   0.3505
  0.3534   0.3540   0.3601   0.3613   0.3684   0.3711   0.3728   0.3741
  0.3766   0.3795   0.3852   0.3862   0.3876   0.3954   0.3984   0.3995
  0.4032   0.4079   0.4112   0.4138   0.4189   0.4238   0.4266   0.4311
  0.4380   0.4404   0.4428   0.4474   0.4504   0.4541   0.4607   0.4643
  0.4655   0.4708   0.4725   0.4766   0.4830   0.4863   0.4888   0.4925
  0.4952   0.4973   0.4998   0.5026   0.5113   0.5144   0.5164   0.5228
  0.5266   0.5292   0.5322   0.5405   0.5443   0.5484   0.5525   0.5578
  0.5635   0.5659   0.5720   0.5759   0.5791   0.5822   0.5882   0.5899
  0.5964   0.6039   0.6051   0.6067   0.6154   0.6196   0.6272   0.6315
  0.6383   0.6410   0.6455   0.6498   0.6567   0.6645   0.6704   0.6798
  0.6827   0.6847   0.6919   0.6962   0.7007   0.7014   0.7109   0.7181
  0.7202   0.7242   0.7260   0.7298   0.7381   0.7393   0.7408   0.7452
  0.7456   0.7566   0.7601   0.7605   0.7672   0.7749   0.7788   0.7844
  0.7858   0.7907   0.7923   0.7977   0.8018   0.8035   0.8080   0.8106
  0.8125   0.8180   0.8208   0.8220   0.8306   0.8338   0.8394   0.8434
  0.8463   0.8496   0.8536   0.8611   0.8698   0.8736   0.8782   0.8813
  0.8929   0.8965   0.9040   0.9124   0.9164   0.9229   0.9313   0.9391
  0.9436   0.9478   0.9558   0.9675   0.9790   0.9885   0.9933   1.0086
  1.0097   1.0190   1.0259   1.0431   1.0545   1.0582   1.0637   1.0766
  1.0798   1.0850   1.0908   1.0936   1.1035   1.1088   1.1153   1.1275
  1.1346   1.1405   1.1485   1.1541   1.1835   1.1913   1.2027   1.2069
  1.2172   1.2372   1.2640   1.2736   1.2788   1.2952   1.3117   1.3405
  1.3457   1.3605   1.3660   1.3715   1.3753   1.3845   1.3949   1.4144
  1.4401   1.4481   1.4514   1.4583   1.4669   1.4743   1.4846   1.4991
  1.5421   1.5488   1.5611   1.5794   1.6166   1.6225   1.6260   1.6337
  1.6395   1.6530   1.6668   1.6822   1.7081   1.7181   1.7322   1.7373
  1.7412   1.7683   1.7694   1.7914   1.7976   1.8100   1.8246   1.8402
  1.8412   1.8558   1.8738   1.8856   1.8935   1.9018   1.9166   1.9283
  1.9326   1.9427   1.9446   1.9545   1.9614   1.9665   1.9752   1.9775
  2.0007   2.0052   2.0134   2.0182   2.0229   2.0319   2.0373   2.0447
  2.0554   2.0631   2.0824   2.0855   2.0978   2.1135   2.1161   2.1230
  2.1448   2.1568   2.1838   2.1878   2.2063   2.2292   2.2320   2.2512
  2.2633   2.2800   2.2873   2.2942   2.3082   2.3171   2.3273   2.3540
  2.3815   2.3963   2.4019   2.4122   2.4317   2.4452   2.4488   2.4708
  2.4829   2.4992   2.5222   2.5326   2.5589   2.5651   2.5791   2.5887
  2.5960   2.6045   2.6214   2.6297   2.6397   2.6467   2.6591   2.6736
  2.6760   2.6891   2.7150   2.7212   2.7261   2.7372   2.7556   2.7718
  2.7735   2.7878   2.7973   2.8122   2.8183   2.8222   2.8410   2.8554
  2.8598   2.8725   2.8840   2.9045   2.9087   2.9219   2.9378   2.9430
  2.9469   2.9816   2.9883   2.9938   3.0046   3.0218   3.0285   3.0400
  3.0516   3.0550   3.0755   3.0818   3.0849   3.0932   3.1031   3.1067
  3.1112   3.1323   3.1542   3.1701   3.1757   3.1799   3.1956   3.2052
  3.2102   3.2262   3.2403   3.2434   3.2585   3.2694   3.2804   3.2885
  3.3024   3.3124   3.3382   3.3390   3.3573   3.3626   3.3715   3.3823
  3.3871   3.3931   3.3975   3.4143   3.4181   3.4276   3.4350   3.4417
  3.4514   3.4563   3.4655   3.4846   3.4969   3.4980   3.5031   3.5061
  3.5168   3.5256   3.5442   3.5494   3.5626   3.5635   3.5722   3.5798
  3.5830   3.6003   3.6041   3.6145   3.6345   3.6409   3.6517   3.6631
  3.6722   3.7047   3.7117   3.7338   3.7422   3.7546   3.7629   3.7679
  3.8089   3.8148   3.8413   3.8559   3.8692   3.8756   3.9094   3.9404
  3.9492   3.9611   3.9748   3.9772   3.9994   4.0427   4.0530   4.0700
  4.0780   4.1112   4.1310   4.1560   4.2143   4.2463   4.2705   4.2828
  4.2976   4.3019   4.3149   4.3290   4.3583   4.3710   4.3803   4.4019
  4.4043   4.4090   4.4347   4.4456   4.4663   4.4791   4.5057   4.5152
  4.5411   4.5468   4.6014   4.6157   4.6261   4.6954   4.7070   4.7727
  4.7790   4.8170   4.8268   4.8600   4.8811   4.9229   4.9393   4.9586
  4.9625   4.9730   5.0010   5.0415   5.0534   5.0639   5.0649   5.0926
  5.1750   5.1828   5.2395   5.2589   5.2796   5.3173   5.3819   5.3832
  5.3975   5.4533   5.4970   5.5015   5.5394   5.5404   5.5865   5.6067
  5.6747   5.6851   5.6984   5.7397   5.8058   5.8522   5.9005   6.0437
  6.2295   6.2830  22.6045  22.6253  22.7078  22.8848  22.9130  22.9276
 23.0381  23.1029  23.1700  23.3911  23.4457  32.6843  32.8124
 --------------------------------------------------------------

          Ground-State Mulliken Net Atomic Charges

     Atom                 Charge (a.u.)
  ----------------------------------------
      1 C                    -1.043613
      2 C                    -0.574471
      3 C                    -0.480258
      4 C                    -0.480123
      5 C                     0.977900
      6 C                    -0.470131
      7 C                    -0.390867
      8 H                     0.434137
      9 H                     0.340510
     10 H                     0.266437
     11 H                     0.323702
     12 H                     0.254205
     13 H                     0.275762
     14 H                     0.350810
     15 H                     0.219505
     16 C                    -0.752662
     17 C                    -0.292655
     18 C                     0.540377
     19 C                    -0.556298
     20 N                    -0.473100
     21 N                     0.100525
     22 H                     0.325326
     23 H                     0.231484
     24 H                     0.255737
     25 H                     0.208920
     26 H                     0.204808
     27 H                     0.204036
  ----------------------------------------
  Sum of atomic charges =     0.000000

 -----------------------------------------------------------------
                    Cartesian Multipole Moments
 -----------------------------------------------------------------
    Charge (ESU x 10^10)
                -0.0000
    Dipole Moment (Debye)
         X      -2.6834      Y       3.9876      Z      -1.1406
       Tot       4.9399
    Quadrupole Moments (Debye-Ang)
        XX     -68.6879     XY       0.7534     YY     -82.3682
        XZ      -0.2313     YZ       3.8480     ZZ     -79.1470
    Octopole Moments (Debye-Ang^2)
       XXX     -27.9184    XXY     -18.4758    XYY     -14.3633
       YYY      38.2560    XXZ     -24.1807    XYZ     -19.9483
       YYZ     -29.9378    XZZ      -2.9493    YZZ       2.9331
       ZZZ       1.2967
    Hexadecapole Moments (Debye-Ang^3)
      XXXX   -1734.2442   XXXY    -978.2765   XXYY    -971.4793
      XYYY    -915.0194   YYYY   -4142.8083   XXXZ     -26.6181
      XXYZ     -12.1236   XYYZ     -11.3433   YYYZ      24.2701
      XXZZ    -346.8461   XYZZ    -336.9601   YYZZ    -769.2469
      XZZZ     -28.6572   YZZZ     -31.0443   ZZZZ    -322.6600
 -----------------------------------------------------------------
Archival summary:
1\1\compute-0-11.local\SP\ProcedureUnspecified\BasisUnspecified\21114\meili\WedSep2906:09:522021WedSep2906:09:522021\0\\#,ProcedureUnspecified,BasisUnspecified,\\0,1\N\H,1,1.01228\C,1,1.32798,2,123.457\H,3,1.0812,1,126.159,2,-10.7521,0\N,3,1.32425,1,108.866,2,164.175,0\C,1,1.37834,2,125.912,3,161.874,0\H,6,1.08335,1,127.376,2,13.8112,0\C,6,1.35784,1,106.969,2,-163.971,0\C,8,1.5047,6,129.417,1,179.08,0\H,9,1.08759,8,109.282,6,-124.348,0\H,9,1.08793,8,107.263,6,-7.09595,0\H,9,1.1,8,114.18,6,112.887,0\H,4,2.19602,3,161.074,1,-63.9849,0\C,13,1.07875,4,117.565,3,10.4402,0\C,14,1.38852,13,119.499,4,92.1951,0\H,15,1.08073,14,119.797,13,0.668089,0\C,15,1.38766,14,120.012,13,178.751,0\C,17,1.3921,15,119.293,14,0.899373,0\H,18,1.07903,17,120.755,15,-175.57,0\C,18,1.39106,17,120.871,15,-0.911974,0\H,20,1.08181,18,120.393,17,-178.132,0\C,20,1.38687,18,119.595,17,0.925589,0\H,22,1.08257,20,120.15,18,-179.615,0\C,17,1.49038,15,119.888,14,178.385,0\H,24,1.09047,17,109.477,15,125.115,0\H,24,1.09162,17,109.079,15,8.56016,0\H,24,1.09999,17,112.677,15,-111.222,0\\\@

 Total job time:  23826.60s(wall), 44134.91s(cpu) 
 Wed Sep 29 06:09:52 2021

        *************************************************************
        *                                                           *
        *  Thank you very much for using Q-Chem.  Have a nice day.  *
        *                                                           *
        *************************************************************


