
Running Job 1 of 1 SSI-005PHE-043TYR-1_PCM_TZVPD.in
qchem SSI-005PHE-043TYR-1_PCM_TZVPD.in_34753.0 /tmp/qchem34753/ 0
/global/common/cori/software/qchem/5.2/exe/qcprog.exe_s SSI-005PHE-043TYR-1_PCM_TZVPD.in_34753.0 /tmp/qchem34753/
                  Welcome to Q-Chem
     A Quantum Leap Into The Future Of Chemistry


 Q-Chem 5.2, Q-Chem, Inc., Pleasanton, CA (2019)

 License issued to: National Energy Research Scientific Computing Center

 Yihan Shao,  Zhengting Gan,  E. Epifanovsky,  A. T. B. Gilbert,  M. Wormit,  
 J. Kussmann,  A. W. Lange,  A. Behn,  Jia Deng,  Xintian Feng,  D. Ghosh,  
 M. Goldey,  P. R. Horn,  L. D. Jacobson,  I. Kaliman,  T. Kus,  A. Landau,  
 Jie Liu,  E. I. Proynov,  R. M. Richard,  R. P. Steele,  E. J. Sundstrom,  
 H. L. Woodcock III,  P. M. Zimmerman,  D. Zuev,  B. Albrecht,  E. Alguire,  
 S. A. Baeppler,  D. Barton,  Z. Benda,  Y. A. Bernard,  E. J. Berquist,  
 K. B. Bravaya,  H. Burton,  D. Casanova,  Chun-Min Chang,  Yunqing Chen,  
 A. Chien,  K. D. Closser,  M. P. Coons,  S. Coriani,  S. Dasgupta,  
 A. L. Dempwolff,  M. Diedenhofen,  Hainam Do,  R. G. Edgar,  Po-Tung Fang,  
 S. Faraji,  S. Fatehi,  Qingguo Feng,  K. D. Fenk,  J. Fosso-Tande,  
 J. Gayvert,  Qinghui Ge,  A. Ghysels,  G. Gidofalvi,  J. Gomes,  
 J. Gonthier,  A. Gunina,  D. Hait,  M. W. D. Hanson-Heine,  
 P. H. P. Harbach,  A. W. Hauser,  M. F. Herbst,  J. E. Herr,  
 E. G. Hohenstein,  Z. C. Holden,  Kerwin Hui,  B. C. Huynh,  T.-C. Jagau,  
 Hyunjun Ji,  B. Kaduk,  K. Khistyaev,  Jaehoon Kim,  P. Klunzinger,  K. Koh,  
 D. Kosenkov,  L. Koulias,  T. Kowalczyk,  C. M. Krauter,  A. Kunitsa,  
 Ka Un Lao,  A. Laurent,  K. V. Lawler,  Joonho Lee,  D. Lefrancois,  
 S. Lehtola,  D. S. Levine,  Yi-Pei Li,  You-Sheng Lin,  Fenglai Liu,  
 E. Livshits,  A. Luenser,  P. Manohar,  E. Mansoor,  S. F. Manzer,  
 Shan-Ping Mao,  Yuezhi Mao,  N. Mardirossian,  A. V. Marenich,  
 T. Markovich,  L. A. Martinez-Martinez,  S. A. Maurer,  N. J. Mayhall,  
 S. C. McKenzie,  J.-M. Mewes,  P. Morgante,  A. F. Morrison,  
 J. W. Mullinax,  K. Nanda,  T. S. Nguyen-Beck,  R. Olivares-Amaya,  
 J. A. Parkhill,  Zheng Pei,  T. M. Perrine,  F. Plasser,  P. Pokhilko,  
 S. Prager,  A. Prociuk,  E. Ramos,  D. R. Rehn,  F. Rob,  M. Scheurer,  
 M. Schneider,  N. Sergueev,  S. M. Sharada,  S. Sharma,  D. W. Small,  
 T. Stauch,  T. Stein,  Yu-Chuan Su,  A. J. W. Thom,  A. Tkatchenko,  
 T. Tsuchimochi,  N. M. Tubman,  L. Vogt,  M. L. Vidal,  O. Vydrov,  
 M. A. Watson,  J. Wenzel,  M. de Wergifosse,  T. A. Wesolowski,  A. White,  
 J. Witte,  A. Yamada,  Jun Yang,  K. Yao,  S. Yeganeh,  S. R. Yost,  
 Zhi-Qiang You,  A. Zech,  Igor Ying Zhang,  Xing Zhang,  Yan Zhao,  
 Ying Zhu,  B. R. Brooks,  G. K. L. Chan,  C. J. Cramer,  M. S. Gordon,  
 W. J. Hehre,  A. Klamt,  M. W. Schmidt,  C. D. Sherrill,  D. G. Truhlar,  
 A. Aspuru-Guzik,  R. Baer,  A. T. Bell,  N. A. Besley,  Jeng-Da Chai,  
 A. E. DePrince, III,  R. A. DiStasio Jr.,  A. Dreuw,  B. D. Dunietz,  
 T. R. Furlani,  Chao-Ping Hsu,  Yousung Jung,  Jing Kong,  D. S. Lambrecht,  
 WanZhen Liang,  C. Ochsenfeld,  V. A. Rassolov,  L. V. Slipchenko,  
 J. E. Subotnik,  T. Van Voorhis,  J. M. Herbert,  A. I. Krylov,  
 P. M. W. Gill,  M. Head-Gordon

 Contributors to earlier versions of Q-Chem not listed above: 
 R. D. Adamson,  B. Austin,  J. Baker,  G. J. O. Beran,  K. Brandhorst,  
 S. T. Brown,  E. F. C. Byrd,  A. K. Chakraborty,  C.-L. Cheng,  
 Siu Hung Chien,  D. M. Chipman,  D. L. Crittenden,  H. Dachsel,  
 R. J. Doerksen,  A. D. Dutoi,  L. Fusti-Molnar,  W. A. Goddard III,  
 A. Golubeva-Zadorozhnaya,  S. R. Gwaltney,  G. Hawkins,  A. Heyden,  
 S. Hirata,  G. Kedziora,  F. J. Keil,  C. Kelley,  Jihan Kim,  R. A. King,  
 R. Z. Khaliullin,  P. P. Korambath,  W. Kurlancheek,  A. M. Lee,  M. S. Lee,  
 S. V. Levchenko,  Ching Yeh Lin,  D. Liotard,  R. C. Lochan,  I. Lotan,  
 P. E. Maslen,  N. Nair,  D. P. O'Neill,  D. Neuhauser,  E. Neuscamman,  
 C. M. Oana,  R. Olson,  B. Peters,  R. Peverati,  P. A. Pieniazek,  
 Y. M. Rhee,  J. Ritchie,  M. A. Rohrdanz,  E. Rosta,  N. J. Russ,  
 H. F. Schaefer III,  N. E. Schultz,  N. Shenvi,  A. C. Simmonett,  A. Sodt,  
 D. Stuck,  K. S. Thanthiriwatte,  V. Vanovschi,  Tao Wang,  A. Warshel,  
 C. F. Williams,  Q. Wu,  X. Xu,  W. Zhang

 Please cite Q-Chem as follows:
 Y. Shao et al., Mol. Phys. 113, 184-215 (2015)
 DOI: 10.1080/00268976.2014.952696

 Q-Chem 5.2.0 for Intel X86 EM64T Linux

 Parts of Q-Chem use Armadillo 8.300.2 (Tropical Shenanigans).
 http://arma.sourceforge.net/

 Q-Chem begins on Sun Sep 26 01:42:10 2021  

Host: cori01
0

     Scratch files written to /tmp/qchem34753//
 May1019 |scratch|qcdevops|jenkins|workspace|build_RNUM -1
Processing $rem in /global/common/cori/software/qchem/5.2/config/preferences:
	 MEM_TOTAL  96000 
NAlpha2: 108
NElect   108
Mult     1
Symmetry turned off for PCM/SM12/SMD calculation

 Q-Chem warning in module libgen/rem_setup.C, line 2803:

 Neither GIA nor STOLL is specified by user. Use STOLL as the default


Checking the input file for inconsistencies... 	...done.

--------------------------------------------------------------
User input:
--------------------------------------------------------------
$comment
SSI-005PHE-043TYR-1.pdb
$end

$molecule
0 1
--
0 1
C   -2.478377386449   -1.691726649819   -0.597773524427
C   -2.125377386449    0.767273350181   -0.731773524427
C   -2.495377386449   -0.419726649819   -1.366773524427
C   -2.176377386449    1.979273350181   -1.422773524427
C   -2.594377386449    1.997273350181   -2.757773524427
C   -2.913377386449   -0.404726649819   -2.699773524427
C   -2.963377386449    0.808273350181   -3.398773524427
H   -1.801377386449    0.742273350181    0.300226475573
H   -1.897377386449    2.901273350181   -0.929773524427
H   -1.519377386449   -1.740726649819   -0.089773524427
H   -2.540377386449   -2.502726649819   -1.323773524427
H   -2.631377386449    2.933273350181   -3.293773524427
H   -3.201377386449   -1.326726649819   -3.189773524427
H   -3.287377386449    0.826273350181   -4.430773524427
H   -3.276295386449   -1.766216649819    0.155736475573
--
0 1
C    2.139622613551    1.815273350181   -0.462773524427
C    1.165622613551   -0.312726649819    0.543226475573
C    2.156622613551    0.684273350181    0.551226475573
C    1.155622613551   -1.324726649819    1.538226475573
C    2.161622613551   -1.334726649819    2.527226475573
C    3.147622613551    0.652273350181    1.535226475573
C    3.153622613551   -0.342726649819    2.512226475573
O    2.225622613551   -2.286726649819    3.517226475573
H    0.407622613551   -0.300726649819   -0.230773524427
H    0.386622613551   -2.086726649819    1.551226475573
H    1.909622613551    1.405273350181   -1.445773524427
H    3.125622613551    2.282273350181   -0.493773524427
H    3.915622613551    1.409273350181    1.535226475573
H    1.512622613551   -2.942726649819    3.466226475573
H    3.928622613551   -0.352726649819    3.266226475573
H    1.393312613551    2.605143350181   -0.292083524427
$end

$rem
JOBTYPE			EDA
EDA2			1
method			wB97X-V
BASIS			def2-TZVPD
XC_GRID			000099000590
NL_GRID			1
UNRESTRICTED		FALSE
MAX_SCF_CYCLES		200
SYMMETRY		FALSE
SYM_IGNORE		TRUE
MEM_STATIC		2000
BASIS_LIN_DEP_THRESH 	6
THRESH 			14
SCF_CONVERGENCE 	8
SCF_PRINT_FRGM 		TRUE
SOLVENT_METHOD          PCM
$end

$PCM
THEORY                  CPCM
METHOD                  SWIG
SOLVER                  INVERSION
RADII                   UFF
HPOINTS                 302
HEAVYPOINTS             302
PRINTLEVEL              0
$END

$SOLVENT
DIELECTRIC              78.390000 ! water
$END
--------------------------------------------------------------
 ----------------------------------------------------------------
             Standard Nuclear Orientation (Angstroms)
    I     Atom           X                Y                Z
 ----------------------------------------------------------------
    1      C      -2.4783773864    -1.6917266498    -0.5977735244
    2      C      -2.1253773864     0.7672733502    -0.7317735244
    3      C      -2.4953773864    -0.4197266498    -1.3667735244
    4      C      -2.1763773864     1.9792733502    -1.4227735244
    5      C      -2.5943773864     1.9972733502    -2.7577735244
    6      C      -2.9133773864    -0.4047266498    -2.6997735244
    7      C      -2.9633773864     0.8082733502    -3.3987735244
    8      H      -1.8013773864     0.7422733502     0.3002264756
    9      H      -1.8973773864     2.9012733502    -0.9297735244
   10      H      -1.5193773864    -1.7407266498    -0.0897735244
   11      H      -2.5403773864    -2.5027266498    -1.3237735244
   12      H      -2.6313773864     2.9332733502    -3.2937735244
   13      H      -3.2013773864    -1.3267266498    -3.1897735244
   14      H      -3.2873773864     0.8262733502    -4.4307735244
   15      H      -3.2762953864    -1.7662166498     0.1557364756
   16      C       2.1396226136     1.8152733502    -0.4627735244
   17      C       1.1656226136    -0.3127266498     0.5432264756
   18      C       2.1566226136     0.6842733502     0.5512264756
   19      C       1.1556226136    -1.3247266498     1.5382264756
   20      C       2.1616226136    -1.3347266498     2.5272264756
   21      C       3.1476226136     0.6522733502     1.5352264756
   22      C       3.1536226136    -0.3427266498     2.5122264756
   23      O       2.2256226136    -2.2867266498     3.5172264756
   24      H       0.4076226136    -0.3007266498    -0.2307735244
   25      H       0.3866226136    -2.0867266498     1.5512264756
   26      H       1.9096226136     1.4052733502    -1.4457735244
   27      H       3.1256226136     2.2822733502    -0.4937735244
   28      H       3.9156226136     1.4092733502     1.5352264756
   29      H       1.5126226136    -2.9427266498     3.4662264756
   30      H       3.9286226136    -0.3527266498     3.2662264756
   31      H       1.3933126136     2.6051433502    -0.2920835244
 ----------------------------------------------------------------
 Nuclear Repulsion Energy =         869.89258952 hartrees
 There are       54 alpha and       54 beta electrons
 Requested basis set is def2-TZVPD
 There are 276 shells and 702 basis functions

 Total QAlloc Memory Limit  96000 MB
 Mega-Array Size      1956 MB
 MEM_STATIC part      2000 MB
 Discretize the solute cavity surface with Lebedev spheres
	Using 302 Lebedev grid points for each H atom
	Using 302 Lebedev grid points for other atoms
	Atomic van der Waals radii will be scaled by 1.20
 Remove points where switching function is < 1.0e-08
 Keep 3378 surface tesserae and discard 5984 interior tesserae
 Molecular Surface Area = 334.325 Angst**2
 A cutoff of  1.0D-14 yielded  31852 shell pairs
 There are    205570 function pairs (    259270 Cartesian)
 Smallest overlap matrix eigenvalue = 4.88E-07
 Linear dependence detected in AO basis
 Tighter screening thresholds may be required for diffuse basis sets
 Use S2THRESH > 14 and THRESH = 14 in case of SCF convergence issues
 Number of orthogonalized atomic orbitals = 699
 Maximum deviation from orthogonality = 3.946E-10

 Scale SEOQF with 1.000000e-01/1.000000e-01/1.000000e-01

 Standard Electronic Orientation quadrupole field applied
 Nucleus-field energy     =    -0.0000000115 hartrees

 -----------------------------------------------------------------------
  General SCF calculation program by
  Eric Jon Sundstrom, Paul Horn, Yuezhi Mao, Dmitri Zuev, Alec White,
  David Stuck, Shaama M.S., Shane Yost, Joonho Lee, David Small,
  Daniel Levine, Susi Lehtola, Hugh Burton, Evgeny Epifanovsky
 -----------------------------------------------------------------------
================================================================
                 ALMO-EDA with the EDA2 driver                  
================================================================
 The second-generation ALMO-EDA (for DFT):                      
 P. R. Horn, Y. Mao and M. Head-Gordon, PCCP, 18, 23067 (2016)  
 Decomposition of the frozen energy:                            
 P. R. Horn, Y. Mao and M. Head-Gordon, JCP, 144, 114107 (2016) 
 FERF model for polarization:                                   
 P. R. Horn and M. Head-Gordon, JCP, 143, 114111 (2015)         
Using eda2 option set 1
Option set summary: Frozen orbital wavefunction, initial wavefunction decomposition, and nDQ polarization.
--------------------------------
Printing EDA Options
--------------------------------
eda_child_super_basis      0
fragmo_guess_mode          0
child_mp                   1
child_mp_orders            232
cls_elec                   1
cls_disp                   0
scfmi_mode                 1
scfmi_occs                 0
scfmi_virts                0
frz_relax                  0
frz_relax_method           0
dc_pen_start               0
dc_pen_conv                0
dc_pen_increment           0
dc_pen_steps               0
dc_pen_thresh_factor       0
dc_pen_pre_newton_thresh   0
frz_ortho_decomp           1
frz_ortho_decomp_conv      6
frgm_method                2
scfmi_freeze_ss            0
separate_rehyb             0
plot_diff_den              0
eda_nocv                   0
eda_vct_relax              1
disp_free_x                0
disp_free_c                0
eda_bsse                   0
eda_pct_a                  0
eda_covp                   0
--------------------------------
Attempting to make child job directory: /tmp/qchem34753//Frg1/
Attempting to make child job directory: /tmp/qchem34753//Frg2/
Creating input file /tmp/qchem34753/Frg1.input
using default PutDataFrgm: nothing
calling putenv with: QCSCRATCH=/tmp/qchem34753/ 
calling putenv with: QCLOCALSCR=/tmp/qchem34753/ 
Spawning Job For Fragment 0
                  Welcome to Q-Chem
     A Quantum Leap Into The Future Of Chemistry


 Q-Chem 5.2, Q-Chem, Inc., Pleasanton, CA (2019)

 License issued to: National Energy Research Scientific Computing Center

 Yihan Shao,  Zhengting Gan,  E. Epifanovsky,  A. T. B. Gilbert,  M. Wormit,  
 J. Kussmann,  A. W. Lange,  A. Behn,  Jia Deng,  Xintian Feng,  D. Ghosh,  
 M. Goldey,  P. R. Horn,  L. D. Jacobson,  I. Kaliman,  T. Kus,  A. Landau,  
 Jie Liu,  E. I. Proynov,  R. M. Richard,  R. P. Steele,  E. J. Sundstrom,  
 H. L. Woodcock III,  P. M. Zimmerman,  D. Zuev,  B. Albrecht,  E. Alguire,  
 S. A. Baeppler,  D. Barton,  Z. Benda,  Y. A. Bernard,  E. J. Berquist,  
 K. B. Bravaya,  H. Burton,  D. Casanova,  Chun-Min Chang,  Yunqing Chen,  
 A. Chien,  K. D. Closser,  M. P. Coons,  S. Coriani,  S. Dasgupta,  
 A. L. Dempwolff,  M. Diedenhofen,  Hainam Do,  R. G. Edgar,  Po-Tung Fang,  
 S. Faraji,  S. Fatehi,  Qingguo Feng,  K. D. Fenk,  J. Fosso-Tande,  
 J. Gayvert,  Qinghui Ge,  A. Ghysels,  G. Gidofalvi,  J. Gomes,  
 J. Gonthier,  A. Gunina,  D. Hait,  M. W. D. Hanson-Heine,  
 P. H. P. Harbach,  A. W. Hauser,  M. F. Herbst,  J. E. Herr,  
 E. G. Hohenstein,  Z. C. Holden,  Kerwin Hui,  B. C. Huynh,  T.-C. Jagau,  
 Hyunjun Ji,  B. Kaduk,  K. Khistyaev,  Jaehoon Kim,  P. Klunzinger,  K. Koh,  
 D. Kosenkov,  L. Koulias,  T. Kowalczyk,  C. M. Krauter,  A. Kunitsa,  
 Ka Un Lao,  A. Laurent,  K. V. Lawler,  Joonho Lee,  D. Lefrancois,  
 S. Lehtola,  D. S. Levine,  Yi-Pei Li,  You-Sheng Lin,  Fenglai Liu,  
 E. Livshits,  A. Luenser,  P. Manohar,  E. Mansoor,  S. F. Manzer,  
 Shan-Ping Mao,  Yuezhi Mao,  N. Mardirossian,  A. V. Marenich,  
 T. Markovich,  L. A. Martinez-Martinez,  S. A. Maurer,  N. J. Mayhall,  
 S. C. McKenzie,  J.-M. Mewes,  P. Morgante,  A. F. Morrison,  
 J. W. Mullinax,  K. Nanda,  T. S. Nguyen-Beck,  R. Olivares-Amaya,  
 J. A. Parkhill,  Zheng Pei,  T. M. Perrine,  F. Plasser,  P. Pokhilko,  
 S. Prager,  A. Prociuk,  E. Ramos,  D. R. Rehn,  F. Rob,  M. Scheurer,  
 M. Schneider,  N. Sergueev,  S. M. Sharada,  S. Sharma,  D. W. Small,  
 T. Stauch,  T. Stein,  Yu-Chuan Su,  A. J. W. Thom,  A. Tkatchenko,  
 T. Tsuchimochi,  N. M. Tubman,  L. Vogt,  M. L. Vidal,  O. Vydrov,  
 M. A. Watson,  J. Wenzel,  M. de Wergifosse,  T. A. Wesolowski,  A. White,  
 J. Witte,  A. Yamada,  Jun Yang,  K. Yao,  S. Yeganeh,  S. R. Yost,  
 Zhi-Qiang You,  A. Zech,  Igor Ying Zhang,  Xing Zhang,  Yan Zhao,  
 Ying Zhu,  B. R. Brooks,  G. K. L. Chan,  C. J. Cramer,  M. S. Gordon,  
 W. J. Hehre,  A. Klamt,  M. W. Schmidt,  C. D. Sherrill,  D. G. Truhlar,  
 A. Aspuru-Guzik,  R. Baer,  A. T. Bell,  N. A. Besley,  Jeng-Da Chai,  
 A. E. DePrince, III,  R. A. DiStasio Jr.,  A. Dreuw,  B. D. Dunietz,  
 T. R. Furlani,  Chao-Ping Hsu,  Yousung Jung,  Jing Kong,  D. S. Lambrecht,  
 WanZhen Liang,  C. Ochsenfeld,  V. A. Rassolov,  L. V. Slipchenko,  
 J. E. Subotnik,  T. Van Voorhis,  J. M. Herbert,  A. I. Krylov,  
 P. M. W. Gill,  M. Head-Gordon

 Contributors to earlier versions of Q-Chem not listed above: 
 R. D. Adamson,  B. Austin,  J. Baker,  G. J. O. Beran,  K. Brandhorst,  
 S. T. Brown,  E. F. C. Byrd,  A. K. Chakraborty,  C.-L. Cheng,  
 Siu Hung Chien,  D. M. Chipman,  D. L. Crittenden,  H. Dachsel,  
 R. J. Doerksen,  A. D. Dutoi,  L. Fusti-Molnar,  W. A. Goddard III,  
 A. Golubeva-Zadorozhnaya,  S. R. Gwaltney,  G. Hawkins,  A. Heyden,  
 S. Hirata,  G. Kedziora,  F. J. Keil,  C. Kelley,  Jihan Kim,  R. A. King,  
 R. Z. Khaliullin,  P. P. Korambath,  W. Kurlancheek,  A. M. Lee,  M. S. Lee,  
 S. V. Levchenko,  Ching Yeh Lin,  D. Liotard,  R. C. Lochan,  I. Lotan,  
 P. E. Maslen,  N. Nair,  D. P. O'Neill,  D. Neuhauser,  E. Neuscamman,  
 C. M. Oana,  R. Olson,  B. Peters,  R. Peverati,  P. A. Pieniazek,  
 Y. M. Rhee,  J. Ritchie,  M. A. Rohrdanz,  E. Rosta,  N. J. Russ,  
 H. F. Schaefer III,  N. E. Schultz,  N. Shenvi,  A. C. Simmonett,  A. Sodt,  
 D. Stuck,  K. S. Thanthiriwatte,  V. Vanovschi,  Tao Wang,  A. Warshel,  
 C. F. Williams,  Q. Wu,  X. Xu,  W. Zhang

 Please cite Q-Chem as follows:
 Y. Shao et al., Mol. Phys. 113, 184-215 (2015)
 DOI: 10.1080/00268976.2014.952696

 Q-Chem 5.2.0 for Intel X86 EM64T Linux

 Parts of Q-Chem use Armadillo 8.300.2 (Tropical Shenanigans).
 http://arma.sourceforge.net/

 Q-Chem begins on Sun Sep 26 01:42:27 2021  

Host: cori01
0

     Scratch files written to /tmp/qchem34753//Frg1//
 May1019 |scratch|qcdevops|jenkins|workspace|build_RNUM -1
Processing $rem in /global/common/cori/software/qchem/5.2/config/preferences:
	 MEM_TOTAL  96000 
NAlpha2: 50
NElect   50
Mult     1
Symmetry turned off for PCM/SM12/SMD calculation

Checking the input file for inconsistencies... 	...done.

--------------------------------------------------------------
User input:
--------------------------------------------------------------
$molecule
0 1
 6	-2.4783773864	-1.6917266498	-0.5977735244
 6	-2.1253773864	0.7672733502	-0.7317735244
 6	-2.4953773864	-0.4197266498	-1.3667735244
 6	-2.1763773864	1.9792733502	-1.4227735244
 6	-2.5943773864	1.9972733502	-2.7577735244
 6	-2.9133773864	-0.4047266498	-2.6997735244
 6	-2.9633773864	0.8082733502	-3.3987735244
 1	-1.8013773864	0.7422733502	0.3002264756
 1	-1.8973773864	2.9012733502	-0.9297735244
 1	-1.5193773864	-1.7407266498	-0.0897735244
 1	-2.5403773864	-2.5027266498	-1.3237735244
 1	-2.6313773864	2.9332733502	-3.2937735244
 1	-3.2013773864	-1.3267266498	-3.1897735244
 1	-3.2873773864	0.8262733502	-4.4307735244
 1	-3.2762953864	-1.7662166498	0.1557364756
$end
$rem
EDA2		1
METHOD		WB97X-V
BASIS		DEF2-TZVPD
XC_GRID		000099000590
NL_GRID		1
UNRESTRICTED		FALSE
MAX_SCF_CYCLES		200
SYMMETRY		FALSE
SYM_IGNORE		TRUE
BASIS_LIN_DEP_THRESH		6
THRESH		14
SCF_CONVERGENCE		8
SCF_PRINT_FRGM		TRUE
SOLVENT_METHOD		PCM
!required keywords
JOBTYPE		SP
SYM_IGNORE		TRUE
SUBSYSTEM		TRUE
GEN_SCFMAN		TRUE
CHILD_INSTRUCTION		2
SYM_IGNORE		TRUE
SCFMI		0
RI_K 0		
PARI_K 0		
MIN_PARI_K 0		
IARI_K 0		
OCC_RI_K 0		
PURECART		1111
MEM_STATIC		2000
MEM_TOTAL		96000
GUI		0
CHILD_MP		1
CHILD_MP_ORDERS		232
FRZ_RELAX		0
FRZ_RELAX_METHOD		0
EDA_CLS_ELEC		1
EDA_CLS_DISP		0
FRZ_ORTHO_DECOMP		1
EDA2		FALSE
FRGM_METHOD		FALSE
CIS_N_ROOTS  0
LOCAL_CIS    0
CIS_RLX_DNS  1
$end
$pcm
THEORY                  CPCM
METHOD                  SWIG
SOLVER                  INVERSION
RADII                   UFF
HPOINTS                 302
HEAVYPOINTS             302
PRINTLEVEL              0
$end
$solvent
DIELECTRIC              78.390000 ! water
$end
--------------------------------------------------------------
 ----------------------------------------------------------------
             Standard Nuclear Orientation (Angstroms)
    I     Atom           X                Y                Z
 ----------------------------------------------------------------
    1      C      -2.4783773864    -1.6917266498    -0.5977735244
    2      C      -2.1253773864     0.7672733502    -0.7317735244
    3      C      -2.4953773864    -0.4197266498    -1.3667735244
    4      C      -2.1763773864     1.9792733502    -1.4227735244
    5      C      -2.5943773864     1.9972733502    -2.7577735244
    6      C      -2.9133773864    -0.4047266498    -2.6997735244
    7      C      -2.9633773864     0.8082733502    -3.3987735244
    8      H      -1.8013773864     0.7422733502     0.3002264756
    9      H      -1.8973773864     2.9012733502    -0.9297735244
   10      H      -1.5193773864    -1.7407266498    -0.0897735244
   11      H      -2.5403773864    -2.5027266498    -1.3237735244
   12      H      -2.6313773864     2.9332733502    -3.2937735244
   13      H      -3.2013773864    -1.3267266498    -3.1897735244
   14      H      -3.2873773864     0.8262733502    -4.4307735244
   15      H      -3.2762953864    -1.7662166498     0.1557364756
 ----------------------------------------------------------------
 Nuclear Repulsion Energy =         269.76504391 hartrees
 There are       25 alpha and       25 beta electrons
 Requested basis set is def2-TZVPD
 There are 131 shells and 331 basis functions

 Total QAlloc Memory Limit  96000 MB
 Mega-Array Size      1956 MB
 MEM_STATIC part      2000 MB
 Discretize the solute cavity surface with Lebedev spheres
	Using 302 Lebedev grid points for each H atom
	Using 302 Lebedev grid points for other atoms
	Atomic van der Waals radii will be scaled by 1.20
 Remove points where switching function is < 1.0e-08
 Keep 1801 surface tesserae and discard 2729 interior tesserae
 Molecular Surface Area = 178.076 Angst**2

                       Distance Matrix (Angstroms)
             C (  1)   C (  2)   C (  3)   C (  4)   C (  5)   C (  6)
   C (  2)  2.487820
   C (  3)  1.486484  1.396100
   C (  4)  3.774662  1.396075  2.420764
   C (  5)  4.276421  2.416100  2.790443  1.399026
   C (  6)  2.502798  2.422303  1.397082  2.803097  2.423784
   C (  7)  3.785608  2.795857  2.419924  2.428000  1.400272  1.400882
   H (  8)  2.681248  1.081954  2.147270  2.153955  3.399300  3.398846
   H (  9)  4.641490  2.155260  3.402589  1.082116  2.155135  3.885202
   H ( 10)  1.086345  2.658846  2.080468  4.005863  4.716619  3.246572
   H ( 11)  1.090248  3.348968  2.083930  4.497846  4.723269  2.536555
   H ( 12)  5.355600  3.392851  3.869681  2.148903  1.079241  3.402147
   H ( 13)  2.715588  3.403583  2.155090  3.886200  3.406472  1.083110
   H ( 14)  4.656897  3.877670  3.401158  3.407608  2.156483  2.156756
   H ( 15)  1.100000  2.920763  2.177362  4.210725  4.808057  3.184227
             C (  7)   H (  8)   H (  9)   H ( 10)   H ( 11)   H ( 12)
   H (  8)  3.877783
   H (  9)  3.407780  2.486644
   H ( 10)  4.419504  2.529212  4.732510
   H ( 11)  3.930302  3.703177  5.456363  1.773652
   H ( 12)  2.153340  4.290247  2.475535  5.774810  5.782670
   H ( 13)  2.158367  4.291953  4.968300  3.551129  2.302575  4.299223
   H ( 14)  1.081815  4.959598  4.300549  5.344118  4.614510  2.482449
   H ( 15)  4.400052  2.913552  4.986503  1.774172  1.809136  5.865172
             H ( 13)   H ( 14)
   H ( 14)  2.486541
   H ( 15)  3.375085  5.268510
 
 A cutoff of  1.0D-14 yielded   8372 shell pairs
 There are     54536 function pairs (     69491 Cartesian)
 Smallest overlap matrix eigenvalue = 5.96E-07
 Linear dependence detected in AO basis
 Tighter screening thresholds may be required for diffuse basis sets
 Use S2THRESH > 14 and THRESH = 14 in case of SCF convergence issues
 Number of orthogonalized atomic orbitals = 330
 Maximum deviation from orthogonality = 2.482E-10

 Scale SEOQF with 1.000000e-01/1.000000e-01/1.000000e-01

 Standard Electronic Orientation quadrupole field applied
 Nucleus-field energy     =    -0.0000000054 hartrees
 Guess from superposition of atomic densities
 Warning:  Energy on first SCF cycle will be non-variational
 SAD guess density has 49.913408 electrons

 -----------------------------------------------------------------------
  General SCF calculation program by
  Eric Jon Sundstrom, Paul Horn, Yuezhi Mao, Dmitri Zuev, Alec White,
  David Stuck, Shaama M.S., Shane Yost, Joonho Lee, David Small,
  Daniel Levine, Susi Lehtola, Hugh Burton, Evgeny Epifanovsky
 -----------------------------------------------------------------------
 Exchange:     0.1670 Hartree-Fock + 1.0000 wB97X-V + LR-HF
 Correlation:  1.0000 wB97X-V
 Using Euler-Maclaurin-Lebedev (99,590) quadrature formula
 Nonlocal Correlation:  VV10 with C = 0.0100 and b = 6.00 and scale = 1.00000
 Grid used for NLC:  SG-1 standard quadrature
Energy prior to optimization (guess energy) = -271.518738906504
Begin Timing: Total SCF Calculation
begin iterations for algorithm: DIIS         
the SCF tolerance is set to 1.00e-08
    1    -271.5187389065      1.95e-03     00000 
    2    -271.5578438278      1.25e-03     00000 
    3    -271.5796365378      1.40e-04     00000 
    4    -271.5800552161      5.52e-05     00000 
    5    -271.5800972121      1.92e-05     00000 
    6    -271.5801031955      5.29e-06     00000 
    7    -271.5801037035      2.07e-06     00000 
    8    -271.5801037839      3.33e-07     00000 
    9    -271.5801037877      1.05e-07     00000 
   10    -271.5801037881      5.69e-08     00000 
   11    -271.5801037882      1.91e-08     00000 
   12    -271.5801037883      5.83e-09     00000 Convergence criterion met
Timing for Total SCF: 1458.00s (wall), 2900.49s (cpu)

************** Final PCM Free Energy Summary **************
 G_electrostatic  =      -0.00256967 hartree =      -1.61249421 kcal/mol
 G_cavitation     =       0.00000000 hartree =       0.00000000 kcal/mol
 G_dispersion     =       0.00000000 hartree =       0.00000000 kcal/mol
 G_repulsion      =       0.00000000 hartree =       0.00000000 kcal/mol
 --------------------------------------------------
 Non-electrostatic Free Energy =       0.00000000 hartree =       0.00000000 kcal/mol
 Total                         =      -0.00256967 hartree =      -1.61249421 kcal/mol
 --------------------------------------------------
 SCF Energy (H0 + V/2)                       =    -271.58010379 
 Solute Internal Energy (H0)                 =    -271.57753412 
 Total Free Energy (H0 + V/2 + non-elec)     =    -271.58010379 hartree
                                             = -170419.08726229 kcal/mol
***********************************************************

E_pcm = -0.0025696731
Multipole orders to be included
        2
        3
computing dipole RHS
computing quadrupole RHS
total number of RHS in solve_reponses: 8
RHS batch sizes
        8
Beginning Block Conjugate Gradient Iterations. Batch Number: 0
computing hessian-vector products by finite difference
              1      5.85e-01     00000 Conjugate Gradient Iteration
computing hessian-vector products by finite difference
              2      1.90e-01     00000 Conjugate Gradient Iteration
computing hessian-vector products by finite difference
              3      4.47e-02     00000 Conjugate Gradient Iteration
computing hessian-vector products by finite difference
              4      1.06e-02     00000 Conjugate Gradient Iteration
computing hessian-vector products by finite difference
              5      2.60e-03     00000 Conjugate Gradient Iteration
computing hessian-vector products by finite difference
              6      5.96e-04     00000 Conjugate Gradient Iteration
computing hessian-vector products by finite difference
              7      1.62e-04     00000 Conjugate Gradient Iteration
computing hessian-vector products by finite difference
              8      2.37e-05     00000 Conjugate Gradient Iteration
computing hessian-vector products by finite difference
              9      3.14e-06     00000 Conjugate Gradient Iteration
computing hessian-vector products by finite difference
             10      5.91e-07     00000 Conjugate Gradient Iteration
computing hessian-vector products by finite difference
             11      9.28e-08     00000 Conjugate Gradient Iteration
computing hessian-vector products by finite difference
             12      1.30e-08     00000 Conjugate Gradient Iteration
computing hessian-vector products by finite difference
             13      3.09e-09     00000 CG Converged
batch 0 complete
Done Calculating Responses
TESTING ORTHOGONALIZATION OF MULTIPOLE BASIS
Multipole virts passed orthogonality test
Virts Per Order
           75
          125
 
 --------------------------------------------------------------
 
                    Orbital Energies (a.u.)
 --------------------------------------------------------------
 
 Alpha MOs
 -- Occupied --
-10.2807 -10.2760 -10.2755 -10.2722 -10.2719 -10.2703 -10.2603  -0.9959
 -0.9091  -0.8787  -0.8125  -0.7316  -0.7041  -0.6286  -0.5752  -0.5691
 -0.5377  -0.5317  -0.5127  -0.4895  -0.4711  -0.4431  -0.4408  -0.3492
 -0.3362
 -- Virtual --
  0.0606   0.0633   0.0674   0.0792   0.0844   0.1044   0.1101   0.1132
  0.1352   0.1531   0.1656   0.1703   0.1829   0.1904   0.1939   0.1992
  0.2228   0.2268   0.2321   0.2401   0.2484   0.2565   0.2590   0.2697
  0.2792   0.2832   0.2855   0.2895   0.2931   0.2994   0.3029   0.3122
  0.3228   0.3244   0.3297   0.3388   0.3514   0.3532   0.3666   0.3723
  0.3752   0.3809   0.3862   0.3899   0.3915   0.3992   0.4029   0.4040
  0.4135   0.4281   0.4292   0.4343   0.4395   0.4461   0.4500   0.4578
  0.4645   0.4721   0.4780   0.4846   0.4907   0.4951   0.5115   0.5140
  0.5173   0.5224   0.5342   0.5403   0.5429   0.5484   0.5526   0.5685
  0.5737   0.5812   0.5897   0.5960   0.6017   0.6225   0.6343   0.6418
  0.6677   0.6724   0.6817   0.6858   0.6901   0.7017   0.7183   0.7204
  0.7274   0.7307   0.7435   0.7576   0.7629   0.7638   0.7716   0.7836
  0.7872   0.7917   0.7955   0.8015   0.8090   0.8232   0.8246   0.8280
  0.8309   0.8347   0.8484   0.8554   0.8611   0.8681   0.8841   0.8962
  0.9120   0.9218   0.9344   0.9484   0.9518   1.0026   1.0262   1.0396
  1.0441   1.0611   1.0671   1.0722   1.0870   1.0968   1.1000   1.1424
  1.1617   1.1772   1.2633   1.2734   1.2943   1.3260   1.3490   1.3562
  1.3707   1.4360   1.4481   1.4528   1.4578   1.4789   1.5273   1.5307
  1.6019   1.6081   1.6192   1.6249   1.6511   1.6715   1.7311   1.7658
  1.7816   1.7884   1.8043   1.8149   1.8280   1.8588   1.8832   1.9102
  1.9125   1.9237   1.9337   1.9658   1.9884   1.9958   2.0094   2.0237
  2.0323   2.0411   2.0666   2.0854   2.1078   2.1205   2.1725   2.1877
  2.1939   2.2365   2.2576   2.2803   2.2911   2.3065   2.3886   2.3963
  2.4012   2.4187   2.4714   2.5141   2.5462   2.5536   2.5551   2.5859
  2.6078   2.6466   2.6588   2.6786   2.6935   2.7107   2.7484   2.7660
  2.7792   2.8029   2.8099   2.8421   2.8673   2.8945   2.9074   2.9148
  2.9285   2.9367   2.9746   2.9765   2.9861   3.0149   3.0216   3.0470
  3.0617   3.0795   3.0935   3.1342   3.1712   3.1889   3.2007   3.2172
  3.2308   3.2528   3.2830   3.2900   3.3432   3.3618   3.3685   3.3786
  3.4004   3.4312   3.4480   3.4492   3.4672   3.4765   3.4815   3.4962
  3.5036   3.5282   3.5373   3.5406   3.5487   3.5681   3.5776   3.6000
  3.6245   3.6261   3.6550   3.6872   3.7160   3.7373   3.7662   3.8059
  3.8522   3.9014   3.9188   3.9424   3.9689   3.9995   4.0302   4.0441
  4.1197   4.2020   4.2555   4.2691   4.2808   4.3062   4.3148   4.3265
  4.3420   4.3529   4.3777   4.3967   4.4154   4.4346   4.4725   4.5286
  4.6068   4.6205   4.7625   4.7862   4.8155   4.8747   4.9057   4.9426
  5.0082   5.0514   5.1661   5.2551   5.3477   5.3657   5.5002   5.5349
  5.6488   5.8462  22.5845  22.7039  22.8638  22.8793  22.9864  23.0553
 23.4022
 --------------------------------------------------------------
 
          Ground-State Mulliken Net Atomic Charges

     Atom                 Charge (a.u.)
  ----------------------------------------
      1 C                    -0.997956
      2 C                    -0.326896
      3 C                     0.924321
      4 C                    -0.499134
      5 C                    -0.470813
      6 C                    -0.420570
      7 C                    -0.540529
      8 H                     0.335333
      9 H                     0.315929
     10 H                     0.250698
     11 H                     0.272104
     12 H                     0.336805
     13 H                     0.286542
     14 H                     0.313995
     15 H                     0.220169
  ----------------------------------------
  Sum of atomic charges =     0.000000

 -----------------------------------------------------------------
                    Cartesian Multipole Moments
 -----------------------------------------------------------------
    Charge (ESU x 10^10)
                 0.0000
    Dipole Moment (Debye)
         X       0.0023      Y      -0.3837      Z       0.3072
       Tot       0.4916
    Quadrupole Moments (Debye-Ang)
        XX     -45.5545     XY       2.0563     YY     -38.8889
        XZ       1.4831     YZ       0.5367     ZZ     -39.8660
    Octopole Moments (Debye-Ang^2)
       XXX     346.6261    XXY     -27.5863    XYY     100.1350
       YYY     -38.0393    XXZ      75.5208    XYZ      -1.4045
       YYZ      68.5393    XZZ      90.8023    YZZ     -14.4026
       ZZZ     213.1661
    Hexadecapole Moments (Debye-Ang^3)
      XXXX   -1850.9521   XXXY     161.4026   XXYY    -375.2289
      XYYY      92.1905   YYYY    -539.4053   XXXZ    -649.0122
      XXYZ      64.2424   XYYZ    -184.3422   YYYZ     143.2933
      XXZZ    -438.4845   XYZZ      30.1194   YYZZ    -270.1031
      XZZZ    -533.4785   YZZZ     143.3677   ZZZZ   -1116.9278
 -----------------------------------------------------------------
Archival summary:
1\1\nid00529\SP\ProcedureUnspecified\BasisUnspecified\78\meili\SunSep2609:51:072021SunSep2609:51:072021\0\\#,ProcedureUnspecified,BasisUnspecified,\\0,1\C\C,1,1.3961\H,2,1.08195,1,119.575\C,2,1.39608,1,120.219,3,-179.835,0\H,4,1.08212,2,120.316,1,179.518,0\C,1,1.39708,2,120.274,3,-179.868,0\H,6,1.08311,1,120.137,2,-179.906,0\C,4,1.39903,2,119.63,1,-0.305299,0\H,8,1.07924,4,119.691,2,-179.819,0\C,8,1.40027,4,120.307,2,0.162808,0\H,10,1.08182,8,120.098,4,179.916,0\C,1,1.48648,2,119.289,3,1.94371,0\H,12,1.08635,1,106.894,2,-48.7289,0\H,12,1.09025,1,106.941,2,-165.531,0\H,12,1.1,1,113.83,2,71.0255,0\\\@

 Total job time:  29323.27s(wall), 57924.88s(cpu) 
 Sun Sep 26 09:51:10 2021

        *************************************************************
        *                                                           *
        *  Thank you very much for using Q-Chem.  Have a nice day.  *
        *                                                           *
        *************************************************************


Done Job For Fragment 0
calling putenv with: QCSCRATCH=/global/cscratch1/sd/meili 
calling putenv with: QCLOCALSCR=/tmp 
calling putenv with: QCTHREADS=32 
Creating input file /tmp/qchem34753/Frg2.input
using default PutDataFrgm: nothing
calling putenv with: QCSCRATCH=/tmp/qchem34753/ 
calling putenv with: QCLOCALSCR=/tmp/qchem34753/ 
Spawning Job For Fragment 1
                  Welcome to Q-Chem
     A Quantum Leap Into The Future Of Chemistry


 Q-Chem 5.2, Q-Chem, Inc., Pleasanton, CA (2019)

 License issued to: National Energy Research Scientific Computing Center

 Yihan Shao,  Zhengting Gan,  E. Epifanovsky,  A. T. B. Gilbert,  M. Wormit,  
 J. Kussmann,  A. W. Lange,  A. Behn,  Jia Deng,  Xintian Feng,  D. Ghosh,  
 M. Goldey,  P. R. Horn,  L. D. Jacobson,  I. Kaliman,  T. Kus,  A. Landau,  
 Jie Liu,  E. I. Proynov,  R. M. Richard,  R. P. Steele,  E. J. Sundstrom,  
 H. L. Woodcock III,  P. M. Zimmerman,  D. Zuev,  B. Albrecht,  E. Alguire,  
 S. A. Baeppler,  D. Barton,  Z. Benda,  Y. A. Bernard,  E. J. Berquist,  
 K. B. Bravaya,  H. Burton,  D. Casanova,  Chun-Min Chang,  Yunqing Chen,  
 A. Chien,  K. D. Closser,  M. P. Coons,  S. Coriani,  S. Dasgupta,  
 A. L. Dempwolff,  M. Diedenhofen,  Hainam Do,  R. G. Edgar,  Po-Tung Fang,  
 S. Faraji,  S. Fatehi,  Qingguo Feng,  K. D. Fenk,  J. Fosso-Tande,  
 J. Gayvert,  Qinghui Ge,  A. Ghysels,  G. Gidofalvi,  J. Gomes,  
 J. Gonthier,  A. Gunina,  D. Hait,  M. W. D. Hanson-Heine,  
 P. H. P. Harbach,  A. W. Hauser,  M. F. Herbst,  J. E. Herr,  
 E. G. Hohenstein,  Z. C. Holden,  Kerwin Hui,  B. C. Huynh,  T.-C. Jagau,  
 Hyunjun Ji,  B. Kaduk,  K. Khistyaev,  Jaehoon Kim,  P. Klunzinger,  K. Koh,  
 D. Kosenkov,  L. Koulias,  T. Kowalczyk,  C. M. Krauter,  A. Kunitsa,  
 Ka Un Lao,  A. Laurent,  K. V. Lawler,  Joonho Lee,  D. Lefrancois,  
 S. Lehtola,  D. S. Levine,  Yi-Pei Li,  You-Sheng Lin,  Fenglai Liu,  
 E. Livshits,  A. Luenser,  P. Manohar,  E. Mansoor,  S. F. Manzer,  
 Shan-Ping Mao,  Yuezhi Mao,  N. Mardirossian,  A. V. Marenich,  
 T. Markovich,  L. A. Martinez-Martinez,  S. A. Maurer,  N. J. Mayhall,  
 S. C. McKenzie,  J.-M. Mewes,  P. Morgante,  A. F. Morrison,  
 J. W. Mullinax,  K. Nanda,  T. S. Nguyen-Beck,  R. Olivares-Amaya,  
 J. A. Parkhill,  Zheng Pei,  T. M. Perrine,  F. Plasser,  P. Pokhilko,  
 S. Prager,  A. Prociuk,  E. Ramos,  D. R. Rehn,  F. Rob,  M. Scheurer,  
 M. Schneider,  N. Sergueev,  S. M. Sharada,  S. Sharma,  D. W. Small,  
 T. Stauch,  T. Stein,  Yu-Chuan Su,  A. J. W. Thom,  A. Tkatchenko,  
 T. Tsuchimochi,  N. M. Tubman,  L. Vogt,  M. L. Vidal,  O. Vydrov,  
 M. A. Watson,  J. Wenzel,  M. de Wergifosse,  T. A. Wesolowski,  A. White,  
 J. Witte,  A. Yamada,  Jun Yang,  K. Yao,  S. Yeganeh,  S. R. Yost,  
 Zhi-Qiang You,  A. Zech,  Igor Ying Zhang,  Xing Zhang,  Yan Zhao,  
 Ying Zhu,  B. R. Brooks,  G. K. L. Chan,  C. J. Cramer,  M. S. Gordon,  
 W. J. Hehre,  A. Klamt,  M. W. Schmidt,  C. D. Sherrill,  D. G. Truhlar,  
 A. Aspuru-Guzik,  R. Baer,  A. T. Bell,  N. A. Besley,  Jeng-Da Chai,  
 A. E. DePrince, III,  R. A. DiStasio Jr.,  A. Dreuw,  B. D. Dunietz,  
 T. R. Furlani,  Chao-Ping Hsu,  Yousung Jung,  Jing Kong,  D. S. Lambrecht,  
 WanZhen Liang,  C. Ochsenfeld,  V. A. Rassolov,  L. V. Slipchenko,  
 J. E. Subotnik,  T. Van Voorhis,  J. M. Herbert,  A. I. Krylov,  
 P. M. W. Gill,  M. Head-Gordon

 Contributors to earlier versions of Q-Chem not listed above: 
 R. D. Adamson,  B. Austin,  J. Baker,  G. J. O. Beran,  K. Brandhorst,  
 S. T. Brown,  E. F. C. Byrd,  A. K. Chakraborty,  C.-L. Cheng,  
 Siu Hung Chien,  D. M. Chipman,  D. L. Crittenden,  H. Dachsel,  
 R. J. Doerksen,  A. D. Dutoi,  L. Fusti-Molnar,  W. A. Goddard III,  
 A. Golubeva-Zadorozhnaya,  S. R. Gwaltney,  G. Hawkins,  A. Heyden,  
 S. Hirata,  G. Kedziora,  F. J. Keil,  C. Kelley,  Jihan Kim,  R. A. King,  
 R. Z. Khaliullin,  P. P. Korambath,  W. Kurlancheek,  A. M. Lee,  M. S. Lee,  
 S. V. Levchenko,  Ching Yeh Lin,  D. Liotard,  R. C. Lochan,  I. Lotan,  
 P. E. Maslen,  N. Nair,  D. P. O'Neill,  D. Neuhauser,  E. Neuscamman,  
 C. M. Oana,  R. Olson,  B. Peters,  R. Peverati,  P. A. Pieniazek,  
 Y. M. Rhee,  J. Ritchie,  M. A. Rohrdanz,  E. Rosta,  N. J. Russ,  
 H. F. Schaefer III,  N. E. Schultz,  N. Shenvi,  A. C. Simmonett,  A. Sodt,  
 D. Stuck,  K. S. Thanthiriwatte,  V. Vanovschi,  Tao Wang,  A. Warshel,  
 C. F. Williams,  Q. Wu,  X. Xu,  W. Zhang

 Please cite Q-Chem as follows:
 Y. Shao et al., Mol. Phys. 113, 184-215 (2015)
 DOI: 10.1080/00268976.2014.952696

 Q-Chem 5.2.0 for Intel X86 EM64T Linux

 Parts of Q-Chem use Armadillo 8.300.2 (Tropical Shenanigans).
 http://arma.sourceforge.net/

 Q-Chem begins on Sun Sep 26 09:51:14 2021  

Host: cori01
0

     Scratch files written to /tmp/qchem34753//Frg2//
 May1019 |scratch|qcdevops|jenkins|workspace|build_RNUM -1
Processing $rem in /global/common/cori/software/qchem/5.2/config/preferences:
	 MEM_TOTAL  96000 
NAlpha2: 58
NElect   58
Mult     1
Symmetry turned off for PCM/SM12/SMD calculation

Checking the input file for inconsistencies... 	...done.

--------------------------------------------------------------
User input:
--------------------------------------------------------------
$molecule
0 1
 6	2.1396226136	1.8152733502	-0.4627735244
 6	1.1656226136	-0.3127266498	0.5432264756
 6	2.1566226136	0.6842733502	0.5512264756
 6	1.1556226136	-1.3247266498	1.5382264756
 6	2.1616226136	-1.3347266498	2.5272264756
 6	3.1476226136	0.6522733502	1.5352264756
 6	3.1536226136	-0.3427266498	2.5122264756
 8	2.2256226136	-2.2867266498	3.5172264756
 1	0.4076226136	-0.3007266498	-0.2307735244
 1	0.3866226136	-2.0867266498	1.5512264756
 1	1.9096226136	1.4052733502	-1.4457735244
 1	3.1256226136	2.2822733502	-0.4937735244
 1	3.9156226136	1.4092733502	1.5352264756
 1	1.5126226136	-2.9427266498	3.4662264756
 1	3.9286226136	-0.3527266498	3.2662264756
 1	1.3933126136	2.6051433502	-0.2920835244
$end
$rem
EDA2		1
METHOD		WB97X-V
BASIS		DEF2-TZVPD
XC_GRID		000099000590
NL_GRID		1
UNRESTRICTED		FALSE
MAX_SCF_CYCLES		200
SYMMETRY		FALSE
SYM_IGNORE		TRUE
BASIS_LIN_DEP_THRESH		6
THRESH		14
SCF_CONVERGENCE		8
SCF_PRINT_FRGM		TRUE
SOLVENT_METHOD		PCM
!required keywords
JOBTYPE		SP
SYM_IGNORE		TRUE
SUBSYSTEM		TRUE
GEN_SCFMAN		TRUE
CHILD_INSTRUCTION		2
SYM_IGNORE		TRUE
SCFMI		0
RI_K 0		
PARI_K 0		
MIN_PARI_K 0		
IARI_K 0		
OCC_RI_K 0		
PURECART		1111
MEM_STATIC		2000
MEM_TOTAL		96000
GUI		0
CHILD_MP		1
CHILD_MP_ORDERS		232
FRZ_RELAX		0
FRZ_RELAX_METHOD		0
EDA_CLS_ELEC		1
EDA_CLS_DISP		0
FRZ_ORTHO_DECOMP		1
EDA2		FALSE
FRGM_METHOD		FALSE
CIS_N_ROOTS  0
LOCAL_CIS    0
CIS_RLX_DNS  1
$end
$pcm
THEORY                  CPCM
METHOD                  SWIG
SOLVER                  INVERSION
RADII                   UFF
HPOINTS                 302
HEAVYPOINTS             302
PRINTLEVEL              0
$end
$solvent
DIELECTRIC              78.390000 ! water
$end
--------------------------------------------------------------
 ----------------------------------------------------------------
             Standard Nuclear Orientation (Angstroms)
    I     Atom           X                Y                Z
 ----------------------------------------------------------------
    1      C       2.1396226136     1.8152733502    -0.4627735244
    2      C       1.1656226136    -0.3127266498     0.5432264756
    3      C       2.1566226136     0.6842733502     0.5512264756
    4      C       1.1556226136    -1.3247266498     1.5382264756
    5      C       2.1616226136    -1.3347266498     2.5272264756
    6      C       3.1476226136     0.6522733502     1.5352264756
    7      C       3.1536226136    -0.3427266498     2.5122264756
    8      O       2.2256226136    -2.2867266498     3.5172264756
    9      H       0.4076226136    -0.3007266498    -0.2307735244
   10      H       0.3866226136    -2.0867266498     1.5512264756
   11      H       1.9096226136     1.4052733502    -1.4457735244
   12      H       3.1256226136     2.2822733502    -0.4937735244
   13      H       3.9156226136     1.4092733502     1.5352264756
   14      H       1.5126226136    -2.9427266498     3.4662264756
   15      H       3.9286226136    -0.3527266498     3.2662264756
   16      H       1.3933126136     2.6051433502    -0.2920835244
 ----------------------------------------------------------------
 Nuclear Repulsion Energy =         340.36120253 hartrees
 There are       29 alpha and       29 beta electrons
 Requested basis set is def2-TZVPD
 There are 145 shells and 371 basis functions

 Total QAlloc Memory Limit  96000 MB
 Mega-Array Size      1956 MB
 MEM_STATIC part      2000 MB
 Discretize the solute cavity surface with Lebedev spheres
	Using 302 Lebedev grid points for each H atom
	Using 302 Lebedev grid points for other atoms
	Atomic van der Waals radii will be scaled by 1.20
 Remove points where switching function is < 1.0e-08
 Keep 1829 surface tesserae and discard 3003 interior tesserae
 Molecular Surface Area = 191.309 Angst**2
 A cutoff of  1.0D-14 yielded  10033 shell pairs
 There are     66987 function pairs (     85656 Cartesian)
 Smallest overlap matrix eigenvalue = 6.25E-07
 Linear dependence detected in AO basis
 Tighter screening thresholds may be required for diffuse basis sets
 Use S2THRESH > 14 and THRESH = 14 in case of SCF convergence issues
 Number of orthogonalized atomic orbitals = 370
 Maximum deviation from orthogonality = 2.300E-10

 Scale SEOQF with 1.000000e-01/1.000000e-01/1.000000e-01

 Standard Electronic Orientation quadrupole field applied
 Nucleus-field energy     =    -0.0000000061 hartrees
 Guess from superposition of atomic densities
 Warning:  Energy on first SCF cycle will be non-variational
 SAD guess density has 57.738434 electrons

 -----------------------------------------------------------------------
  General SCF calculation program by
  Eric Jon Sundstrom, Paul Horn, Yuezhi Mao, Dmitri Zuev, Alec White,
  David Stuck, Shaama M.S., Shane Yost, Joonho Lee, David Small,
  Daniel Levine, Susi Lehtola, Hugh Burton, Evgeny Epifanovsky
 -----------------------------------------------------------------------
 Exchange:     0.1670 Hartree-Fock + 1.0000 wB97X-V + LR-HF
 Correlation:  1.0000 wB97X-V
 Using Euler-Maclaurin-Lebedev (99,590) quadrature formula
 Nonlocal Correlation:  VV10 with C = 0.0100 and b = 6.00 and scale = 1.00000
 Grid used for NLC:  SG-1 standard quadrature
Energy prior to optimization (guess energy) = -346.495569204527
Begin Timing: Total SCF Calculation
begin iterations for algorithm: DIIS         
the SCF tolerance is set to 1.00e-08
    1    -346.4955692045      5.17e-03     00000 
    2    -346.4165070499      5.68e-03     00000 
    3    -346.8105488380      5.36e-04     00000 
    4    -346.8147493782      1.82e-04     00000 
    5    -346.8153721366      2.57e-05     00000 
    6    -346.8153930884      1.29e-05     00000 
    7    -346.8153965277      3.87e-06     00000 
    8    -346.8153969543      1.29e-06     00000 
    9    -346.8153970121      6.00e-07     00000 
   10    -346.8153970228      1.41e-07     00000 
   11    -346.8153970245      6.96e-08     00000 
   12    -346.8153970248      3.19e-08     00000 
   13    -346.8153970249      6.55e-09     00000 Convergence criterion met
Timing for Total SCF: 2104.00s (wall), 4183.47s (cpu)

************** Final PCM Free Energy Summary **************
 G_electrostatic  =      -0.00579234 hartree =      -3.63474587 kcal/mol
 G_cavitation     =       0.00000000 hartree =       0.00000000 kcal/mol
 G_dispersion     =       0.00000000 hartree =       0.00000000 kcal/mol
 G_repulsion      =       0.00000000 hartree =       0.00000000 kcal/mol
 --------------------------------------------------
 Non-electrostatic Free Energy =       0.00000000 hartree =       0.00000000 kcal/mol
 Total                         =      -0.00579234 hartree =      -3.63474587 kcal/mol
 --------------------------------------------------
 SCF Energy (H0 + V/2)                       =    -346.81539702 
 Solute Internal Energy (H0)                 =    -346.80960469 
 Total Free Energy (H0 + V/2 + non-elec)     =    -346.81539702 hartree
                                             = -217629.94632172 kcal/mol
***********************************************************

E_pcm = -0.0057923363
Multipole orders to be included
        2
        3
computing dipole RHS
computing quadrupole RHS
total number of RHS in solve_reponses: 8
RHS batch sizes
        8
Beginning Block Conjugate Gradient Iterations. Batch Number: 0
computing hessian-vector products by finite difference
              1      5.70e-01     00000 Conjugate Gradient Iteration
computing hessian-vector products by finite difference
              2      1.74e-01     00000 Conjugate Gradient Iteration
computing hessian-vector products by finite difference
              3      4.53e-02     00000 Conjugate Gradient Iteration
computing hessian-vector products by finite difference
              4      1.29e-02     00000 Conjugate Gradient Iteration
computing hessian-vector products by finite difference
              5      3.90e-03     00000 Conjugate Gradient Iteration
computing hessian-vector products by finite difference
              6      1.43e-03     00000 Conjugate Gradient Iteration
computing hessian-vector products by finite difference
              7      3.51e-04     00000 Conjugate Gradient Iteration
computing hessian-vector products by finite difference
              8      6.66e-05     00000 Conjugate Gradient Iteration
computing hessian-vector products by finite difference
              9      1.20e-05     00000 Conjugate Gradient Iteration
computing hessian-vector products by finite difference
             10      1.58e-06     00000 Conjugate Gradient Iteration
computing hessian-vector products by finite difference
             11      2.59e-07     00000 Conjugate Gradient Iteration
computing hessian-vector products by finite difference
             12      6.10e-08     00000 Conjugate Gradient Iteration
computing hessian-vector products by finite difference
             13      1.04e-08     00000 Conjugate Gradient Iteration
computing hessian-vector products by finite difference
             14      3.09e-09     00000 CG Converged
batch 0 complete
Done Calculating Responses
TESTING ORTHOGONALIZATION OF MULTIPOLE BASIS
Multipole virts passed orthogonality test
Virts Per Order
           87
          145
 
 --------------------------------------------------------------
 
                    Orbital Energies (a.u.)
 --------------------------------------------------------------
 
 Alpha MOs
 -- Occupied --
-19.2474 -10.3415 -10.2812 -10.2804 -10.2802 -10.2756 -10.2736 -10.2628
 -1.1900  -0.9911  -0.8996  -0.8814  -0.8106  -0.7481  -0.7141  -0.6642
 -0.5992  -0.5811  -0.5534  -0.5362  -0.5330  -0.5165  -0.5109  -0.4795
 -0.4577  -0.4430  -0.4400  -0.3514  -0.3138
 -- Virtual --
  0.0556   0.0574   0.0678   0.0750   0.0831   0.0938   0.1085   0.1100
  0.1135   0.1306   0.1434   0.1515   0.1552   0.1698   0.1764   0.1919
  0.1953   0.2030   0.2137   0.2238   0.2334   0.2379   0.2482   0.2519
  0.2609   0.2660   0.2708   0.2740   0.2783   0.2925   0.2934   0.3019
  0.3038   0.3072   0.3098   0.3226   0.3324   0.3364   0.3410   0.3467
  0.3515   0.3547   0.3598   0.3694   0.3730   0.3783   0.3809   0.3876
  0.3918   0.3944   0.3982   0.4047   0.4082   0.4155   0.4243   0.4288
  0.4331   0.4496   0.4534   0.4619   0.4692   0.4698   0.4743   0.4791
  0.4826   0.4916   0.4940   0.4964   0.5074   0.5130   0.5247   0.5348
  0.5385   0.5424   0.5481   0.5532   0.5599   0.5684   0.5791   0.5903
  0.6001   0.6035   0.6129   0.6296   0.6362   0.6551   0.6620   0.6726
  0.6757   0.6849   0.6871   0.6898   0.6924   0.7005   0.7167   0.7250
  0.7279   0.7322   0.7452   0.7481   0.7575   0.7670   0.7772   0.7854
  0.7870   0.7888   0.7931   0.7960   0.8029   0.8111   0.8235   0.8322
  0.8381   0.8455   0.8506   0.8533   0.8637   0.8685   0.8805   0.8877
  0.8987   0.9111   0.9248   0.9452   0.9568   0.9762   0.9930   1.0106
  1.0127   1.0306   1.0342   1.0445   1.0544   1.0650   1.0704   1.0824
  1.0982   1.1105   1.1367   1.1699   1.1877   1.2304   1.2631   1.2901
  1.3023   1.3036   1.3252   1.3459   1.3599   1.3818   1.3922   1.4286
  1.4470   1.4563   1.4651   1.4787   1.5197   1.5529   1.5960   1.6176
  1.6245   1.6331   1.6809   1.6829   1.6918   1.7228   1.7730   1.7932
  1.8145   1.8206   1.8290   1.8535   1.8600   1.8738   1.9121   1.9186
  1.9297   1.9482   1.9629   1.9783   1.9891   2.0210   2.0431   2.0481
  2.0517   2.0696   2.0830   2.0985   2.1086   2.1628   2.1906   2.1939
  2.2105   2.2365   2.2577   2.2710   2.2864   2.3108   2.3404   2.3626
  2.3873   2.3923   2.4265   2.4498   2.4906   2.5003   2.5108   2.5450
  2.5615   2.5955   2.6180   2.6450   2.6504   2.6654   2.6821   2.7280
  2.7422   2.7494   2.7676   2.7824   2.8048   2.8241   2.8617   2.8699
  2.8927   2.9102   2.9302   2.9348   2.9537   2.9712   2.9720   2.9939
  3.0124   3.0292   3.0500   3.0636   3.0798   3.1120   3.1444   3.1554
  3.1691   3.1836   3.2039   3.2199   3.2455   3.2601   3.2825   3.2876
  3.3179   3.3372   3.3744   3.3807   3.3845   3.3874   3.4359   3.4466
  3.4570   3.4641   3.4780   3.4977   3.5099   3.5179   3.5258   3.5351
  3.5457   3.5625   3.5685   3.5865   3.5914   3.6137   3.6323   3.6624
  3.6707   3.6863   3.7289   3.7540   3.7948   3.8130   3.8316   3.8932
  3.9263   3.9455   3.9571   3.9728   4.0164   4.0687   4.1009   4.1219
  4.2295   4.2456   4.2752   4.2919   4.3027   4.3034   4.3156   4.3304
  4.3551   4.3576   4.4082   4.4368   4.4561   4.4928   4.5863   4.6098
  4.7040   4.7128   4.7617   4.7746   4.8491   4.9149   5.0017   5.0393
  5.0684   5.1296   5.1394   5.2776   5.2899   5.3675   5.4214   5.5257
  5.5981   5.6084   5.6805   5.7548   5.9189   6.1883   6.4398   6.5808
  6.6176   6.8636   6.9682   7.3058   7.4429  22.6537  22.6669  22.8963
 22.9317  22.9943  23.1181  23.4328  44.4042
 --------------------------------------------------------------
 
          Ground-State Mulliken Net Atomic Charges

     Atom                 Charge (a.u.)
  ----------------------------------------
      1 C                    -1.033653
      2 C                    -0.559491
      3 C                     0.636003
      4 C                    -0.471507
      5 C                     0.740247
      6 C                    -0.430013
      7 C                    -0.697797
      8 O                    -0.482563
      9 H                     0.333587
     10 H                     0.277166
     11 H                     0.261311
     12 H                     0.268366
     13 H                     0.300477
     14 H                     0.306625
     15 H                     0.335465
     16 H                     0.215777
  ----------------------------------------
  Sum of atomic charges =     0.000000

 -----------------------------------------------------------------
                    Cartesian Multipole Moments
 -----------------------------------------------------------------
    Charge (ESU x 10^10)
                 0.0000
    Dipole Moment (Debye)
         X      -1.3910      Y      -0.3199      Z      -0.9613
       Tot       1.7209
    Quadrupole Moments (Debye-Ang)
        XX     -51.0970     XY       6.3229     YY     -42.1616
        XZ      -4.0060     YZ      -2.9736     ZZ     -52.1987
    Octopole Moments (Debye-Ang^2)
       XXX    -311.1538    XXY      38.1419    XYY    -106.5005
       YYY      16.0601    XXZ     -77.3556    XYZ      12.2472
       YYZ     -55.0211    XZZ    -121.5587    YZZ       6.1175
       ZZZ    -233.3052
    Hexadecapole Moments (Debye-Ang^3)
      XXXX   -1546.6195   XXXY     126.7628   XXYY    -384.2441
      XYYY      40.5867   YYYY    -512.6087   XXXZ    -490.7742
      XXYZ     144.2584   XYYZ    -184.6190   YYYZ     187.0456
      XXZZ    -493.5991   XYZZ      55.1217   YYZZ    -252.4718
      XZZZ    -580.4806   YZZZ     259.0944   ZZZZ   -1268.7236
 -----------------------------------------------------------------
Archival summary:
1\1\nid00529\SP\ProcedureUnspecified\BasisUnspecified\178\meili\SunSep2621:28:092021SunSep2621:28:092021\0\\#,ProcedureUnspecified,BasisUnspecified,\\0,1\C\O,1,1.37495\H,2,0.970209,1,113.334\C,1,1.40298,2,117.668,3,-179.765,0\H,4,1.08131,1,119.523,2,-0.0021417,0\C,4,1.39449,1,120.594,2,179.979,0\H,6,1.07837,4,119.856,1,179.968,0\C,6,1.39691,4,120.859,1,-0.0118221,0\C,8,1.40576,6,119.201,4,-0.782329,0\H,9,1.08341,8,119.303,6,-178.803,0\C,1,1.41076,2,122.879,3,-0.143143,0\H,11,1.08267,1,119.544,2,0.67922,0\C,8,1.51909,6,119.682,4,177.278,0\H,13,1.08963,8,108.929,6,138.55,0\H,13,1.09144,8,109.112,6,19.6259,0\H,13,1.1,8,116.016,6,-102.671,0\\\@

 Total job time:  41819.47s(wall), 82881.41s(cpu) 
 Sun Sep 26 21:28:13 2021

        *************************************************************
        *                                                           *
        *  Thank you very much for using Q-Chem.  Have a nice day.  *
        *                                                           *
        *************************************************************


Done Job For Fragment 1
calling putenv with: QCSCRATCH=/global/cscratch1/sd/meili 
calling putenv with: QCLOCALSCR=/tmp 
calling putenv with: QCTHREADS=32 
Doing General SCFMI
 Exchange:     0.1670 Hartree-Fock + 1.0000 wB97X-V + LR-HF
 Correlation:  1.0000 wB97X-V
 Using Euler-Maclaurin-Lebedev (99,590) quadrature formula
 Nonlocal Correlation:  VV10 with C = 0.0100 and b = 6.00 and scale = 1.00000
 Grid used for NLC:  SG-1 standard quadrature
performing fock build before subrot guess so that all methods have access
Printing subrot_rss_gen Method Specification:
Occupied Subspace Method is 0
Virtual Subspace Method is 0
Energy of the unrelaxed supersystem initial determinant -618.389557120750
performing fock build before subrot guess so that all methods have access
Printing subrot_rss_gen Method Specification:
Occupied Subspace Method is 0
Virtual Subspace Method is 0
Energy of the unrelaxed supersystem initial determinant w/ solvent -618.397412881021
write pseudocanon occs and virts to disk
write pseudocanon orbital energies to disk
Tolerance of ortho_decomp_scf: 1.00e-06
GDM subspace size: 20
Beginning the Orthogonal Decomposition of the Initial Supersystem Wavefunction
    1    -618.3752489712      1.46e-02     ortho_decomp Preconditoned Steepest Descent
    2    -618.3763634139      3.61e-04     ortho_decomp BFGS Step
    3    -618.3763667126      2.62e-05     ortho_decomp BFGS Step
    4    -618.3763667185      1.04e-06     ortho_decomp BFGS Step
    5    -618.3763667185      3.27e-08     ortho_decomp 00000 Convergence criterion met
 Hartree-Fock
 Hartree-Fock
 Hartree-Fock
Doing General SCFMI
 Exchange:     0.1670 Hartree-Fock + 1.0000 wB97X-V + LR-HF
 Correlation:  1.0000 wB97X-V
 Using Euler-Maclaurin-Lebedev (99,590) quadrature formula
 Nonlocal Correlation:  VV10 with C = 0.0100 and b = 6.00 and scale = 1.00000
 Grid used for NLC:  SG-1 standard quadrature
performing fock build at end of subrot_r(subrot) constructor so that all methods have access
<S^2> of initial wavefunction before polarization iterations 0.0000000000
Beginning iterations for the determination of the polarized wavefunction
Energy prior to optimization (guess energy) = -618.397412881021
Begin Timing: Total SCF Calculation
begin iterations for algorithm: DIIS         
the SCF tolerance is set to 1.00e-08
    1    -618.3974128810      4.33e-05     00000 
    2    -618.3976750515      1.53e-05     00000 
    3    -618.3976981652      7.98e-06     00000 
    4    -618.3977041355      3.14e-06     00000 
    5    -618.3977052520      1.44e-06     00000 
    6    -618.3977055592      6.07e-07     00000 
    7    -618.3977056030      2.30e-07     00000 
    8    -618.3977056079      1.00e-07     00000 
    9    -618.3977056086      3.88e-08     00000 
   10    -618.3977056087      1.84e-08     00000 
   11    -618.3977056087      9.81e-09     00000 Convergence criterion met
write pseudocanon occs and virts to disk
write pseudocanon orbital energies to disk
Timing for Total SCF: 10582.00s (wall), 21072.23s (cpu)
<S^2> of polarized wavefunction after polarization iterations 0.0000000000
relaxing scfmi constraint to allow all rotations in the entire AO span
Doing General SCFMI
 Exchange:     0.1670 Hartree-Fock + 1.0000 wB97X-V + LR-HF
 Correlation:  1.0000 wB97X-V
 Using Euler-Maclaurin-Lebedev (99,590) quadrature formula
 Nonlocal Correlation:  VV10 with C = 0.0100 and b = 6.00 and scale = 1.00000
 Grid used for NLC:  SG-1 standard quadrature
performing fock build at end of subrot_r(subrot) constructor so that all methods have access
<S^2> of polarized wavefunction before ct-allowed iterations 0.0000000000
Beginning iterations for the determination of the CT-Allowed wavefunction
Energy prior to optimization (guess energy) = -618.397705608686
Begin Timing: Total SCF Calculation
begin iterations for algorithm: DIIS         
the SCF tolerance is set to 1.00e-08
    1    -618.3977056087      5.42e-05     00000 
    2    -618.3984006864      5.43e-06     00000 
    3    -618.3984199500      8.36e-07     00000 
    4    -618.3984205296      2.67e-07     00000 
    5    -618.3984205508      1.07e-07     00000 
    6    -618.3984205551      2.72e-08     00000 
    7    -618.3984205554      9.37e-09     00000 Convergence criterion met
write pseudocanon occs and virts to disk
write pseudocanon orbital energies to disk
Timing for Total SCF: 5375.00s (wall), 10702.93s (cpu)
<S^2> of ct_allowed wavefunction after ct-allowed iterations 0.0000000000

================================
        Results of EDA2         
================================
Basic EDA Quantities
--------------------
Fragment Energies (Ha):
1 -271.5801037883
2 -346.8153970249
--------------------
  E_prp (kJ/mol) = 0.0000
  E_sol (kJ/mol) = 1.3292
  E_frz (kJ/mol) = -6.3494
  E_pol (kJ/mol) = -0.7686
  E_vct (kJ/mol) = -1.8771
  E_int (kJ/mol) = -7.6659
--------------------


Initial Wavefunction Decomposition
--------------------
  --------------------
  Orthogonal Fragment Subspace Decomposition:
  --------------------
     E_elec   (ELEC)   (kJ/mol) = -13.6830
     E_pauli  (PAULI)  (kJ/mol) = 21.5687
     E_disp   (DISP)   (kJ/mol) = -14.2350
     --------------------
     Terms summing to E_pauli:
     --------------------
        E_kep_pauli       (kJ/mol) = 28.2824
        E_disp_free_pauli (kJ/mol) = -6.7138
  --------------------
  Classical Frozen Decomposition:
  --------------------
     E_cls_elec  (CLS ELEC)  (kJ/mol) = -4.9554
     E_cls_pauli (CLS PAULI) (kJ/mol) = -1.3940
    [E_mod_pauli (MOD PAULI) (kJ/mol) = 12.8411 (CLS PAULI - DISP from orthogonal decomposition) ]
  --------------------
--------------------

Simplified EDA Summary (kJ/mol)
--------------------
 PREPARATION     0.0000
 SOLVATION       1.3292
 FROZEN          7.8857      (does not include dispersion)
[PAULI           21.5687]     (if this is negligible, then frozen describes electrostatics)
 DISPERSION      -14.2350
 POLARIZATION    -0.7686
 CHARGE TRANSFER -1.8771
 TOTAL           -7.6659     (PRP + SOL + FRZ + DISP + POL + CT)
--------------------
 
 --------------------------------------------------------------
 
                    Orbital Energies (a.u.)
 --------------------------------------------------------------
 
 Alpha MOs
 -- Occupied --
-19.2479 -10.3423 -10.2821 -10.2818 -10.2814 -10.2808 -10.2769 -10.2766
-10.2762 -10.2741 -10.2732 -10.2730 -10.2716 -10.2631 -10.2625  -1.1904
 -0.9972  -0.9917  -0.9106  -0.9000  -0.8825  -0.8796  -0.8140  -0.8109
 -0.7489  -0.7329  -0.7149  -0.7052  -0.6652  -0.6298  -0.5998  -0.5819
 -0.5766  -0.5706  -0.5549  -0.5433  -0.5370  -0.5336  -0.5284  -0.5167
 -0.5139  -0.5113  -0.4911  -0.4799  -0.4725  -0.4582  -0.4450  -0.4436
 -0.4422  -0.4394  -0.3528  -0.3492  -0.3374  -0.3143
 -- Virtual --
  0.0516   0.0546   0.0603   0.0624   0.0651   0.0693   0.0716   0.0793
  0.0859   0.0937   0.0994   0.1029   0.1059   0.1088   0.1149   0.1226
  0.1256   0.1371   0.1397   0.1467   0.1571   0.1593   0.1650   0.1678
  0.1714   0.1801   0.1849   0.1863   0.1934   0.1979   0.2030   0.2082
  0.2127   0.2183   0.2242   0.2251   0.2347   0.2351   0.2392   0.2422
  0.2474   0.2516   0.2574   0.2602   0.2634   0.2660   0.2692   0.2710
  0.2724   0.2752   0.2814   0.2864   0.2868   0.2904   0.2973   0.2979
  0.3030   0.3043   0.3078   0.3120   0.3148   0.3222   0.3246   0.3248
  0.3298   0.3308   0.3331   0.3387   0.3410   0.3455   0.3481   0.3495
  0.3542   0.3574   0.3590   0.3660   0.3699   0.3706   0.3730   0.3736
  0.3785   0.3800   0.3830   0.3856   0.3883   0.3923   0.3940   0.3953
  0.3975   0.4032   0.4062   0.4115   0.4159   0.4166   0.4212   0.4247
  0.4295   0.4334   0.4360   0.4382   0.4422   0.4459   0.4479   0.4501
  0.4538   0.4577   0.4594   0.4610   0.4638   0.4658   0.4733   0.4760
  0.4769   0.4797   0.4860   0.4890   0.4908   0.4959   0.4978   0.5035
  0.5070   0.5121   0.5150   0.5170   0.5212   0.5259   0.5268   0.5306
  0.5373   0.5415   0.5440   0.5499   0.5514   0.5541   0.5595   0.5622
  0.5687   0.5757   0.5771   0.5835   0.5872   0.5948   0.5960   0.5997
  0.6033   0.6053   0.6116   0.6171   0.6199   0.6254   0.6279   0.6396
  0.6410   0.6448   0.6469   0.6508   0.6572   0.6599   0.6672   0.6710
  0.6754   0.6790   0.6822   0.6860   0.6891   0.6937   0.6974   0.6999
  0.7042   0.7066   0.7114   0.7141   0.7188   0.7231   0.7265   0.7308
  0.7358   0.7406   0.7418   0.7467   0.7492   0.7551   0.7578   0.7602
  0.7624   0.7665   0.7697   0.7728   0.7780   0.7854   0.7881   0.7918
  0.7935   0.7964   0.7986   0.8037   0.8056   0.8063   0.8122   0.8162
  0.8172   0.8230   0.8241   0.8306   0.8322   0.8409   0.8423   0.8443
  0.8491   0.8547   0.8593   0.8601   0.8622   0.8684   0.8713   0.8742
  0.8784   0.8900   0.8916   0.8931   0.9011   0.9043   0.9112   0.9175
  0.9185   0.9267   0.9300   0.9317   0.9435   0.9477   0.9519   0.9585
  0.9694   0.9853   0.9908   0.9933   0.9990   1.0029   1.0105   1.0184
  1.0243   1.0291   1.0383   1.0445   1.0476   1.0555   1.0664   1.0694
  1.0704   1.0759   1.0841   1.0894   1.0909   1.0995   1.1076   1.1146
  1.1203   1.1303   1.1372   1.1415   1.1531   1.1607   1.1775   1.1841
  1.2031   1.2195   1.2251   1.2286   1.2496   1.2689   1.2848   1.2932
  1.3038   1.3197   1.3234   1.3348   1.3404   1.3425   1.3554   1.3756
  1.3793   1.3837   1.3868   1.4084   1.4151   1.4258   1.4300   1.4506
  1.4580   1.4614   1.4696   1.4941   1.4983   1.5081   1.5140   1.5180
  1.5354   1.5384   1.5472   1.5534   1.5708   1.6105   1.6220   1.6319
  1.6343   1.6356   1.6537   1.6582   1.6788   1.6931   1.6986   1.7115
  1.7175   1.7275   1.7588   1.7699   1.7868   1.7911   1.8022   1.8127
  1.8208   1.8308   1.8429   1.8502   1.8523   1.8559   1.8793   1.8832
  1.8847   1.8927   1.9079   1.9239   1.9335   1.9445   1.9487   1.9536
  1.9612   1.9635   1.9795   1.9816   2.0004   2.0075   2.0112   2.0179
  2.0248   2.0290   2.0319   2.0386   2.0445   2.0583   2.0636   2.0702
  2.0795   2.0927   2.1054   2.1123   2.1163   2.1396   2.1486   2.1583
  2.1697   2.1818   2.1919   2.2069   2.2100   2.2130   2.2285   2.2380
  2.2564   2.2587   2.2718   2.2886   2.2916   2.2975   2.3040   2.3131
  2.3233   2.3263   2.3440   2.3625   2.3964   2.4077   2.4111   2.4132
  2.4209   2.4434   2.4504   2.4592   2.4750   2.4988   2.5141   2.5215
  2.5452   2.5556   2.5664   2.5701   2.5814   2.5899   2.6010   2.6160
  2.6320   2.6331   2.6554   2.6619   2.6711   2.6799   2.6810   2.6956
  2.7010   2.7084   2.7270   2.7360   2.7512   2.7633   2.7683   2.7727
  2.7852   2.7962   2.8006   2.8030   2.8165   2.8255   2.8349   2.8388
  2.8666   2.8770   2.8887   2.8916   2.9100   2.9180   2.9236   2.9258
  2.9384   2.9491   2.9496   2.9547   2.9598   2.9705   2.9791   2.9889
  2.9934   2.9996   3.0069   3.0142   3.0270   3.0302   3.0477   3.0562
  3.0600   3.0744   3.0754   3.0891   3.0928   3.1044   3.1253   3.1413
  3.1613   3.1638   3.1716   3.1792   3.1903   3.2031   3.2150   3.2189
  3.2368   3.2451   3.2508   3.2656   3.2717   3.2751   3.2893   3.2993
  3.3216   3.3280   3.3467   3.3512   3.3655   3.3726   3.3782   3.3816
  3.3973   3.4037   3.4051   3.4084   3.4111   3.4199   3.4419   3.4536
  3.4619   3.4680   3.4769   3.4827   3.4851   3.4889   3.4939   3.5010
  3.5042   3.5100   3.5155   3.5279   3.5319   3.5405   3.5462   3.5489
  3.5548   3.5594   3.5688   3.5776   3.5791   3.5828   3.5915   3.5950
  3.6046   3.6080   3.6164   3.6270   3.6303   3.6459   3.6544   3.6648
  3.6767   3.6849   3.6929   3.7068   3.7109   3.7190   3.7280   3.7447
  3.7717   3.7864   3.8158   3.8240   3.8312   3.8439   3.8717   3.9096
  3.9134   3.9307   3.9408   3.9537   3.9561   3.9754   3.9865   3.9910
  4.0257   4.0304   4.0604   4.0782   4.0806   4.1090   4.1283   4.1431
  4.2129   4.2394   4.2621   4.2763   4.2800   4.2840   4.2902   4.3017
  4.3055   4.3182   4.3246   4.3257   4.3312   4.3406   4.3461   4.3489
  4.3579   4.3583   4.3770   4.3835   4.4091   4.4197   4.4302   4.4426
  4.4567   4.4675   4.4818   4.5017   4.5398   4.5984   4.6195   4.6285
  4.6457   4.7144   4.7241   4.7692   4.7781   4.7900   4.7970   4.8328
  4.8639   4.8921   4.9213   4.9469   4.9524   5.0109   5.0137   5.0515
  5.0675   5.0829   5.1450   5.1543   5.1800   5.2662   5.2876   5.2968
  5.3492   5.3643   5.3677   5.4267   5.5074   5.5276   5.5420   5.6041
  5.6089   5.6647   5.7003   5.7667   5.8250   5.9195   6.1922   6.4433
  6.5834   6.6199   6.8672   6.9729   7.3169   7.4461  22.6350  22.6885
 22.7284  22.7443  22.8906  22.9032  22.9321  22.9558  23.0132  23.0286
 23.0727  23.1406  23.4177  23.4571  44.4304
 --------------------------------------------------------------
 
          Ground-State Mulliken Net Atomic Charges

     Atom                 Charge (a.u.)
  ----------------------------------------
      1 C                    -0.712351
      2 C                    -0.243917
      3 C                     0.677126
      4 C                    -0.471610
      5 C                    -0.406387
      6 C                    -0.422048
      7 C                    -0.516957
      8 H                     0.355897
      9 H                     0.323367
     10 H                    -0.032104
     11 H                     0.248586
     12 H                     0.359147
     13 H                     0.322879
     14 H                     0.317438
     15 H                     0.228507
     16 C                    -0.974349
     17 C                    -0.107452
     18 C                     0.341850
     19 C                    -0.361305
     20 C                     0.538012
     21 C                    -0.515017
     22 C                    -0.715229
     23 O                    -0.482419
     24 H                     0.335328
     25 H                     0.224848
     26 H                     0.233169
     27 H                     0.288500
     28 H                     0.311515
     29 H                     0.320212
     30 H                     0.341690
     31 H                     0.193074
  ----------------------------------------
  Sum of atomic charges =     0.000000

 -----------------------------------------------------------------
                    Cartesian Multipole Moments
 -----------------------------------------------------------------
    Charge (ESU x 10^10)
                 0.0000
    Dipole Moment (Debye)
         X      -1.4238      Y      -0.6288      Z      -0.7067
       Tot       1.7094
    Quadrupole Moments (Debye-Ang)
        XX     -96.0252     XY       8.3646     YY     -80.9164
        XZ      -2.1349     YZ      -2.5061     ZZ     -91.6935
    Octopole Moments (Debye-Ang^2)
       XXX      34.5972    XXY      10.5232    XYY      -6.7657
       YYY     -21.7799    XXZ      -2.3758    XYZ      10.9111
       YYZ      13.2502    XZZ     -31.3196    YZZ      -8.1634
       ZZZ     -20.8181
    Hexadecapole Moments (Debye-Ang^3)
      XXXX   -3388.9495   XXXY     288.7439   XXYY    -757.3244
      XYYY     132.6533   YYYY   -1050.6023   XXXZ   -1135.0493
      XXYZ     207.8293   XYYZ    -367.5594   YYYZ     329.6868
      XXZZ    -927.8453   XYZZ      84.3431   YYZZ    -521.1331
      XZZZ   -1109.3480   YZZZ     401.0605   ZZZZ   -2379.7669
 -----------------------------------------------------------------
Archival summary:
1\1\nid00529\SP\ProcedureUnspecified\BasisUnspecified\11416\meili\MonSep2706:18:302021MonSep2706:18:302021\0\\#,ProcedureUnspecified,BasisUnspecified,\\0,1\C\H,1,1.08341\C,1,1.40576,2,119.303\C,3,1.39691,1,119.201,2,-178.803,0\H,4,1.07837,3,119.285,1,179.237,0\C,4,1.39449,3,120.859,1,-0.782329,0\H,6,1.08131,4,119.882,3,179.969,0\C,6,1.40298,4,120.594,3,-0.0118221,0\O,8,1.37495,6,117.668,4,179.979,0\H,9,0.970209,8,113.334,6,-179.765,0\C,8,1.41076,6,119.452,4,0.343193,0\H,11,1.08267,8,119.544,6,-179.705,0\C,3,1.51909,1,121.088,2,3.1656,0\H,13,1.08963,3,108.929,1,-43.4277,0\H,13,1.09144,3,109.112,1,-162.352,0\H,13,1.1,3,116.016,1,75.3517,0\H,2,2.40973,1,120.735,3,-169.535,0\C,17,1.08635,2,130.664,1,161.743,0\H,18,1.09025,17,109.15,2,109.337,0\H,18,1.1,17,108.48,2,-129.135,0\C,18,1.48648,17,106.894,2,-5.99393,0\C,21,1.3961,18,119.289,17,-48.7289,0\H,22,1.08195,21,119.575,18,1.94371,0\C,22,1.39608,21,120.219,18,-177.891,0\H,24,1.08212,22,120.316,21,179.518,0\C,21,1.39708,18,120.412,17,133.085,0\H,26,1.08311,21,120.137,18,-1.73789,0\C,24,1.39903,22,119.63,21,-0.305299,0\H,28,1.07924,24,119.691,22,-179.819,0\C,28,1.40027,24,120.307,22,0.162808,0\H,30,1.08182,28,120.098,24,179.916,0\\\@

 Total job time:  102984.01s(wall), 63405.07s(cpu) 
 Mon Sep 27 06:18:34 2021

        *************************************************************
        *                                                           *
        *  Thank you very much for using Q-Chem.  Have a nice day.  *
        *                                                           *
        *************************************************************


