
Running Job 1 of 1 SSI-057PHE-116PHE-1_PCM_TZVPD.in
qchem SSI-057PHE-116PHE-1_PCM_TZVPD.in_31033.0 /tmp/qchem31033/ 0
/global/common/cori/software/qchem/5.2/exe/qcprog.exe_s SSI-057PHE-116PHE-1_PCM_TZVPD.in_31033.0 /tmp/qchem31033/
                  Welcome to Q-Chem
     A Quantum Leap Into The Future Of Chemistry


 Q-Chem 5.2, Q-Chem, Inc., Pleasanton, CA (2019)

 License issued to: National Energy Research Scientific Computing Center

 Yihan Shao,  Zhengting Gan,  E. Epifanovsky,  A. T. B. Gilbert,  M. Wormit,  
 J. Kussmann,  A. W. Lange,  A. Behn,  Jia Deng,  Xintian Feng,  D. Ghosh,  
 M. Goldey,  P. R. Horn,  L. D. Jacobson,  I. Kaliman,  T. Kus,  A. Landau,  
 Jie Liu,  E. I. Proynov,  R. M. Richard,  R. P. Steele,  E. J. Sundstrom,  
 H. L. Woodcock III,  P. M. Zimmerman,  D. Zuev,  B. Albrecht,  E. Alguire,  
 S. A. Baeppler,  D. Barton,  Z. Benda,  Y. A. Bernard,  E. J. Berquist,  
 K. B. Bravaya,  H. Burton,  D. Casanova,  Chun-Min Chang,  Yunqing Chen,  
 A. Chien,  K. D. Closser,  M. P. Coons,  S. Coriani,  S. Dasgupta,  
 A. L. Dempwolff,  M. Diedenhofen,  Hainam Do,  R. G. Edgar,  Po-Tung Fang,  
 S. Faraji,  S. Fatehi,  Qingguo Feng,  K. D. Fenk,  J. Fosso-Tande,  
 J. Gayvert,  Qinghui Ge,  A. Ghysels,  G. Gidofalvi,  J. Gomes,  
 J. Gonthier,  A. Gunina,  D. Hait,  M. W. D. Hanson-Heine,  
 P. H. P. Harbach,  A. W. Hauser,  M. F. Herbst,  J. E. Herr,  
 E. G. Hohenstein,  Z. C. Holden,  Kerwin Hui,  B. C. Huynh,  T.-C. Jagau,  
 Hyunjun Ji,  B. Kaduk,  K. Khistyaev,  Jaehoon Kim,  P. Klunzinger,  K. Koh,  
 D. Kosenkov,  L. Koulias,  T. Kowalczyk,  C. M. Krauter,  A. Kunitsa,  
 Ka Un Lao,  A. Laurent,  K. V. Lawler,  Joonho Lee,  D. Lefrancois,  
 S. Lehtola,  D. S. Levine,  Yi-Pei Li,  You-Sheng Lin,  Fenglai Liu,  
 E. Livshits,  A. Luenser,  P. Manohar,  E. Mansoor,  S. F. Manzer,  
 Shan-Ping Mao,  Yuezhi Mao,  N. Mardirossian,  A. V. Marenich,  
 T. Markovich,  L. A. Martinez-Martinez,  S. A. Maurer,  N. J. Mayhall,  
 S. C. McKenzie,  J.-M. Mewes,  P. Morgante,  A. F. Morrison,  
 J. W. Mullinax,  K. Nanda,  T. S. Nguyen-Beck,  R. Olivares-Amaya,  
 J. A. Parkhill,  Zheng Pei,  T. M. Perrine,  F. Plasser,  P. Pokhilko,  
 S. Prager,  A. Prociuk,  E. Ramos,  D. R. Rehn,  F. Rob,  M. Scheurer,  
 M. Schneider,  N. Sergueev,  S. M. Sharada,  S. Sharma,  D. W. Small,  
 T. Stauch,  T. Stein,  Yu-Chuan Su,  A. J. W. Thom,  A. Tkatchenko,  
 T. Tsuchimochi,  N. M. Tubman,  L. Vogt,  M. L. Vidal,  O. Vydrov,  
 M. A. Watson,  J. Wenzel,  M. de Wergifosse,  T. A. Wesolowski,  A. White,  
 J. Witte,  A. Yamada,  Jun Yang,  K. Yao,  S. Yeganeh,  S. R. Yost,  
 Zhi-Qiang You,  A. Zech,  Igor Ying Zhang,  Xing Zhang,  Yan Zhao,  
 Ying Zhu,  B. R. Brooks,  G. K. L. Chan,  C. J. Cramer,  M. S. Gordon,  
 W. J. Hehre,  A. Klamt,  M. W. Schmidt,  C. D. Sherrill,  D. G. Truhlar,  
 A. Aspuru-Guzik,  R. Baer,  A. T. Bell,  N. A. Besley,  Jeng-Da Chai,  
 A. E. DePrince, III,  R. A. DiStasio Jr.,  A. Dreuw,  B. D. Dunietz,  
 T. R. Furlani,  Chao-Ping Hsu,  Yousung Jung,  Jing Kong,  D. S. Lambrecht,  
 WanZhen Liang,  C. Ochsenfeld,  V. A. Rassolov,  L. V. Slipchenko,  
 J. E. Subotnik,  T. Van Voorhis,  J. M. Herbert,  A. I. Krylov,  
 P. M. W. Gill,  M. Head-Gordon

 Contributors to earlier versions of Q-Chem not listed above: 
 R. D. Adamson,  B. Austin,  J. Baker,  G. J. O. Beran,  K. Brandhorst,  
 S. T. Brown,  E. F. C. Byrd,  A. K. Chakraborty,  C.-L. Cheng,  
 Siu Hung Chien,  D. M. Chipman,  D. L. Crittenden,  H. Dachsel,  
 R. J. Doerksen,  A. D. Dutoi,  L. Fusti-Molnar,  W. A. Goddard III,  
 A. Golubeva-Zadorozhnaya,  S. R. Gwaltney,  G. Hawkins,  A. Heyden,  
 S. Hirata,  G. Kedziora,  F. J. Keil,  C. Kelley,  Jihan Kim,  R. A. King,  
 R. Z. Khaliullin,  P. P. Korambath,  W. Kurlancheek,  A. M. Lee,  M. S. Lee,  
 S. V. Levchenko,  Ching Yeh Lin,  D. Liotard,  R. C. Lochan,  I. Lotan,  
 P. E. Maslen,  N. Nair,  D. P. O'Neill,  D. Neuhauser,  E. Neuscamman,  
 C. M. Oana,  R. Olson,  B. Peters,  R. Peverati,  P. A. Pieniazek,  
 Y. M. Rhee,  J. Ritchie,  M. A. Rohrdanz,  E. Rosta,  N. J. Russ,  
 H. F. Schaefer III,  N. E. Schultz,  N. Shenvi,  A. C. Simmonett,  A. Sodt,  
 D. Stuck,  K. S. Thanthiriwatte,  V. Vanovschi,  Tao Wang,  A. Warshel,  
 C. F. Williams,  Q. Wu,  X. Xu,  W. Zhang

 Please cite Q-Chem as follows:
 Y. Shao et al., Mol. Phys. 113, 184-215 (2015)
 DOI: 10.1080/00268976.2014.952696

 Q-Chem 5.2.0 for Intel X86 EM64T Linux

 Parts of Q-Chem use Armadillo 8.300.2 (Tropical Shenanigans).
 http://arma.sourceforge.net/

 Q-Chem begins on Sun Sep 26 09:05:25 2021  

Host: cori01
0

     Scratch files written to /tmp/qchem31033//
 May1019 |scratch|qcdevops|jenkins|workspace|build_RNUM -1
Processing $rem in /global/common/cori/software/qchem/5.2/config/preferences:
	 MEM_TOTAL  96000 
NAlpha2: 100
NElect   100
Mult     1
Symmetry turned off for PCM/SM12/SMD calculation

 Q-Chem warning in module libgen/rem_setup.C, line 2803:

 Neither GIA nor STOLL is specified by user. Use STOLL as the default


Checking the input file for inconsistencies... 	...done.

--------------------------------------------------------------
User input:
--------------------------------------------------------------
$comment
SSI-057PHE-116PHE-1.pdb
$end

$molecule
0 1
--
0 1
C    4.032132867275   -2.994956012129   -0.418107461425
C    0.363132867275   -2.149956012129   -0.869107461425
C    0.383132867275   -1.454956012129   -2.077107461425
C    1.552132867275   -2.648956012129   -0.334107461425
C    2.763132867275   -2.452956012129   -0.998107461425
C    1.591132867275   -1.258956012129   -2.746107461425
C    2.776132867275   -1.759956012129   -2.208107461425
H   -0.568867132725   -2.295956012129   -0.342107461425
H   -0.536867132725   -1.069956012129   -2.496107461425
H    1.528132867275   -3.197956012129    0.594892538575
H    1.604132867275   -0.729956012129   -3.686107461425
H    4.555132867275   -3.561956012129   -1.180107461425
H    3.765132867275   -3.703956012129    0.368892538575
H    3.703132867275   -1.608956012129   -2.742107461425
H    4.695820867275   -2.229656012129    0.010659538575
--
0 1
C   -3.342867132725    2.392043987871    3.352892538575
C   -1.741867132725    0.875043987871    0.267892538575
C   -2.543867132725    1.041043987871    1.393892538575
C   -0.892867132725    1.906043987871   -0.136107461425
C   -2.508867132725    2.233043987871    2.114892538575
C   -0.854867132725    3.099043987871    0.580892538575
C   -1.659867132725    3.259043987871    1.702892538575
H   -1.764867132725   -0.052956012129   -0.283107461425
H   -3.194867132725    0.240043987871    1.707892538575
H   -0.249867132725    1.778043987871   -0.995107461425
H   -0.200867132725    3.898043987871    0.260892538575
H   -4.292867132725    1.873043987871    3.220892538575
H   -3.571867132725    3.450043987871    3.492892538575
H   -1.625867132725    4.185043987871    2.255892538575
H   -2.842842132725    2.019533987871    4.259098538575
$end

$rem
JOBTYPE			EDA
EDA2			1
method			wB97X-V
BASIS			def2-TZVPD
XC_GRID			000099000590
NL_GRID			1
UNRESTRICTED		FALSE
MAX_SCF_CYCLES		200
SYMMETRY		FALSE
SYM_IGNORE		TRUE
MEM_STATIC		2000
BASIS_LIN_DEP_THRESH 	6
THRESH 			14
SCF_CONVERGENCE 	8
SCF_PRINT_FRGM 		TRUE
SOLVENT_METHOD          PCM
$end

$PCM
THEORY                  CPCM
METHOD                  SWIG
SOLVER                  INVERSION
RADII                   UFF
HPOINTS                 302
HEAVYPOINTS             302
PRINTLEVEL              0
$END

$SOLVENT
DIELECTRIC              78.390000 ! water
$END
--------------------------------------------------------------
 ----------------------------------------------------------------
             Standard Nuclear Orientation (Angstroms)
    I     Atom           X                Y                Z
 ----------------------------------------------------------------
    1      C       4.0321328673    -2.9949560121    -0.4181074614
    2      C       0.3631328673    -2.1499560121    -0.8691074614
    3      C       0.3831328673    -1.4549560121    -2.0771074614
    4      C       1.5521328673    -2.6489560121    -0.3341074614
    5      C       2.7631328673    -2.4529560121    -0.9981074614
    6      C       1.5911328673    -1.2589560121    -2.7461074614
    7      C       2.7761328673    -1.7599560121    -2.2081074614
    8      H      -0.5688671327    -2.2959560121    -0.3421074614
    9      H      -0.5368671327    -1.0699560121    -2.4961074614
   10      H       1.5281328673    -3.1979560121     0.5948925386
   11      H       1.6041328673    -0.7299560121    -3.6861074614
   12      H       4.5551328673    -3.5619560121    -1.1801074614
   13      H       3.7651328673    -3.7039560121     0.3688925386
   14      H       3.7031328673    -1.6089560121    -2.7421074614
   15      H       4.6958208673    -2.2296560121     0.0106595386
   16      C      -3.3428671327     2.3920439879     3.3528925386
   17      C      -1.7418671327     0.8750439879     0.2678925386
   18      C      -2.5438671327     1.0410439879     1.3938925386
   19      C      -0.8928671327     1.9060439879    -0.1361074614
   20      C      -2.5088671327     2.2330439879     2.1148925386
   21      C      -0.8548671327     3.0990439879     0.5808925386
   22      C      -1.6598671327     3.2590439879     1.7028925386
   23      H      -1.7648671327    -0.0529560121    -0.2831074614
   24      H      -3.1948671327     0.2400439879     1.7078925386
   25      H      -0.2498671327     1.7780439879    -0.9951074614
   26      H      -0.2008671327     3.8980439879     0.2608925386
   27      H      -4.2928671327     1.8730439879     3.2208925386
   28      H      -3.5718671327     3.4500439879     3.4928925386
   29      H      -1.6258671327     4.1850439879     2.2558925386
   30      H      -2.8428421327     2.0195339879     4.2590985386
 ----------------------------------------------------------------
 Nuclear Repulsion Energy =         747.82212536 hartrees
 There are       50 alpha and       50 beta electrons
 Requested basis set is def2-TZVPD
 There are 262 shells and 662 basis functions

 Total QAlloc Memory Limit  96000 MB
 Mega-Array Size      1956 MB
 MEM_STATIC part      2000 MB
 Discretize the solute cavity surface with Lebedev spheres
	Using 302 Lebedev grid points for each H atom
	Using 302 Lebedev grid points for other atoms
	Atomic van der Waals radii will be scaled by 1.20
 Remove points where switching function is < 1.0e-08
 Keep 3413 surface tesserae and discard 5647 interior tesserae
 Molecular Surface Area = 332.484 Angst**2
 A cutoff of  1.0D-14 yielded  27913 shell pairs
 There are    178259 function pairs (    224314 Cartesian)
 Smallest overlap matrix eigenvalue = 4.89E-07
 Linear dependence detected in AO basis
 Tighter screening thresholds may be required for diffuse basis sets
 Use S2THRESH > 14 and THRESH = 14 in case of SCF convergence issues
 Number of orthogonalized atomic orbitals = 658
 Maximum deviation from orthogonality = 1.570E-10

 Scale SEOQF with 1.000000e-01/1.000000e-01/1.000000e-01

 Standard Electronic Orientation quadrupole field applied
 Nucleus-field energy     =     0.0000000228 hartrees

 -----------------------------------------------------------------------
  General SCF calculation program by
  Eric Jon Sundstrom, Paul Horn, Yuezhi Mao, Dmitri Zuev, Alec White,
  David Stuck, Shaama M.S., Shane Yost, Joonho Lee, David Small,
  Daniel Levine, Susi Lehtola, Hugh Burton, Evgeny Epifanovsky
 -----------------------------------------------------------------------
================================================================
                 ALMO-EDA with the EDA2 driver                  
================================================================
 The second-generation ALMO-EDA (for DFT):                      
 P. R. Horn, Y. Mao and M. Head-Gordon, PCCP, 18, 23067 (2016)  
 Decomposition of the frozen energy:                            
 P. R. Horn, Y. Mao and M. Head-Gordon, JCP, 144, 114107 (2016) 
 FERF model for polarization:                                   
 P. R. Horn and M. Head-Gordon, JCP, 143, 114111 (2015)         
Using eda2 option set 1
Option set summary: Frozen orbital wavefunction, initial wavefunction decomposition, and nDQ polarization.
--------------------------------
Printing EDA Options
--------------------------------
eda_child_super_basis      0
fragmo_guess_mode          0
child_mp                   1
child_mp_orders            232
cls_elec                   1
cls_disp                   0
scfmi_mode                 1
scfmi_occs                 0
scfmi_virts                0
frz_relax                  0
frz_relax_method           0
dc_pen_start               0
dc_pen_conv                0
dc_pen_increment           0
dc_pen_steps               0
dc_pen_thresh_factor       0
dc_pen_pre_newton_thresh   0
frz_ortho_decomp           1
frz_ortho_decomp_conv      6
frgm_method                2
scfmi_freeze_ss            0
separate_rehyb             0
plot_diff_den              0
eda_nocv                   0
eda_vct_relax              1
disp_free_x                0
disp_free_c                0
eda_bsse                   0
eda_pct_a                  0
eda_covp                   0
--------------------------------
Attempting to make child job directory: /tmp/qchem31033//Frg1/
Attempting to make child job directory: /tmp/qchem31033//Frg2/
Creating input file /tmp/qchem31033/Frg1.input
using default PutDataFrgm: nothing
calling putenv with: QCSCRATCH=/tmp/qchem31033/ 
calling putenv with: QCLOCALSCR=/tmp/qchem31033/ 
Spawning Job For Fragment 0
                  Welcome to Q-Chem
     A Quantum Leap Into The Future Of Chemistry


 Q-Chem 5.2, Q-Chem, Inc., Pleasanton, CA (2019)

 License issued to: National Energy Research Scientific Computing Center

 Yihan Shao,  Zhengting Gan,  E. Epifanovsky,  A. T. B. Gilbert,  M. Wormit,  
 J. Kussmann,  A. W. Lange,  A. Behn,  Jia Deng,  Xintian Feng,  D. Ghosh,  
 M. Goldey,  P. R. Horn,  L. D. Jacobson,  I. Kaliman,  T. Kus,  A. Landau,  
 Jie Liu,  E. I. Proynov,  R. M. Richard,  R. P. Steele,  E. J. Sundstrom,  
 H. L. Woodcock III,  P. M. Zimmerman,  D. Zuev,  B. Albrecht,  E. Alguire,  
 S. A. Baeppler,  D. Barton,  Z. Benda,  Y. A. Bernard,  E. J. Berquist,  
 K. B. Bravaya,  H. Burton,  D. Casanova,  Chun-Min Chang,  Yunqing Chen,  
 A. Chien,  K. D. Closser,  M. P. Coons,  S. Coriani,  S. Dasgupta,  
 A. L. Dempwolff,  M. Diedenhofen,  Hainam Do,  R. G. Edgar,  Po-Tung Fang,  
 S. Faraji,  S. Fatehi,  Qingguo Feng,  K. D. Fenk,  J. Fosso-Tande,  
 J. Gayvert,  Qinghui Ge,  A. Ghysels,  G. Gidofalvi,  J. Gomes,  
 J. Gonthier,  A. Gunina,  D. Hait,  M. W. D. Hanson-Heine,  
 P. H. P. Harbach,  A. W. Hauser,  M. F. Herbst,  J. E. Herr,  
 E. G. Hohenstein,  Z. C. Holden,  Kerwin Hui,  B. C. Huynh,  T.-C. Jagau,  
 Hyunjun Ji,  B. Kaduk,  K. Khistyaev,  Jaehoon Kim,  P. Klunzinger,  K. Koh,  
 D. Kosenkov,  L. Koulias,  T. Kowalczyk,  C. M. Krauter,  A. Kunitsa,  
 Ka Un Lao,  A. Laurent,  K. V. Lawler,  Joonho Lee,  D. Lefrancois,  
 S. Lehtola,  D. S. Levine,  Yi-Pei Li,  You-Sheng Lin,  Fenglai Liu,  
 E. Livshits,  A. Luenser,  P. Manohar,  E. Mansoor,  S. F. Manzer,  
 Shan-Ping Mao,  Yuezhi Mao,  N. Mardirossian,  A. V. Marenich,  
 T. Markovich,  L. A. Martinez-Martinez,  S. A. Maurer,  N. J. Mayhall,  
 S. C. McKenzie,  J.-M. Mewes,  P. Morgante,  A. F. Morrison,  
 J. W. Mullinax,  K. Nanda,  T. S. Nguyen-Beck,  R. Olivares-Amaya,  
 J. A. Parkhill,  Zheng Pei,  T. M. Perrine,  F. Plasser,  P. Pokhilko,  
 S. Prager,  A. Prociuk,  E. Ramos,  D. R. Rehn,  F. Rob,  M. Scheurer,  
 M. Schneider,  N. Sergueev,  S. M. Sharada,  S. Sharma,  D. W. Small,  
 T. Stauch,  T. Stein,  Yu-Chuan Su,  A. J. W. Thom,  A. Tkatchenko,  
 T. Tsuchimochi,  N. M. Tubman,  L. Vogt,  M. L. Vidal,  O. Vydrov,  
 M. A. Watson,  J. Wenzel,  M. de Wergifosse,  T. A. Wesolowski,  A. White,  
 J. Witte,  A. Yamada,  Jun Yang,  K. Yao,  S. Yeganeh,  S. R. Yost,  
 Zhi-Qiang You,  A. Zech,  Igor Ying Zhang,  Xing Zhang,  Yan Zhao,  
 Ying Zhu,  B. R. Brooks,  G. K. L. Chan,  C. J. Cramer,  M. S. Gordon,  
 W. J. Hehre,  A. Klamt,  M. W. Schmidt,  C. D. Sherrill,  D. G. Truhlar,  
 A. Aspuru-Guzik,  R. Baer,  A. T. Bell,  N. A. Besley,  Jeng-Da Chai,  
 A. E. DePrince, III,  R. A. DiStasio Jr.,  A. Dreuw,  B. D. Dunietz,  
 T. R. Furlani,  Chao-Ping Hsu,  Yousung Jung,  Jing Kong,  D. S. Lambrecht,  
 WanZhen Liang,  C. Ochsenfeld,  V. A. Rassolov,  L. V. Slipchenko,  
 J. E. Subotnik,  T. Van Voorhis,  J. M. Herbert,  A. I. Krylov,  
 P. M. W. Gill,  M. Head-Gordon

 Contributors to earlier versions of Q-Chem not listed above: 
 R. D. Adamson,  B. Austin,  J. Baker,  G. J. O. Beran,  K. Brandhorst,  
 S. T. Brown,  E. F. C. Byrd,  A. K. Chakraborty,  C.-L. Cheng,  
 Siu Hung Chien,  D. M. Chipman,  D. L. Crittenden,  H. Dachsel,  
 R. J. Doerksen,  A. D. Dutoi,  L. Fusti-Molnar,  W. A. Goddard III,  
 A. Golubeva-Zadorozhnaya,  S. R. Gwaltney,  G. Hawkins,  A. Heyden,  
 S. Hirata,  G. Kedziora,  F. J. Keil,  C. Kelley,  Jihan Kim,  R. A. King,  
 R. Z. Khaliullin,  P. P. Korambath,  W. Kurlancheek,  A. M. Lee,  M. S. Lee,  
 S. V. Levchenko,  Ching Yeh Lin,  D. Liotard,  R. C. Lochan,  I. Lotan,  
 P. E. Maslen,  N. Nair,  D. P. O'Neill,  D. Neuhauser,  E. Neuscamman,  
 C. M. Oana,  R. Olson,  B. Peters,  R. Peverati,  P. A. Pieniazek,  
 Y. M. Rhee,  J. Ritchie,  M. A. Rohrdanz,  E. Rosta,  N. J. Russ,  
 H. F. Schaefer III,  N. E. Schultz,  N. Shenvi,  A. C. Simmonett,  A. Sodt,  
 D. Stuck,  K. S. Thanthiriwatte,  V. Vanovschi,  Tao Wang,  A. Warshel,  
 C. F. Williams,  Q. Wu,  X. Xu,  W. Zhang

 Please cite Q-Chem as follows:
 Y. Shao et al., Mol. Phys. 113, 184-215 (2015)
 DOI: 10.1080/00268976.2014.952696

 Q-Chem 5.2.0 for Intel X86 EM64T Linux

 Parts of Q-Chem use Armadillo 8.300.2 (Tropical Shenanigans).
 http://arma.sourceforge.net/

 Q-Chem begins on Sun Sep 26 09:05:33 2021  

Host: cori01
0

     Scratch files written to /tmp/qchem31033//Frg1//
 May1019 |scratch|qcdevops|jenkins|workspace|build_RNUM -1
Processing $rem in /global/common/cori/software/qchem/5.2/config/preferences:
	 MEM_TOTAL  96000 
NAlpha2: 50
NElect   50
Mult     1
Symmetry turned off for PCM/SM12/SMD calculation

Checking the input file for inconsistencies... 	...done.

--------------------------------------------------------------
User input:
--------------------------------------------------------------
$molecule
0 1
 6	4.0321328673	-2.9949560121	-0.4181074614
 6	0.3631328673	-2.1499560121	-0.8691074614
 6	0.3831328673	-1.4549560121	-2.0771074614
 6	1.5521328673	-2.6489560121	-0.3341074614
 6	2.7631328673	-2.4529560121	-0.9981074614
 6	1.5911328673	-1.2589560121	-2.7461074614
 6	2.7761328673	-1.7599560121	-2.2081074614
 1	-0.5688671327	-2.2959560121	-0.3421074614
 1	-0.5368671327	-1.0699560121	-2.4961074614
 1	1.5281328673	-3.1979560121	0.5948925386
 1	1.6041328673	-0.7299560121	-3.6861074614
 1	4.5551328673	-3.5619560121	-1.1801074614
 1	3.7651328673	-3.7039560121	0.3688925386
 1	3.7031328673	-1.6089560121	-2.7421074614
 1	4.6958208673	-2.2296560121	0.0106595386
$end
$rem
EDA2		1
METHOD		WB97X-V
BASIS		DEF2-TZVPD
XC_GRID		000099000590
NL_GRID		1
UNRESTRICTED		FALSE
MAX_SCF_CYCLES		200
SYMMETRY		FALSE
SYM_IGNORE		TRUE
BASIS_LIN_DEP_THRESH		6
THRESH		14
SCF_CONVERGENCE		8
SCF_PRINT_FRGM		TRUE
SOLVENT_METHOD		PCM
!required keywords
JOBTYPE		SP
SYM_IGNORE		TRUE
SUBSYSTEM		TRUE
GEN_SCFMAN		TRUE
CHILD_INSTRUCTION		2
SYM_IGNORE		TRUE
SCFMI		0
RI_K 0		
PARI_K 0		
MIN_PARI_K 0		
IARI_K 0		
OCC_RI_K 0		
PURECART		1111
MEM_STATIC		2000
MEM_TOTAL		96000
GUI		0
CHILD_MP		1
CHILD_MP_ORDERS		232
FRZ_RELAX		0
FRZ_RELAX_METHOD		0
EDA_CLS_ELEC		1
EDA_CLS_DISP		0
FRZ_ORTHO_DECOMP		1
EDA2		FALSE
FRGM_METHOD		FALSE
CIS_N_ROOTS  0
LOCAL_CIS    0
CIS_RLX_DNS  1
$end
$pcm
THEORY                  CPCM
METHOD                  SWIG
SOLVER                  INVERSION
RADII                   UFF
HPOINTS                 302
HEAVYPOINTS             302
PRINTLEVEL              0
$end
$solvent
DIELECTRIC              78.390000 ! water
$end
--------------------------------------------------------------
 ----------------------------------------------------------------
             Standard Nuclear Orientation (Angstroms)
    I     Atom           X                Y                Z
 ----------------------------------------------------------------
    1      C       4.0321328673    -2.9949560121    -0.4181074614
    2      C       0.3631328673    -2.1499560121    -0.8691074614
    3      C       0.3831328673    -1.4549560121    -2.0771074614
    4      C       1.5521328673    -2.6489560121    -0.3341074614
    5      C       2.7631328673    -2.4529560121    -0.9981074614
    6      C       1.5911328673    -1.2589560121    -2.7461074614
    7      C       2.7761328673    -1.7599560121    -2.2081074614
    8      H      -0.5688671327    -2.2959560121    -0.3421074614
    9      H      -0.5368671327    -1.0699560121    -2.4961074614
   10      H       1.5281328673    -3.1979560121     0.5948925386
   11      H       1.6041328673    -0.7299560121    -3.6861074614
   12      H       4.5551328673    -3.5619560121    -1.1801074614
   13      H       3.7651328673    -3.7039560121     0.3688925386
   14      H       3.7031328673    -1.6089560121    -2.7421074614
   15      H       4.6958208673    -2.2296560121     0.0106595386
 ----------------------------------------------------------------
 Nuclear Repulsion Energy =         269.82064730 hartrees
 There are       25 alpha and       25 beta electrons
 Requested basis set is def2-TZVPD
 There are 131 shells and 331 basis functions

 Total QAlloc Memory Limit  96000 MB
 Mega-Array Size      1956 MB
 MEM_STATIC part      2000 MB
 Discretize the solute cavity surface with Lebedev spheres
	Using 302 Lebedev grid points for each H atom
	Using 302 Lebedev grid points for other atoms
	Atomic van der Waals radii will be scaled by 1.20
 Remove points where switching function is < 1.0e-08
 Keep 1804 surface tesserae and discard 2726 interior tesserae
 Molecular Surface Area = 178.257 Angst**2

                       Distance Matrix (Angstroms)
             C (  1)   C (  2)   C (  3)   C (  4)   C (  5)   C (  6)
   C (  2)  3.791963
   C (  3)  4.294075  1.393804
   C (  4)  2.505429  1.396047  2.414590
   C (  5)  1.496838  2.422488  2.797257  1.394931
   C (  6)  3.793647  2.413502  1.394719  2.784127  2.419654
   C (  7)  2.511346  2.787040  2.415913  2.408396  1.394460  1.394514
   H (  8)  4.654415  1.080587  2.150305  2.150189  3.399590  3.394140
   H (  9)  5.375823  2.150239  1.081751  3.395792  3.879007  2.150954
   H ( 10)  2.708762  2.144487  3.389492  1.079360  2.148930  3.863414
   H ( 11)  4.658888  3.389981  2.146007  3.862793  3.396668  1.078708
   H ( 12)  1.084279  4.434335  4.759164  3.250737  2.115247  4.067119
   H ( 13)  1.092401  3.939691  4.741186  2.550412  2.106583  4.517469
   H ( 14)  2.725842  3.867352  3.389446  3.392177  2.153479  2.140808
   H ( 15)  1.100003  4.421824  4.853680  3.190212  2.191519  4.263931
             C (  7)   H (  8)   H (  9)   H ( 10)   H ( 11)   H ( 12)
   H (  8)  3.867593
   H (  9)  3.396323  2.478672
   H ( 10)  3.388533  2.467586  4.283327
   H ( 11)  2.149178  4.284463  2.472970  4.942040
   H ( 12)  2.732916  5.344191  5.819827  3.527868  4.796734
   H ( 13)  3.376120  4.612108  5.801154  2.304622  5.473356  1.744610
   H ( 14)  1.080410  4.947924  4.281196  4.288486  2.463651  2.641961
   H ( 15)  2.971321  5.276910  5.916909  3.363507  5.047150  1.792412
             H ( 13)   H ( 14)
   H ( 14)  3.751158
   H ( 15)  1.779908  2.991392
 
 A cutoff of  1.0D-14 yielded   8361 shell pairs
 There are     54505 function pairs (     69459 Cartesian)
 Smallest overlap matrix eigenvalue = 5.70E-07
 Linear dependence detected in AO basis
 Tighter screening thresholds may be required for diffuse basis sets
 Use S2THRESH > 14 and THRESH = 14 in case of SCF convergence issues
 Number of orthogonalized atomic orbitals = 330
 Maximum deviation from orthogonality = 2.131E-10

 Scale SEOQF with 1.000000e-01/1.000000e-01/1.000000e-01

 Standard Electronic Orientation quadrupole field applied
 Nucleus-field energy     =     0.0000000134 hartrees
 Guess from superposition of atomic densities
 Warning:  Energy on first SCF cycle will be non-variational
 SAD guess density has 49.913408 electrons

 -----------------------------------------------------------------------
  General SCF calculation program by
  Eric Jon Sundstrom, Paul Horn, Yuezhi Mao, Dmitri Zuev, Alec White,
  David Stuck, Shaama M.S., Shane Yost, Joonho Lee, David Small,
  Daniel Levine, Susi Lehtola, Hugh Burton, Evgeny Epifanovsky
 -----------------------------------------------------------------------
 Exchange:     0.1670 Hartree-Fock + 1.0000 wB97X-V + LR-HF
 Correlation:  1.0000 wB97X-V
 Using Euler-Maclaurin-Lebedev (99,590) quadrature formula
 Nonlocal Correlation:  VV10 with C = 0.0100 and b = 6.00 and scale = 1.00000
 Grid used for NLC:  SG-1 standard quadrature
Energy prior to optimization (guess energy) = -271.519922040085
Begin Timing: Total SCF Calculation
begin iterations for algorithm: DIIS         
the SCF tolerance is set to 1.00e-08
    1    -271.5199220401      1.96e-03     00000 
    2    -271.5590245503      1.25e-03     00000 
    3    -271.5808647755      1.38e-04     00000 
    4    -271.5812799684      4.97e-05     00000 
    5    -271.5813155053      1.73e-05     00000 
    6    -271.5813205197      4.70e-06     00000 
    7    -271.5813209232      2.03e-06     00000 
    8    -271.5813209962      3.31e-07     00000 
    9    -271.5813209996      7.96e-08     00000 
   10    -271.5813209999      4.53e-08     00000 
   11    -271.5813209999      1.53e-08     00000 
   12    -271.5813210000      4.93e-09     00000 Convergence criterion met
Timing for Total SCF: 1389.00s (wall), 2746.23s (cpu)

************** Final PCM Free Energy Summary **************
 G_electrostatic  =      -0.00249421 hartree =      -1.56514188 kcal/mol
 G_cavitation     =       0.00000000 hartree =       0.00000000 kcal/mol
 G_dispersion     =       0.00000000 hartree =       0.00000000 kcal/mol
 G_repulsion      =       0.00000000 hartree =       0.00000000 kcal/mol
 --------------------------------------------------
 Non-electrostatic Free Energy =       0.00000000 hartree =       0.00000000 kcal/mol
 Total                         =      -0.00249421 hartree =      -1.56514188 kcal/mol
 --------------------------------------------------
 SCF Energy (H0 + V/2)                       =    -271.58132100 
 Solute Internal Energy (H0)                 =    -271.57882679 
 Total Free Energy (H0 + V/2 + non-elec)     =    -271.58132100 hartree
                                             = -170419.85107417 kcal/mol
***********************************************************

E_pcm = -0.0024942124
Multipole orders to be included
        2
        3
computing dipole RHS
computing quadrupole RHS
total number of RHS in solve_reponses: 8
RHS batch sizes
        8
Beginning Block Conjugate Gradient Iterations. Batch Number: 0
computing hessian-vector products by finite difference
              1      5.87e-01     00000 Conjugate Gradient Iteration
computing hessian-vector products by finite difference
              2      1.90e-01     00000 Conjugate Gradient Iteration
computing hessian-vector products by finite difference
              3      4.45e-02     00000 Conjugate Gradient Iteration
computing hessian-vector products by finite difference
              4      1.06e-02     00000 Conjugate Gradient Iteration
computing hessian-vector products by finite difference
              5      2.23e-03     00000 Conjugate Gradient Iteration
computing hessian-vector products by finite difference
              6      6.11e-04     00000 Conjugate Gradient Iteration
computing hessian-vector products by finite difference
              7      1.69e-04     00000 Conjugate Gradient Iteration
computing hessian-vector products by finite difference
              8      2.63e-05     00000 Conjugate Gradient Iteration
computing hessian-vector products by finite difference
              9      3.43e-06     00000 Conjugate Gradient Iteration
computing hessian-vector products by finite difference
             10      6.19e-07     00000 Conjugate Gradient Iteration
computing hessian-vector products by finite difference
             11      1.11e-07     00000 Conjugate Gradient Iteration
computing hessian-vector products by finite difference
             12      1.50e-08     00000 Conjugate Gradient Iteration
computing hessian-vector products by finite difference
             13      3.69e-09     00000 CG Converged
batch 0 complete
Done Calculating Responses
TESTING ORTHOGONALIZATION OF MULTIPOLE BASIS
Multipole virts passed orthogonality test
Virts Per Order
           75
          125
 
 --------------------------------------------------------------
 
                    Orbital Energies (a.u.)
 --------------------------------------------------------------
 
 Alpha MOs
 -- Occupied --
-10.2818 -10.2741 -10.2739 -10.2713 -10.2704 -10.2702 -10.2613  -0.9970
 -0.9082  -0.8791  -0.8136  -0.7311  -0.7060  -0.6300  -0.5741  -0.5686
 -0.5380  -0.5308  -0.5148  -0.4859  -0.4734  -0.4426  -0.4413  -0.3492
 -0.3381
 -- Virtual --
  0.0619   0.0634   0.0678   0.0790   0.0844   0.1043   0.1102   0.1133
  0.1353   0.1534   0.1654   0.1715   0.1832   0.1902   0.1940   0.1993
  0.2219   0.2265   0.2329   0.2396   0.2475   0.2569   0.2594   0.2699
  0.2797   0.2833   0.2868   0.2898   0.2934   0.3001   0.3022   0.3109
  0.3202   0.3240   0.3299   0.3388   0.3512   0.3527   0.3663   0.3728
  0.3754   0.3807   0.3862   0.3893   0.3915   0.3984   0.4032   0.4036
  0.4135   0.4275   0.4305   0.4361   0.4402   0.4471   0.4503   0.4561
  0.4657   0.4715   0.4755   0.4844   0.4918   0.4960   0.5111   0.5132
  0.5150   0.5231   0.5323   0.5412   0.5447   0.5500   0.5522   0.5678
  0.5741   0.5806   0.5888   0.5961   0.5988   0.6225   0.6344   0.6426
  0.6677   0.6726   0.6829   0.6859   0.6914   0.7000   0.7187   0.7236
  0.7283   0.7348   0.7447   0.7586   0.7634   0.7655   0.7730   0.7829
  0.7899   0.7917   0.7988   0.8003   0.8078   0.8220   0.8265   0.8280
  0.8339   0.8370   0.8477   0.8559   0.8612   0.8677   0.8824   0.8942
  0.9121   0.9221   0.9346   0.9460   0.9497   1.0027   1.0315   1.0380
  1.0470   1.0605   1.0687   1.0727   1.0903   1.0961   1.1034   1.1416
  1.1610   1.1734   1.2593   1.2734   1.2943   1.3302   1.3520   1.3570
  1.3725   1.4380   1.4470   1.4593   1.4608   1.4753   1.5267   1.5341
  1.6027   1.6107   1.6202   1.6255   1.6550   1.6769   1.7343   1.7730
  1.7813   1.7930   1.8025   1.8125   1.8318   1.8592   1.8839   1.9119
  1.9155   1.9232   1.9329   1.9656   1.9864   1.9909   2.0110   2.0256
  2.0313   2.0427   2.0660   2.0875   2.1073   2.1221   2.1720   2.1888
  2.1992   2.2287   2.2489   2.2780   2.2895   2.3101   2.3849   2.3992
  2.4024   2.4150   2.4655   2.5110   2.5426   2.5555   2.5612   2.5944
  2.6235   2.6407   2.6697   2.6810   2.6967   2.7043   2.7598   2.7704
  2.7809   2.8062   2.8098   2.8441   2.8580   2.8936   2.9109   2.9171
  2.9280   2.9394   2.9728   2.9771   2.9901   3.0147   3.0237   3.0494
  3.0601   3.0862   3.0976   3.1270   3.1667   3.1891   3.2004   3.2179
  3.2301   3.2498   3.2799   3.2869   3.3500   3.3552   3.3629   3.3774
  3.4075   3.4325   3.4405   3.4505   3.4600   3.4771   3.4853   3.4908
  3.5055   3.5349   3.5392   3.5424   3.5514   3.5680   3.5712   3.6032
  3.6294   3.6345   3.6559   3.6935   3.7160   3.7474   3.7665   3.8085
  3.8553   3.9011   3.9182   3.9499   3.9551   3.9942   4.0330   4.0488
  4.1220   4.2034   4.2667   4.2720   4.2863   4.3107   4.3247   4.3383
  4.3478   4.3639   4.3890   4.3982   4.4208   4.4419   4.4876   4.5292
  4.5938   4.6109   4.7598   4.7875   4.8227   4.8611   4.9095   4.9453
  5.0216   5.0495   5.1673   5.2623   5.3610   5.3810   5.4991   5.5344
  5.6649   5.8507  22.5819  22.6930  22.8828  22.8922  23.0031  23.0683
 23.4157
 --------------------------------------------------------------
 
          Ground-State Mulliken Net Atomic Charges

     Atom                 Charge (a.u.)
  ----------------------------------------
      1 C                    -1.017954
      2 C                    -0.533303
      3 C                    -0.473138
      4 C                    -0.397067
      5 C                     0.888941
      6 C                    -0.469716
      7 C                    -0.324180
      8 H                     0.312467
      9 H                     0.332391
     10 H                     0.289053
     11 H                     0.316078
     12 H                     0.246940
     13 H                     0.269138
     14 H                     0.341498
     15 H                     0.218854
  ----------------------------------------
  Sum of atomic charges =     0.000000

 -----------------------------------------------------------------
                    Cartesian Multipole Moments
 -----------------------------------------------------------------
    Charge (ESU x 10^10)
                 0.0000
    Dipole Moment (Debye)
         X       0.4145      Y      -0.1904      Z       0.1493
       Tot       0.4800
    Quadrupole Moments (Debye-Ang)
        XX     -36.6276     XY      -2.2311     YY     -43.3809
        XZ      -0.7790     YZ      -3.4630     ZZ     -40.6212
    Octopole Moments (Debye-Ang^2)
       XXX    -226.6435    XXY      75.4658    XYY     -78.3721
       YYY     277.5557    XXZ      48.1193    XYZ      -0.6223
       YYZ      73.2340    XZZ     -78.3436    YZZ      96.9635
       ZZZ     162.9336
    Hexadecapole Moments (Debye-Ang^3)
      XXXX   -1427.9142   XXXY     541.4195   XXYY    -441.2067
      XYYY     585.3335   YYYY   -1352.1748   XXXZ     255.1406
      XXYZ     -79.9990   XYYZ     108.9337   YYYZ    -343.6027
      XXZZ    -353.4917   XYZZ     199.6694   YYZZ    -378.4097
      XZZZ     274.1127   YZZZ    -311.0041   ZZZZ    -727.0151
 -----------------------------------------------------------------
Archival summary:
1\1\nid00541\SP\ProcedureUnspecified\BasisUnspecified\78\meili\SunSep2616:39:162021SunSep2616:39:162021\0\\#,ProcedureUnspecified,BasisUnspecified,\\0,1\C\C,1,1.39446\H,2,1.08041,1,120.42\C,2,1.39451,1,120.357,3,179.703,0\H,4,1.07871,2,120.141,1,-179.531,0\C,4,1.39472,2,120.03,1,-0.299192,0\H,6,1.08175,4,120.053,2,-179.752,0\C,6,1.3938,4,119.883,2,0.124223,0\H,8,1.08059,6,120.161,4,179.396,0\C,1,1.39493,2,119.404,3,-179.27,0\H,10,1.07936,1,120.031,2,178.994,0\C,1,1.49684,2,120.549,3,0.17198,0\H,12,1.08428,1,109.024,2,-50.2955,0\H,12,1.0924,1,107.876,2,-165.62,0\H,12,1.1,1,114.244,2,73.588,0\\\@

 Total job time:  27226.29s(wall), 53924.69s(cpu) 
 Sun Sep 26 16:39:19 2021

        *************************************************************
        *                                                           *
        *  Thank you very much for using Q-Chem.  Have a nice day.  *
        *                                                           *
        *************************************************************


Done Job For Fragment 0
calling putenv with: QCSCRATCH=/global/cscratch1/sd/meili 
calling putenv with: QCLOCALSCR=/tmp 
calling putenv with: QCTHREADS=32 
Creating input file /tmp/qchem31033/Frg2.input
using default PutDataFrgm: nothing
calling putenv with: QCSCRATCH=/tmp/qchem31033/ 
calling putenv with: QCLOCALSCR=/tmp/qchem31033/ 
Spawning Job For Fragment 1
                  Welcome to Q-Chem
     A Quantum Leap Into The Future Of Chemistry


 Q-Chem 5.2, Q-Chem, Inc., Pleasanton, CA (2019)

 License issued to: National Energy Research Scientific Computing Center

 Yihan Shao,  Zhengting Gan,  E. Epifanovsky,  A. T. B. Gilbert,  M. Wormit,  
 J. Kussmann,  A. W. Lange,  A. Behn,  Jia Deng,  Xintian Feng,  D. Ghosh,  
 M. Goldey,  P. R. Horn,  L. D. Jacobson,  I. Kaliman,  T. Kus,  A. Landau,  
 Jie Liu,  E. I. Proynov,  R. M. Richard,  R. P. Steele,  E. J. Sundstrom,  
 H. L. Woodcock III,  P. M. Zimmerman,  D. Zuev,  B. Albrecht,  E. Alguire,  
 S. A. Baeppler,  D. Barton,  Z. Benda,  Y. A. Bernard,  E. J. Berquist,  
 K. B. Bravaya,  H. Burton,  D. Casanova,  Chun-Min Chang,  Yunqing Chen,  
 A. Chien,  K. D. Closser,  M. P. Coons,  S. Coriani,  S. Dasgupta,  
 A. L. Dempwolff,  M. Diedenhofen,  Hainam Do,  R. G. Edgar,  Po-Tung Fang,  
 S. Faraji,  S. Fatehi,  Qingguo Feng,  K. D. Fenk,  J. Fosso-Tande,  
 J. Gayvert,  Qinghui Ge,  A. Ghysels,  G. Gidofalvi,  J. Gomes,  
 J. Gonthier,  A. Gunina,  D. Hait,  M. W. D. Hanson-Heine,  
 P. H. P. Harbach,  A. W. Hauser,  M. F. Herbst,  J. E. Herr,  
 E. G. Hohenstein,  Z. C. Holden,  Kerwin Hui,  B. C. Huynh,  T.-C. Jagau,  
 Hyunjun Ji,  B. Kaduk,  K. Khistyaev,  Jaehoon Kim,  P. Klunzinger,  K. Koh,  
 D. Kosenkov,  L. Koulias,  T. Kowalczyk,  C. M. Krauter,  A. Kunitsa,  
 Ka Un Lao,  A. Laurent,  K. V. Lawler,  Joonho Lee,  D. Lefrancois,  
 S. Lehtola,  D. S. Levine,  Yi-Pei Li,  You-Sheng Lin,  Fenglai Liu,  
 E. Livshits,  A. Luenser,  P. Manohar,  E. Mansoor,  S. F. Manzer,  
 Shan-Ping Mao,  Yuezhi Mao,  N. Mardirossian,  A. V. Marenich,  
 T. Markovich,  L. A. Martinez-Martinez,  S. A. Maurer,  N. J. Mayhall,  
 S. C. McKenzie,  J.-M. Mewes,  P. Morgante,  A. F. Morrison,  
 J. W. Mullinax,  K. Nanda,  T. S. Nguyen-Beck,  R. Olivares-Amaya,  
 J. A. Parkhill,  Zheng Pei,  T. M. Perrine,  F. Plasser,  P. Pokhilko,  
 S. Prager,  A. Prociuk,  E. Ramos,  D. R. Rehn,  F. Rob,  M. Scheurer,  
 M. Schneider,  N. Sergueev,  S. M. Sharada,  S. Sharma,  D. W. Small,  
 T. Stauch,  T. Stein,  Yu-Chuan Su,  A. J. W. Thom,  A. Tkatchenko,  
 T. Tsuchimochi,  N. M. Tubman,  L. Vogt,  M. L. Vidal,  O. Vydrov,  
 M. A. Watson,  J. Wenzel,  M. de Wergifosse,  T. A. Wesolowski,  A. White,  
 J. Witte,  A. Yamada,  Jun Yang,  K. Yao,  S. Yeganeh,  S. R. Yost,  
 Zhi-Qiang You,  A. Zech,  Igor Ying Zhang,  Xing Zhang,  Yan Zhao,  
 Ying Zhu,  B. R. Brooks,  G. K. L. Chan,  C. J. Cramer,  M. S. Gordon,  
 W. J. Hehre,  A. Klamt,  M. W. Schmidt,  C. D. Sherrill,  D. G. Truhlar,  
 A. Aspuru-Guzik,  R. Baer,  A. T. Bell,  N. A. Besley,  Jeng-Da Chai,  
 A. E. DePrince, III,  R. A. DiStasio Jr.,  A. Dreuw,  B. D. Dunietz,  
 T. R. Furlani,  Chao-Ping Hsu,  Yousung Jung,  Jing Kong,  D. S. Lambrecht,  
 WanZhen Liang,  C. Ochsenfeld,  V. A. Rassolov,  L. V. Slipchenko,  
 J. E. Subotnik,  T. Van Voorhis,  J. M. Herbert,  A. I. Krylov,  
 P. M. W. Gill,  M. Head-Gordon

 Contributors to earlier versions of Q-Chem not listed above: 
 R. D. Adamson,  B. Austin,  J. Baker,  G. J. O. Beran,  K. Brandhorst,  
 S. T. Brown,  E. F. C. Byrd,  A. K. Chakraborty,  C.-L. Cheng,  
 Siu Hung Chien,  D. M. Chipman,  D. L. Crittenden,  H. Dachsel,  
 R. J. Doerksen,  A. D. Dutoi,  L. Fusti-Molnar,  W. A. Goddard III,  
 A. Golubeva-Zadorozhnaya,  S. R. Gwaltney,  G. Hawkins,  A. Heyden,  
 S. Hirata,  G. Kedziora,  F. J. Keil,  C. Kelley,  Jihan Kim,  R. A. King,  
 R. Z. Khaliullin,  P. P. Korambath,  W. Kurlancheek,  A. M. Lee,  M. S. Lee,  
 S. V. Levchenko,  Ching Yeh Lin,  D. Liotard,  R. C. Lochan,  I. Lotan,  
 P. E. Maslen,  N. Nair,  D. P. O'Neill,  D. Neuhauser,  E. Neuscamman,  
 C. M. Oana,  R. Olson,  B. Peters,  R. Peverati,  P. A. Pieniazek,  
 Y. M. Rhee,  J. Ritchie,  M. A. Rohrdanz,  E. Rosta,  N. J. Russ,  
 H. F. Schaefer III,  N. E. Schultz,  N. Shenvi,  A. C. Simmonett,  A. Sodt,  
 D. Stuck,  K. S. Thanthiriwatte,  V. Vanovschi,  Tao Wang,  A. Warshel,  
 C. F. Williams,  Q. Wu,  X. Xu,  W. Zhang

 Please cite Q-Chem as follows:
 Y. Shao et al., Mol. Phys. 113, 184-215 (2015)
 DOI: 10.1080/00268976.2014.952696

 Q-Chem 5.2.0 for Intel X86 EM64T Linux

 Parts of Q-Chem use Armadillo 8.300.2 (Tropical Shenanigans).
 http://arma.sourceforge.net/

 Q-Chem begins on Sun Sep 26 16:39:25 2021  

Host: cori01
0

     Scratch files written to /tmp/qchem31033//Frg2//
 May1019 |scratch|qcdevops|jenkins|workspace|build_RNUM -1
Processing $rem in /global/common/cori/software/qchem/5.2/config/preferences:
	 MEM_TOTAL  96000 
NAlpha2: 50
NElect   50
Mult     1
Symmetry turned off for PCM/SM12/SMD calculation

Checking the input file for inconsistencies... 	...done.

--------------------------------------------------------------
User input:
--------------------------------------------------------------
$molecule
0 1
 6	-3.3428671327	2.3920439879	3.3528925386
 6	-1.7418671327	0.8750439879	0.2678925386
 6	-2.5438671327	1.0410439879	1.3938925386
 6	-0.8928671327	1.9060439879	-0.1361074614
 6	-2.5088671327	2.2330439879	2.1148925386
 6	-0.8548671327	3.0990439879	0.5808925386
 6	-1.6598671327	3.2590439879	1.7028925386
 1	-1.7648671327	-0.0529560121	-0.2831074614
 1	-3.1948671327	0.2400439879	1.7078925386
 1	-0.2498671327	1.7780439879	-0.9951074614
 1	-0.2008671327	3.8980439879	0.2608925386
 1	-4.2928671327	1.8730439879	3.2208925386
 1	-3.5718671327	3.4500439879	3.4928925386
 1	-1.6258671327	4.1850439879	2.2558925386
 1	-2.8428421327	2.0195339879	4.2590985386
$end
$rem
EDA2		1
METHOD		WB97X-V
BASIS		DEF2-TZVPD
XC_GRID		000099000590
NL_GRID		1
UNRESTRICTED		FALSE
MAX_SCF_CYCLES		200
SYMMETRY		FALSE
SYM_IGNORE		TRUE
BASIS_LIN_DEP_THRESH		6
THRESH		14
SCF_CONVERGENCE		8
SCF_PRINT_FRGM		TRUE
SOLVENT_METHOD		PCM
!required keywords
JOBTYPE		SP
SYM_IGNORE		TRUE
SUBSYSTEM		TRUE
GEN_SCFMAN		TRUE
CHILD_INSTRUCTION		2
SYM_IGNORE		TRUE
SCFMI		0
RI_K 0		
PARI_K 0		
MIN_PARI_K 0		
IARI_K 0		
OCC_RI_K 0		
PURECART		1111
MEM_STATIC		2000
MEM_TOTAL		96000
GUI		0
CHILD_MP		1
CHILD_MP_ORDERS		232
FRZ_RELAX		0
FRZ_RELAX_METHOD		0
EDA_CLS_ELEC		1
EDA_CLS_DISP		0
FRZ_ORTHO_DECOMP		1
EDA2		FALSE
FRGM_METHOD		FALSE
CIS_N_ROOTS  0
LOCAL_CIS    0
CIS_RLX_DNS  1
$end
$pcm
THEORY                  CPCM
METHOD                  SWIG
SOLVER                  INVERSION
RADII                   UFF
HPOINTS                 302
HEAVYPOINTS             302
PRINTLEVEL              0
$end
$solvent
DIELECTRIC              78.390000 ! water
$end
--------------------------------------------------------------
 ----------------------------------------------------------------
             Standard Nuclear Orientation (Angstroms)
    I     Atom           X                Y                Z
 ----------------------------------------------------------------
    1      C      -3.3428671327     2.3920439879     3.3528925386
    2      C      -1.7418671327     0.8750439879     0.2678925386
    3      C      -2.5438671327     1.0410439879     1.3938925386
    4      C      -0.8928671327     1.9060439879    -0.1361074614
    5      C      -2.5088671327     2.2330439879     2.1148925386
    6      C      -0.8548671327     3.0990439879     0.5808925386
    7      C      -1.6598671327     3.2590439879     1.7028925386
    8      H      -1.7648671327    -0.0529560121    -0.2831074614
    9      H      -3.1948671327     0.2400439879     1.7078925386
   10      H      -0.2498671327     1.7780439879    -0.9951074614
   11      H      -0.2008671327     3.8980439879     0.2608925386
   12      H      -4.2928671327     1.8730439879     3.2208925386
   13      H      -3.5718671327     3.4500439879     3.4928925386
   14      H      -1.6258671327     4.1850439879     2.2558925386
   15      H      -2.8428421327     2.0195339879     4.2590985386
 ----------------------------------------------------------------
 Nuclear Repulsion Energy =         269.95210380 hartrees
 There are       25 alpha and       25 beta electrons
 Requested basis set is def2-TZVPD
 There are 131 shells and 331 basis functions

 Total QAlloc Memory Limit  96000 MB
 Mega-Array Size      1956 MB
 MEM_STATIC part      2000 MB
 Discretize the solute cavity surface with Lebedev spheres
	Using 302 Lebedev grid points for each H atom
	Using 302 Lebedev grid points for other atoms
	Atomic van der Waals radii will be scaled by 1.20
 Remove points where switching function is < 1.0e-08
 Keep 1788 surface tesserae and discard 2742 interior tesserae
 Molecular Surface Area = 177.894 Angst**2

                       Distance Matrix (Angstroms)
             C (  1)   C (  2)   C (  3)   C (  4)   C (  5)   C (  6)
   C (  2)  3.792323
   C (  3)  2.510236  1.392349
   C (  4)  4.290899  1.395342  2.411416
   C (  5)  1.501160  2.417408  1.393531  2.790230
   C (  6)  3.791303  2.414729  2.783712  1.392402  2.416367
   C (  7)  2.511310  2.783775  2.407584  2.408489  1.393995  1.390147
   H (  8)  4.657103  1.079497  2.148489  2.149343  3.395546  3.392595
   H (  9)  2.712754  2.141970  1.078887  3.387491  2.146694  3.862591
   H ( 10)  5.371103  2.153286  3.393070  1.080608  3.870685  2.143558
   H ( 11)  4.658397  3.393119  3.864685  2.145818  3.396528  1.080980
   H ( 12)  1.090543  4.027880  2.662547  4.778131  2.129669  4.504722
   H ( 13)  1.091515  4.514438  3.356466  4.767664  2.123662  3.998129
   H ( 14)  2.714102  3.862862  3.386813  3.384198  2.147062  2.139968
   H ( 15)  1.099999  4.295548  3.042406  4.809690  2.180538  4.318169
             C (  7)   H (  8)   H (  9)   H ( 10)   H ( 11)   H ( 12)
   H (  8)  3.863232
   H (  9)  3.386829  2.468771
   H ( 10)  3.385360  2.480873  4.283069
   H ( 11)  2.148573  4.283974  4.943562  2.464617
   H ( 12)  3.340361  4.730568  2.482229  5.842048  5.441203
   H ( 13)  2.626085  5.458428  3.692215  5.828672  4.691500  1.755208
   H ( 14)  1.079093  4.942316  4.280781  4.272707  2.468404  3.659161
   H ( 15)  3.077337  5.107728  3.130361  5.864172  5.147279  1.789386
             H ( 13)   H ( 14)
   H ( 14)  2.420188
   H ( 15)  1.779019  3.191128
 
 A cutoff of  1.0D-14 yielded   8360 shell pairs
 There are     54504 function pairs (     69458 Cartesian)
 Smallest overlap matrix eigenvalue = 5.59E-07
 Linear dependence detected in AO basis
 Tighter screening thresholds may be required for diffuse basis sets
 Use S2THRESH > 14 and THRESH = 14 in case of SCF convergence issues
 Number of orthogonalized atomic orbitals = 330
 Maximum deviation from orthogonality = 1.303E-10

 Scale SEOQF with 1.000000e-01/1.000000e-01/1.000000e-01

 Standard Electronic Orientation quadrupole field applied
 Nucleus-field energy     =     0.0000000094 hartrees
 Guess from superposition of atomic densities
 Warning:  Energy on first SCF cycle will be non-variational
 SAD guess density has 49.913408 electrons

 -----------------------------------------------------------------------
  General SCF calculation program by
  Eric Jon Sundstrom, Paul Horn, Yuezhi Mao, Dmitri Zuev, Alec White,
  David Stuck, Shaama M.S., Shane Yost, Joonho Lee, David Small,
  Daniel Levine, Susi Lehtola, Hugh Burton, Evgeny Epifanovsky
 -----------------------------------------------------------------------
 Exchange:     0.1670 Hartree-Fock + 1.0000 wB97X-V + LR-HF
 Correlation:  1.0000 wB97X-V
 Using Euler-Maclaurin-Lebedev (99,590) quadrature formula
 Nonlocal Correlation:  VV10 with C = 0.0100 and b = 6.00 and scale = 1.00000
 Grid used for NLC:  SG-1 standard quadrature
Energy prior to optimization (guess energy) = -271.520271358477
Begin Timing: Total SCF Calculation
begin iterations for algorithm: DIIS         
the SCF tolerance is set to 1.00e-08
    1    -271.5202713585      1.96e-03     00000 
    2    -271.5593947863      1.26e-03     00000 
    3    -271.5814153690      1.39e-04     00000 
    4    -271.5818294022      4.96e-05     00000 
    5    -271.5818648336      1.71e-05     00000 
    6    -271.5818697546      4.59e-06     00000 
    7    -271.5818701417      2.01e-06     00000 
    8    -271.5818702124      3.28e-07     00000 
    9    -271.5818702154      6.69e-08     00000 
   10    -271.5818702156      3.58e-08     00000 
   11    -271.5818702156      6.14e-09     00000 Convergence criterion met
Timing for Total SCF: 1233.00s (wall), 2443.03s (cpu)

************** Final PCM Free Energy Summary **************
 G_electrostatic  =      -0.00246963 hartree =      -1.54971602 kcal/mol
 G_cavitation     =       0.00000000 hartree =       0.00000000 kcal/mol
 G_dispersion     =       0.00000000 hartree =       0.00000000 kcal/mol
 G_repulsion      =       0.00000000 hartree =       0.00000000 kcal/mol
 --------------------------------------------------
 Non-electrostatic Free Energy =       0.00000000 hartree =       0.00000000 kcal/mol
 Total                         =      -0.00246963 hartree =      -1.54971602 kcal/mol
 --------------------------------------------------
 SCF Energy (H0 + V/2)                       =    -271.58187022 
 Solute Internal Energy (H0)                 =    -271.57940059 
 Total Free Energy (H0 + V/2 + non-elec)     =    -271.58187022 hartree
                                             = -170420.19571216 kcal/mol
***********************************************************

E_pcm = -0.0024696297
Multipole orders to be included
        2
        3
computing dipole RHS
computing quadrupole RHS
total number of RHS in solve_reponses: 8
RHS batch sizes
        8
Beginning Block Conjugate Gradient Iterations. Batch Number: 0
computing hessian-vector products by finite difference
              1      5.68e-01     00000 Conjugate Gradient Iteration
computing hessian-vector products by finite difference
              2      1.87e-01     00000 Conjugate Gradient Iteration
computing hessian-vector products by finite difference
              3      4.28e-02     00000 Conjugate Gradient Iteration
computing hessian-vector products by finite difference
              4      9.38e-03     00000 Conjugate Gradient Iteration
computing hessian-vector products by finite difference
              5      2.18e-03     00000 Conjugate Gradient Iteration
computing hessian-vector products by finite difference
              6      5.63e-04     00000 Conjugate Gradient Iteration
computing hessian-vector products by finite difference
              7      1.94e-04     00000 Conjugate Gradient Iteration
computing hessian-vector products by finite difference
              8      2.95e-05     00000 Conjugate Gradient Iteration
computing hessian-vector products by finite difference
              9      3.32e-06     00000 Conjugate Gradient Iteration
computing hessian-vector products by finite difference
             10      5.67e-07     00000 Conjugate Gradient Iteration
computing hessian-vector products by finite difference
             11      8.40e-08     00000 Conjugate Gradient Iteration
computing hessian-vector products by finite difference
             12      1.24e-08     00000 Conjugate Gradient Iteration
computing hessian-vector products by finite difference
             13      3.29e-09     00000 CG Converged
batch 0 complete
Done Calculating Responses
TESTING ORTHOGONALIZATION OF MULTIPOLE BASIS
Multipole virts passed orthogonality test
Virts Per Order
           75
          125
 
 --------------------------------------------------------------
 
                    Orbital Energies (a.u.)
 --------------------------------------------------------------
 
 Alpha MOs
 -- Occupied --
-10.2816 -10.2739 -10.2732 -10.2709 -10.2697 -10.2695 -10.2622  -0.9976
 -0.9074  -0.8800  -0.8132  -0.7311  -0.7063  -0.6305  -0.5742  -0.5683
 -0.5365  -0.5315  -0.5140  -0.4874  -0.4734  -0.4421  -0.4416  -0.3500
 -0.3378
 -- Virtual --
  0.0631   0.0632   0.0671   0.0790   0.0844   0.1044   0.1104   0.1137
  0.1356   0.1524   0.1659   0.1671   0.1869   0.1892   0.1947   0.2007
  0.2223   0.2251   0.2336   0.2394   0.2482   0.2579   0.2601   0.2686
  0.2798   0.2800   0.2831   0.2920   0.2927   0.3011   0.3053   0.3105
  0.3212   0.3243   0.3323   0.3340   0.3491   0.3528   0.3663   0.3712
  0.3778   0.3815   0.3833   0.3881   0.3893   0.4015   0.4045   0.4080
  0.4092   0.4272   0.4291   0.4354   0.4407   0.4483   0.4506   0.4524
  0.4610   0.4695   0.4747   0.4806   0.4923   0.4943   0.5119   0.5156
  0.5168   0.5255   0.5339   0.5366   0.5395   0.5461   0.5486   0.5668
  0.5830   0.5871   0.5952   0.5976   0.6028   0.6210   0.6417   0.6438
  0.6612   0.6726   0.6834   0.6845   0.6868   0.6974   0.7203   0.7226
  0.7288   0.7299   0.7438   0.7595   0.7637   0.7644   0.7777   0.7858
  0.7889   0.7920   0.7981   0.8003   0.8073   0.8219   0.8249   0.8315
  0.8337   0.8357   0.8400   0.8511   0.8601   0.8743   0.8861   0.8952
  0.9076   0.9182   0.9320   0.9482   0.9508   1.0110   1.0195   1.0412
  1.0434   1.0610   1.0730   1.0777   1.0858   1.0883   1.1027   1.1431
  1.1651   1.1790   1.2471   1.2747   1.2952   1.3146   1.3472   1.3485
  1.3778   1.4340   1.4517   1.4581   1.4637   1.4856   1.5243   1.5351
  1.5984   1.6003   1.6179   1.6221   1.6661   1.6752   1.7365   1.7768
  1.7909   1.7968   1.8034   1.8150   1.8291   1.8680   1.8836   1.9100
  1.9182   1.9288   1.9516   1.9582   1.9823   1.9961   2.0120   2.0251
  2.0285   2.0458   2.0679   2.0929   2.1130   2.1217   2.1708   2.1758
  2.1932   2.2334   2.2408   2.2641   2.2880   2.3102   2.3925   2.3996
  2.4030   2.4099   2.4819   2.5063   2.5385   2.5525   2.5622   2.6074
  2.6178   2.6220   2.6678   2.6700   2.6955   2.7117   2.7524   2.7662
  2.7892   2.8105   2.8189   2.8457   2.8597   2.9038   2.9080   2.9128
  2.9372   2.9428   2.9574   2.9746   2.9887   3.0163   3.0182   3.0492
  3.0623   3.0867   3.0973   3.1373   3.1774   3.1885   3.2007   3.2260
  3.2302   3.2367   3.2880   3.3085   3.3284   3.3548   3.3686   3.3761
  3.3969   3.4461   3.4466   3.4470   3.4563   3.4734   3.4910   3.4983
  3.5080   3.5223   3.5392   3.5416   3.5611   3.5698   3.5873   3.6034
  3.6114   3.6338   3.6534   3.6855   3.7078   3.7494   3.7848   3.8134
  3.8356   3.8899   3.9060   3.9580   3.9660   3.9898   4.0332   4.0544
  4.1129   4.1992   4.2670   4.2754   4.2944   4.3149   4.3204   4.3217
  4.3488   4.3685   4.3814   4.4059   4.4373   4.4412   4.4767   4.5250
  4.5981   4.6320   4.7549   4.7627   4.8273   4.8890   4.9017   4.9481
  5.0234   5.0492   5.1670   5.2633   5.3683   5.3796   5.5035   5.5311
  5.6700   5.8489  22.5762  22.6712  22.8847  22.8981  23.0144  23.0727
 23.4215
 --------------------------------------------------------------
 
          Ground-State Mulliken Net Atomic Charges

     Atom                 Charge (a.u.)
  ----------------------------------------
      1 C                    -1.041781
      2 C                    -0.506071
      3 C                    -0.363603
      4 C                    -0.468804
      5 C                     0.897934
      6 C                    -0.508050
      7 C                    -0.374697
      8 H                     0.315009
      9 H                     0.330387
     10 H                     0.331503
     11 H                     0.311006
     12 H                     0.272834
     13 H                     0.275594
     14 H                     0.317942
     15 H                     0.210798
  ----------------------------------------
  Sum of atomic charges =     0.000000

 -----------------------------------------------------------------
                    Cartesian Multipole Moments
 -----------------------------------------------------------------
    Charge (ESU x 10^10)
                 0.0000
    Dipole Moment (Debye)
         X      -0.2245      Y       0.0306      Z       0.4273
       Tot       0.4837
    Quadrupole Moments (Debye-Ang)
        XX     -41.6126     XY       1.6361     YY     -39.2154
        XZ      -4.5889     YZ       2.6449     ZZ     -39.6539
    Octopole Moments (Debye-Ang^2)
       XXX     247.2758    XXY     -95.5641    XYY      85.7534
       YYY    -249.9954    XXZ     -44.2175    XYZ     -10.5904
       YYZ     -46.2087    XZZ      72.4688    YZZ     -81.5653
       ZZZ    -166.0818
    Hexadecapole Moments (Debye-Ang^3)
      XXXX   -1254.2806   XXXY     524.2812   XXYY    -461.5197
      XYYY     506.4087   YYYY   -1326.0876   XXXZ     429.2931
      XXYZ    -114.1161   XYYZ     123.2434   YYYZ    -356.6730
      XXZZ    -332.2208   XYZZ     141.6666   YYZZ    -360.4888
      XZZZ     442.3371   YZZZ    -389.3016   ZZZZ    -891.3750
 -----------------------------------------------------------------
Archival summary:
1\1\nid00541\SP\ProcedureUnspecified\BasisUnspecified\78\meili\MonSep2700:12:322021MonSep2700:12:322021\0\\#,ProcedureUnspecified,BasisUnspecified,\\0,1\C\C,1,1.39353\H,2,1.07889,1,119.976\C,2,1.39235,1,120.393,3,-179.967,0\H,4,1.0795,2,120.199,1,179.445,0\C,1,1.39399,2,119.469,3,179.743,0\H,6,1.07909,1,119.955,2,-179.948,0\C,6,1.39015,1,120.432,2,0.115878,0\H,8,1.08098,6,120.278,1,179.71,0\C,8,1.3924,6,119.896,1,-0.139666,0\H,10,1.08061,8,119.642,6,-178.688,0\C,1,1.50116,2,120.221,3,1.89235,0\H,12,1.09054,1,109.496,2,-35.9293,0\H,12,1.09152,1,108.966,2,-152.771,0\H,12,1.1,1,113.016,2,86.481,0\\\@

 Total job time:  27191.85s(wall), 53705.04s(cpu) 
 Mon Sep 27 00:12:36 2021

        *************************************************************
        *                                                           *
        *  Thank you very much for using Q-Chem.  Have a nice day.  *
        *                                                           *
        *************************************************************


Done Job For Fragment 1
calling putenv with: QCSCRATCH=/global/cscratch1/sd/meili 
calling putenv with: QCLOCALSCR=/tmp 
calling putenv with: QCTHREADS=32 
Doing General SCFMI
 Exchange:     0.1670 Hartree-Fock + 1.0000 wB97X-V + LR-HF
 Correlation:  1.0000 wB97X-V
 Using Euler-Maclaurin-Lebedev (99,590) quadrature formula
 Nonlocal Correlation:  VV10 with C = 0.0100 and b = 6.00 and scale = 1.00000
 Grid used for NLC:  SG-1 standard quadrature
performing fock build before subrot guess so that all methods have access
Printing subrot_rss_gen Method Specification:
Occupied Subspace Method is 0
Virtual Subspace Method is 0
Energy of the unrelaxed supersystem initial determinant -543.159618212450
performing fock build before subrot guess so that all methods have access
Printing subrot_rss_gen Method Specification:
Occupied Subspace Method is 0
Virtual Subspace Method is 0
Energy of the unrelaxed supersystem initial determinant w/ solvent -543.164782732200
write pseudocanon occs and virts to disk
write pseudocanon orbital energies to disk
Tolerance of ortho_decomp_scf: 1.00e-06
GDM subspace size: 20
Beginning the Orthogonal Decomposition of the Initial Supersystem Wavefunction
    1    -543.1520787887      1.14e-02     ortho_decomp Preconditoned Steepest Descent
    2    -543.1526466522      2.65e-04     ortho_decomp BFGS Step
    3    -543.1526481759      1.89e-05     ortho_decomp BFGS Step
    4    -543.1526481787      7.40e-07     ortho_decomp 00000 Convergence criterion met
 Hartree-Fock
 Hartree-Fock
 Hartree-Fock
Doing General SCFMI
 Exchange:     0.1670 Hartree-Fock + 1.0000 wB97X-V + LR-HF
 Correlation:  1.0000 wB97X-V
 Using Euler-Maclaurin-Lebedev (99,590) quadrature formula
 Nonlocal Correlation:  VV10 with C = 0.0100 and b = 6.00 and scale = 1.00000
 Grid used for NLC:  SG-1 standard quadrature
performing fock build at end of subrot_r(subrot) constructor so that all methods have access
<S^2> of initial wavefunction before polarization iterations 0.0000000000
Beginning iterations for the determination of the polarized wavefunction
Energy prior to optimization (guess energy) = -543.164782732201
Begin Timing: Total SCF Calculation
begin iterations for algorithm: DIIS         
the SCF tolerance is set to 1.00e-08
    1    -543.1647827322      2.74e-05     00000 
    2    -543.1648707911      1.08e-05     00000 
    3    -543.1648801865      6.37e-06     00000 
    4    -543.1648833442      1.75e-06     00000 
    5    -543.1648836985      8.53e-07     00000 
    6    -543.1648837727      2.34e-07     00000 
    7    -543.1648837782      7.08e-08     00000 
    8    -543.1648837786      2.98e-08     00000 
    9    -543.1648837786      8.88e-09     00000 Convergence criterion met
write pseudocanon occs and virts to disk
write pseudocanon orbital energies to disk
Timing for Total SCF: 6916.00s (wall), 13761.92s (cpu)
<S^2> of polarized wavefunction after polarization iterations 0.0000000000
relaxing scfmi constraint to allow all rotations in the entire AO span
Doing General SCFMI
 Exchange:     0.1670 Hartree-Fock + 1.0000 wB97X-V + LR-HF
 Correlation:  1.0000 wB97X-V
 Using Euler-Maclaurin-Lebedev (99,590) quadrature formula
 Nonlocal Correlation:  VV10 with C = 0.0100 and b = 6.00 and scale = 1.00000
 Grid used for NLC:  SG-1 standard quadrature
performing fock build at end of subrot_r(subrot) constructor so that all methods have access
<S^2> of polarized wavefunction before ct-allowed iterations 0.0000000000
Beginning iterations for the determination of the CT-Allowed wavefunction
Energy prior to optimization (guess energy) = -543.164883778643
Begin Timing: Total SCF Calculation
begin iterations for algorithm: DIIS         
the SCF tolerance is set to 1.00e-08
    1    -543.1648837786      3.99e-05     00000 
    2    -543.1652082314      3.71e-06     00000 
    3    -543.1652166207      5.70e-07     00000 
    4    -543.1652168737      2.05e-07     00000 
    5    -543.1652168850      7.91e-08     00000 
    6    -543.1652168874      1.66e-08     00000 
    7    -543.1652168875      7.32e-09     00000 Convergence criterion met
write pseudocanon occs and virts to disk
write pseudocanon orbital energies to disk
Timing for Total SCF: 5209.00s (wall), 10369.33s (cpu)
<S^2> of ct_allowed wavefunction after ct-allowed iterations 0.0000000000

================================
        Results of EDA2         
================================
Basic EDA Quantities
--------------------
Fragment Energies (Ha):
1 -271.5813210000
2 -271.5818702156
--------------------
  E_prp (kJ/mol) = -0.0000
  E_sol (kJ/mol) = -0.5269
  E_frz (kJ/mol) = -3.6517
  E_pol (kJ/mol) = -0.2653
  E_vct (kJ/mol) = -0.8746
  E_int (kJ/mol) = -5.3185
--------------------


Initial Wavefunction Decomposition
--------------------
  --------------------
  Orthogonal Fragment Subspace Decomposition:
  --------------------
     E_elec   (ELEC)   (kJ/mol) = -6.0109
     E_pauli  (PAULI)  (kJ/mol) = 11.0823
     E_disp   (DISP)   (kJ/mol) = -8.7231
     --------------------
     Terms summing to E_pauli:
     --------------------
        E_kep_pauli       (kJ/mol) = 14.6483
        E_disp_free_pauli (kJ/mol) = -3.5661
  --------------------
  Classical Frozen Decomposition:
  --------------------
     E_cls_elec  (CLS ELEC)  (kJ/mol) = -1.0087
     E_cls_pauli (CLS PAULI) (kJ/mol) = -2.6430
    [E_mod_pauli (MOD PAULI) (kJ/mol) = 6.0801 (CLS PAULI - DISP from orthogonal decomposition) ]
  --------------------
--------------------

Simplified EDA Summary (kJ/mol)
--------------------
 PREPARATION     -0.0000
 SOLVATION       -0.5269
 FROZEN          5.0714      (does not include dispersion)
[PAULI           11.0823]     (if this is negligible, then frozen describes electrostatics)
 DISPERSION      -8.7231
 POLARIZATION    -0.2653
 CHARGE TRANSFER -0.8746
 TOTAL           -5.3185     (PRP + SOL + FRZ + DISP + POL + CT)
--------------------
 
 --------------------------------------------------------------
 
                    Orbital Energies (a.u.)
 --------------------------------------------------------------
 
 Alpha MOs
 -- Occupied --
-10.2824 -10.2816 -10.2751 -10.2747 -10.2739 -10.2732 -10.2723 -10.2710
-10.2708 -10.2707 -10.2697 -10.2695 -10.2622 -10.2615  -0.9978  -0.9974
 -0.9089  -0.9072  -0.8803  -0.8795  -0.8143  -0.8130  -0.7327  -0.7303
 -0.7068  -0.7061  -0.6328  -0.6287  -0.5752  -0.5740  -0.5706  -0.5671
 -0.5384  -0.5364  -0.5332  -0.5300  -0.5159  -0.5133  -0.4874  -0.4862
 -0.4749  -0.4723  -0.4438  -0.4426  -0.4416  -0.4408  -0.3513  -0.3485
 -0.3395  -0.3367
 -- Virtual --
  0.0561   0.0582   0.0645   0.0663   0.0671   0.0686   0.0760   0.0789
  0.0863   0.0991   0.1002   0.1026   0.1100   0.1109   0.1257   0.1286
  0.1354   0.1485   0.1524   0.1535   0.1613   0.1674   0.1695   0.1780
  0.1823   0.1867   0.1913   0.1932   0.2049   0.2084   0.2134   0.2156
  0.2200   0.2250   0.2287   0.2337   0.2355   0.2399   0.2427   0.2490
  0.2529   0.2581   0.2604   0.2638   0.2671   0.2706   0.2737   0.2764
  0.2803   0.2837   0.2859   0.2871   0.2923   0.2963   0.2980   0.3005
  0.3040   0.3078   0.3099   0.3208   0.3231   0.3280   0.3293   0.3305
  0.3324   0.3403   0.3417   0.3451   0.3482   0.3504   0.3521   0.3561
  0.3629   0.3683   0.3705   0.3730   0.3748   0.3776   0.3791   0.3828
  0.3849   0.3866   0.3882   0.3909   0.3931   0.3976   0.3979   0.4028
  0.4055   0.4109   0.4142   0.4219   0.4234   0.4241   0.4274   0.4304
  0.4382   0.4394   0.4416   0.4458   0.4466   0.4523   0.4538   0.4564
  0.4575   0.4622   0.4649   0.4703   0.4724   0.4759   0.4773   0.4821
  0.4854   0.4899   0.4926   0.4948   0.4997   0.5026   0.5052   0.5100
  0.5140   0.5157   0.5189   0.5224   0.5246   0.5273   0.5338   0.5381
  0.5399   0.5437   0.5479   0.5517   0.5529   0.5586   0.5654   0.5662
  0.5732   0.5767   0.5780   0.5807   0.5867   0.5885   0.5988   0.6039
  0.6067   0.6124   0.6178   0.6200   0.6292   0.6329   0.6365   0.6451
  0.6474   0.6634   0.6648   0.6758   0.6806   0.6842   0.6859   0.6911
  0.6939   0.6959   0.7013   0.7040   0.7082   0.7141   0.7215   0.7232
  0.7270   0.7316   0.7397   0.7441   0.7464   0.7478   0.7501   0.7560
  0.7583   0.7604   0.7655   0.7708   0.7723   0.7795   0.7803   0.7835
  0.7862   0.7900   0.7906   0.7948   0.7987   0.8020   0.8053   0.8115
  0.8127   0.8171   0.8197   0.8257   0.8266   0.8343   0.8359   0.8395
  0.8408   0.8411   0.8477   0.8491   0.8505   0.8602   0.8614   0.8627
  0.8656   0.8725   0.8769   0.8822   0.8884   0.8933   0.8987   0.9024
  0.9054   0.9092   0.9138   0.9164   0.9260   0.9315   0.9416   0.9437
  0.9454   0.9528   0.9591   0.9694   0.9711   0.9865   0.9975   1.0073
  1.0140   1.0270   1.0352   1.0426   1.0520   1.0569   1.0700   1.0731
  1.0845   1.0856   1.0895   1.0935   1.0974   1.1025   1.1144   1.1216
  1.1281   1.1376   1.1508   1.1615   1.1698   1.1775   1.1895   1.2040
  1.2076   1.2294   1.2717   1.2864   1.2971   1.3167   1.3208   1.3283
  1.3474   1.3552   1.3578   1.3690   1.3739   1.3822   1.4019   1.4074
  1.4455   1.4537   1.4652   1.4675   1.4737   1.4782   1.4852   1.4877
  1.4972   1.5046   1.5391   1.5426   1.5533   1.5577   1.5960   1.6007
  1.6086   1.6177   1.6257   1.6309   1.6409   1.6523   1.6659   1.6699
  1.6816   1.6873   1.7068   1.7527   1.7648   1.7859   1.7874   1.7934
  1.7948   1.8031   1.8057   1.8125   1.8155   1.8436   1.8591   1.8700
  1.8844   1.8919   1.9022   1.9208   1.9233   1.9327   1.9411   1.9437
  1.9504   1.9539   1.9609   1.9748   1.9769   1.9843   1.9961   1.9988
  2.0127   2.0222   2.0250   2.0346   2.0399   2.0467   2.0579   2.0656
  2.0760   2.0878   2.0921   2.1033   2.1130   2.1243   2.1334   2.1506
  2.1562   2.1678   2.1919   2.1974   2.2002   2.2150   2.2208   2.2328
  2.2406   2.2424   2.2598   2.2634   2.2749   2.2903   2.3050   2.3096
  2.3342   2.3389   2.3978   2.3998   2.4061   2.4128   2.4187   2.4242
  2.4368   2.4416   2.4803   2.4954   2.5160   2.5209   2.5514   2.5577
  2.5662   2.5711   2.5731   2.5792   2.6011   2.6153   2.6265   2.6281
  2.6381   2.6485   2.6781   2.6813   2.6834   2.6908   2.7114   2.7139
  2.7265   2.7283   2.7567   2.7638   2.7771   2.7809   2.7928   2.8008
  2.8065   2.8150   2.8157   2.8256   2.8497   2.8577   2.8601   2.8652
  2.9009   2.9162   2.9179   2.9194   2.9304   2.9360   2.9386   2.9495
  2.9515   2.9525   2.9688   2.9821   2.9853   2.9965   3.0021   3.0077
  3.0201   3.0242   3.0331   3.0480   3.0581   3.0627   3.0737   3.0825
  3.0945   3.0991   3.1053   3.1133   3.1429   3.1463   3.1767   3.1838
  3.1958   3.2086   3.2124   3.2157   3.2351   3.2373   3.2400   3.2570
  3.2675   3.2821   3.2907   3.3050   3.3192   3.3315   3.3397   3.3583
  3.3614   3.3735   3.3776   3.3822   3.3944   3.4004   3.4071   3.4221
  3.4397   3.4472   3.4488   3.4549   3.4581   3.4645   3.4710   3.4759
  3.4788   3.4935   3.4958   3.5000   3.5053   3.5114   3.5240   3.5298
  3.5364   3.5400   3.5464   3.5486   3.5581   3.5632   3.5652   3.5680
  3.5717   3.5763   3.5833   3.5966   3.6049   3.6086   3.6248   3.6311
  3.6386   3.6476   3.6576   3.6643   3.6834   3.6909   3.6917   3.7104
  3.7183   3.7227   3.7699   3.7952   3.8137   3.8195   3.8415   3.8588
  3.8919   3.9071   3.9151   3.9238   3.9510   3.9589   3.9660   3.9733
  3.9969   4.0023   4.0405   4.0444   4.0620   4.0715   4.1268   4.1316
  4.2079   4.2245   4.2705   4.2761   4.2790   4.2882   4.2931   4.3007
  4.3149   4.3190   4.3260   4.3282   4.3297   4.3431   4.3547   4.3580
  4.3671   4.3739   4.3886   4.3972   4.4062   4.4135   4.4297   4.4481
  4.4492   4.4558   4.4889   4.4940   4.5375   4.5407   4.6004   4.6047
  4.6164   4.6359   4.7600   4.7620   4.7652   4.7945   4.8223   4.8281
  4.8663   4.8924   4.9099   4.9136   4.9540   4.9613   5.0378   5.0418
  5.0551   5.0611   5.1737   5.1813   5.2676   5.2773   5.3653   5.3755
  5.3771   5.3831   5.4986   5.5085   5.5297   5.5341   5.6703   5.6831
  5.8182   5.8198  22.6091  22.6352  22.6758  22.6971  22.8975  22.9094
 22.9195  22.9338  23.0161  23.0348  23.0765  23.0856  23.4198  23.4301
 --------------------------------------------------------------
 
          Ground-State Mulliken Net Atomic Charges

     Atom                 Charge (a.u.)
  ----------------------------------------
      1 C                    -1.096537
      2 C                    -0.368113
      3 C                    -0.450654
      4 C                    -0.388897
      5 C                     0.657417
      6 C                    -0.474756
      7 C                    -0.296710
      8 H                     0.323069
      9 H                     0.376784
     10 H                     0.318948
     11 H                     0.316460
     12 H                     0.258858
     13 H                     0.269728
     14 H                     0.359265
     15 H                     0.220530
     16 C                    -1.090816
     17 C                    -0.210051
     18 C                    -0.605515
     19 C                    -0.372794
     20 C                     0.680628
     21 C                    -0.549594
     22 C                    -0.372113
     23 H                     0.307046
     24 H                     0.342179
     25 H                     0.402078
     26 H                     0.324939
     27 H                     0.282156
     28 H                     0.281236
     29 H                     0.342038
     30 H                     0.213190
  ----------------------------------------
  Sum of atomic charges =     0.000000

 -----------------------------------------------------------------
                    Cartesian Multipole Moments
 -----------------------------------------------------------------
    Charge (ESU x 10^10)
                -0.0000
    Dipole Moment (Debye)
         X       0.2662      Y      -0.1851      Z       0.5725
       Tot       0.6579
    Quadrupole Moments (Debye-Ang)
        XX     -78.1514     XY      -0.7451     YY     -82.5040
        XZ      -5.4653     YZ      -0.7865     ZZ     -80.2431
    Octopole Moments (Debye-Ang^2)
       XXX      21.4330    XXY     -20.4879    XYY       7.7946
       YYY      27.1570    XXZ       3.7279    XYZ     -11.0587
       YYZ      26.9846    XZZ      -5.5686    YZZ      15.2581
       ZZZ      -3.3757
    Hexadecapole Moments (Debye-Ang^3)
      XXXX   -2680.1817   XXXY    1064.1551   XXYY    -901.6998
      XYYY    1090.5303   YYYY   -2677.2640   XXXZ     683.6274
      XXYZ    -193.7248   XYYZ     231.8146   YYYZ    -700.2411
      XXZZ    -685.2659   XYZZ     340.9544   YYZZ    -738.8605
      XZZZ     715.7342   YZZZ    -700.0476   ZZZZ   -1617.7462
 -----------------------------------------------------------------
Archival summary:
1\1\nid00541\SP\ProcedureUnspecified\BasisUnspecified\1416\meili\MonSep2706:33:312021MonSep2706:33:312021\0\\#,ProcedureUnspecified,BasisUnspecified,\\0,1\C\H,1,1.0795\C,1,1.39235,2,120.199\H,3,1.07889,1,119.631,2,-0.522087,0\C,3,1.39353,1,120.393,2,179.445,0\C,5,1.39399,3,119.469,1,-0.223901,0\H,6,1.07909,5,119.955,3,-179.948,0\C,6,1.39015,5,120.432,3,0.115878,0\H,8,1.08098,6,120.278,5,179.71,0\C,8,1.3924,6,119.896,5,-0.139666,0\H,10,1.08061,8,119.642,6,-178.688,0\C,5,1.50116,3,120.221,1,-178.075,0\H,12,1.09054,5,109.496,3,-35.9293,0\H,12,1.09152,5,108.966,3,-152.771,0\H,12,1.1,5,113.016,3,86.481,0\H,2,2.54263,1,139.48,3,-91.2766,0\C,16,1.08059,2,107.327,1,-79.597,0\C,17,1.3938,16,120.161,2,-47.0243,0\H,18,1.08175,17,120.064,16,-0.727897,0\C,18,1.39472,17,119.883,16,179.396,0\H,20,1.07871,18,119.824,17,179.358,0\C,20,1.39451,18,120.03,17,0.124223,0\H,22,1.08041,20,119.223,18,179.408,0\C,22,1.39446,20,120.357,18,-0.299192,0\C,24,1.39493,22,119.404,20,0.433248,0\H,25,1.07936,24,120.031,22,178.994,0\C,24,1.49684,22,120.549,20,179.875,0\H,27,1.08428,24,109.024,22,-50.2955,0\H,27,1.0924,24,107.876,22,-165.62,0\H,27,1.1,24,114.244,22,73.588,0\\\@

 Total job time:  77288.92s(wall), 45532.65s(cpu) 
 Mon Sep 27 06:33:34 2021

        *************************************************************
        *                                                           *
        *  Thank you very much for using Q-Chem.  Have a nice day.  *
        *                                                           *
        *************************************************************


