
Running Job 1 of 1 SSI-049TYR-102ASN-1_PCM_TZVPD.in
qchem SSI-049TYR-102ASN-1_PCM_TZVPD.in_18794.0 /tmp/qchem18794/ 0
/global/common/cori/software/qchem/5.2/exe/qcprog.exe_s SSI-049TYR-102ASN-1_PCM_TZVPD.in_18794.0 /tmp/qchem18794/
                  Welcome to Q-Chem
     A Quantum Leap Into The Future Of Chemistry


 Q-Chem 5.2, Q-Chem, Inc., Pleasanton, CA (2019)

 License issued to: National Energy Research Scientific Computing Center

 Yihan Shao,  Zhengting Gan,  E. Epifanovsky,  A. T. B. Gilbert,  M. Wormit,  
 J. Kussmann,  A. W. Lange,  A. Behn,  Jia Deng,  Xintian Feng,  D. Ghosh,  
 M. Goldey,  P. R. Horn,  L. D. Jacobson,  I. Kaliman,  T. Kus,  A. Landau,  
 Jie Liu,  E. I. Proynov,  R. M. Richard,  R. P. Steele,  E. J. Sundstrom,  
 H. L. Woodcock III,  P. M. Zimmerman,  D. Zuev,  B. Albrecht,  E. Alguire,  
 S. A. Baeppler,  D. Barton,  Z. Benda,  Y. A. Bernard,  E. J. Berquist,  
 K. B. Bravaya,  H. Burton,  D. Casanova,  Chun-Min Chang,  Yunqing Chen,  
 A. Chien,  K. D. Closser,  M. P. Coons,  S. Coriani,  S. Dasgupta,  
 A. L. Dempwolff,  M. Diedenhofen,  Hainam Do,  R. G. Edgar,  Po-Tung Fang,  
 S. Faraji,  S. Fatehi,  Qingguo Feng,  K. D. Fenk,  J. Fosso-Tande,  
 J. Gayvert,  Qinghui Ge,  A. Ghysels,  G. Gidofalvi,  J. Gomes,  
 J. Gonthier,  A. Gunina,  D. Hait,  M. W. D. Hanson-Heine,  
 P. H. P. Harbach,  A. W. Hauser,  M. F. Herbst,  J. E. Herr,  
 E. G. Hohenstein,  Z. C. Holden,  Kerwin Hui,  B. C. Huynh,  T.-C. Jagau,  
 Hyunjun Ji,  B. Kaduk,  K. Khistyaev,  Jaehoon Kim,  P. Klunzinger,  K. Koh,  
 D. Kosenkov,  L. Koulias,  T. Kowalczyk,  C. M. Krauter,  A. Kunitsa,  
 Ka Un Lao,  A. Laurent,  K. V. Lawler,  Joonho Lee,  D. Lefrancois,  
 S. Lehtola,  D. S. Levine,  Yi-Pei Li,  You-Sheng Lin,  Fenglai Liu,  
 E. Livshits,  A. Luenser,  P. Manohar,  E. Mansoor,  S. F. Manzer,  
 Shan-Ping Mao,  Yuezhi Mao,  N. Mardirossian,  A. V. Marenich,  
 T. Markovich,  L. A. Martinez-Martinez,  S. A. Maurer,  N. J. Mayhall,  
 S. C. McKenzie,  J.-M. Mewes,  P. Morgante,  A. F. Morrison,  
 J. W. Mullinax,  K. Nanda,  T. S. Nguyen-Beck,  R. Olivares-Amaya,  
 J. A. Parkhill,  Zheng Pei,  T. M. Perrine,  F. Plasser,  P. Pokhilko,  
 S. Prager,  A. Prociuk,  E. Ramos,  D. R. Rehn,  F. Rob,  M. Scheurer,  
 M. Schneider,  N. Sergueev,  S. M. Sharada,  S. Sharma,  D. W. Small,  
 T. Stauch,  T. Stein,  Yu-Chuan Su,  A. J. W. Thom,  A. Tkatchenko,  
 T. Tsuchimochi,  N. M. Tubman,  L. Vogt,  M. L. Vidal,  O. Vydrov,  
 M. A. Watson,  J. Wenzel,  M. de Wergifosse,  T. A. Wesolowski,  A. White,  
 J. Witte,  A. Yamada,  Jun Yang,  K. Yao,  S. Yeganeh,  S. R. Yost,  
 Zhi-Qiang You,  A. Zech,  Igor Ying Zhang,  Xing Zhang,  Yan Zhao,  
 Ying Zhu,  B. R. Brooks,  G. K. L. Chan,  C. J. Cramer,  M. S. Gordon,  
 W. J. Hehre,  A. Klamt,  M. W. Schmidt,  C. D. Sherrill,  D. G. Truhlar,  
 A. Aspuru-Guzik,  R. Baer,  A. T. Bell,  N. A. Besley,  Jeng-Da Chai,  
 A. E. DePrince, III,  R. A. DiStasio Jr.,  A. Dreuw,  B. D. Dunietz,  
 T. R. Furlani,  Chao-Ping Hsu,  Yousung Jung,  Jing Kong,  D. S. Lambrecht,  
 WanZhen Liang,  C. Ochsenfeld,  V. A. Rassolov,  L. V. Slipchenko,  
 J. E. Subotnik,  T. Van Voorhis,  J. M. Herbert,  A. I. Krylov,  
 P. M. W. Gill,  M. Head-Gordon

 Contributors to earlier versions of Q-Chem not listed above: 
 R. D. Adamson,  B. Austin,  J. Baker,  G. J. O. Beran,  K. Brandhorst,  
 S. T. Brown,  E. F. C. Byrd,  A. K. Chakraborty,  C.-L. Cheng,  
 Siu Hung Chien,  D. M. Chipman,  D. L. Crittenden,  H. Dachsel,  
 R. J. Doerksen,  A. D. Dutoi,  L. Fusti-Molnar,  W. A. Goddard III,  
 A. Golubeva-Zadorozhnaya,  S. R. Gwaltney,  G. Hawkins,  A. Heyden,  
 S. Hirata,  G. Kedziora,  F. J. Keil,  C. Kelley,  Jihan Kim,  R. A. King,  
 R. Z. Khaliullin,  P. P. Korambath,  W. Kurlancheek,  A. M. Lee,  M. S. Lee,  
 S. V. Levchenko,  Ching Yeh Lin,  D. Liotard,  R. C. Lochan,  I. Lotan,  
 P. E. Maslen,  N. Nair,  D. P. O'Neill,  D. Neuhauser,  E. Neuscamman,  
 C. M. Oana,  R. Olson,  B. Peters,  R. Peverati,  P. A. Pieniazek,  
 Y. M. Rhee,  J. Ritchie,  M. A. Rohrdanz,  E. Rosta,  N. J. Russ,  
 H. F. Schaefer III,  N. E. Schultz,  N. Shenvi,  A. C. Simmonett,  A. Sodt,  
 D. Stuck,  K. S. Thanthiriwatte,  V. Vanovschi,  Tao Wang,  A. Warshel,  
 C. F. Williams,  Q. Wu,  X. Xu,  W. Zhang

 Please cite Q-Chem as follows:
 Y. Shao et al., Mol. Phys. 113, 184-215 (2015)
 DOI: 10.1080/00268976.2014.952696

 Q-Chem 5.2.0 for Intel X86 EM64T Linux

 Parts of Q-Chem use Armadillo 8.300.2 (Tropical Shenanigans).
 http://arma.sourceforge.net/

 Q-Chem begins on Sun Sep 26 08:20:46 2021  

Host: cori01
0

     Scratch files written to /tmp/qchem18794//
 May1019 |scratch|qcdevops|jenkins|workspace|build_RNUM -1
Processing $rem in /global/common/cori/software/qchem/5.2/config/preferences:
	 MEM_TOTAL  96000 
NAlpha2: 90
NElect   90
Mult     1
Symmetry turned off for PCM/SM12/SMD calculation

 Q-Chem warning in module libgen/rem_setup.C, line 2803:

 Neither GIA nor STOLL is specified by user. Use STOLL as the default


Checking the input file for inconsistencies... 	...done.

--------------------------------------------------------------
User input:
--------------------------------------------------------------
$comment
SSI-049TYR-102ASN-1.pdb
$end

$molecule
0 1
--
0 1
C   -0.054179391114   -4.666057657577   -0.719463063733
C   -1.021179391114   -0.684057657577    0.627536936267
C   -0.790179391114   -0.929057657577   -0.713463063733
C   -0.926179391114   -1.721057657577    1.540536936267
C   -0.465179391114   -2.214057657577   -1.143463063733
C   -0.597179391114   -3.007057657577    1.109536936267
C   -0.354179391114   -3.264057657577   -0.238463063733
O   -1.341179391114    0.577942342423    1.024536936267
H   -1.201179391114    1.214942342423    0.315536936267
H   -0.863179391114   -0.123057657577   -1.430463063733
H   -1.208179391114   -1.504057657577    2.549536936267
H   -0.295179391114   -2.394057657577   -2.197463063733
H   -0.550179391114   -3.815057657577    1.826536936267
H    0.452820608886   -5.204057657577    0.075536936267
H    0.602820608886   -4.602057657577   -1.584463063733
H   -0.968329391114   -5.209936657577   -0.999687063733
--
0 1
C    2.428820608886    3.936942342423   -1.181463063733
C    1.246820608886    3.486942342423   -0.327463063733
O    0.834820608886    2.325942342423   -0.325463063733
N    0.675820608886    4.435942342423    0.405536936267
H    3.101820608886    4.527942342423   -0.564463063733
H    2.031820608886    4.596942342423   -1.953463063733
H   -0.107179391114    4.184942342423    0.989536936267
H    1.016820608886    5.383942342423    0.369536936267
H    2.975245608886    3.116230342423   -1.669163063733
$end

$rem
JOBTYPE			EDA
EDA2			1
method			wB97X-V
BASIS			def2-TZVPD
XC_GRID			000099000590
NL_GRID			1
UNRESTRICTED		FALSE
MAX_SCF_CYCLES		200
SYMMETRY		FALSE
SYM_IGNORE		TRUE
MEM_STATIC		2000
BASIS_LIN_DEP_THRESH 	6
THRESH 			14
SCF_CONVERGENCE 	8
SCF_PRINT_FRGM 		TRUE
SOLVENT_METHOD          PCM
$end

$PCM
THEORY                  CPCM
METHOD                  SWIG
SOLVER                  INVERSION
RADII                   UFF
HPOINTS                 302
HEAVYPOINTS             302
PRINTLEVEL              0
$END

$SOLVENT
DIELECTRIC              78.390000 ! water
$END
--------------------------------------------------------------
 ----------------------------------------------------------------
             Standard Nuclear Orientation (Angstroms)
    I     Atom           X                Y                Z
 ----------------------------------------------------------------
    1      C      -0.0541793911    -4.6660576576    -0.7194630637
    2      C      -1.0211793911    -0.6840576576     0.6275369363
    3      C      -0.7901793911    -0.9290576576    -0.7134630637
    4      C      -0.9261793911    -1.7210576576     1.5405369363
    5      C      -0.4651793911    -2.2140576576    -1.1434630637
    6      C      -0.5971793911    -3.0070576576     1.1095369363
    7      C      -0.3541793911    -3.2640576576    -0.2384630637
    8      O      -1.3411793911     0.5779423424     1.0245369363
    9      H      -1.2011793911     1.2149423424     0.3155369363
   10      H      -0.8631793911    -0.1230576576    -1.4304630637
   11      H      -1.2081793911    -1.5040576576     2.5495369363
   12      H      -0.2951793911    -2.3940576576    -2.1974630637
   13      H      -0.5501793911    -3.8150576576     1.8265369363
   14      H       0.4528206089    -5.2040576576     0.0755369363
   15      H       0.6028206089    -4.6020576576    -1.5844630637
   16      H      -0.9683293911    -5.2099366576    -0.9996870637
   17      C       2.4288206089     3.9369423424    -1.1814630637
   18      C       1.2468206089     3.4869423424    -0.3274630637
   19      O       0.8348206089     2.3259423424    -0.3254630637
   20      N       0.6758206089     4.4359423424     0.4055369363
   21      H       3.1018206089     4.5279423424    -0.5644630637
   22      H       2.0318206089     4.5969423424    -1.9534630637
   23      H      -0.1071793911     4.1849423424     0.9895369363
   24      H       1.0168206089     5.3839423424     0.3695369363
   25      H       2.9752456089     3.1162303424    -1.6691630637
 ----------------------------------------------------------------
 Nuclear Repulsion Energy =         636.19353144 hartrees
 There are       45 alpha and       45 beta electrons
 Requested basis set is def2-TZVPD
 There are 223 shells and 567 basis functions

 Total QAlloc Memory Limit  96000 MB
 Mega-Array Size      1956 MB
 MEM_STATIC part      2000 MB
 Discretize the solute cavity surface with Lebedev spheres
	Using 302 Lebedev grid points for each H atom
	Using 302 Lebedev grid points for other atoms
	Atomic van der Waals radii will be scaled by 1.20
 Remove points where switching function is < 1.0e-08
 Keep 2946 surface tesserae and discard 4604 interior tesserae
 Molecular Surface Area = 295.084 Angst**2
 A cutoff of  1.0D-14 yielded  20555 shell pairs
 There are    133801 function pairs (    168730 Cartesian)
 Smallest overlap matrix eigenvalue = 5.04E-07
 Linear dependence detected in AO basis
 Tighter screening thresholds may be required for diffuse basis sets
 Use S2THRESH > 14 and THRESH = 14 in case of SCF convergence issues
 Number of orthogonalized atomic orbitals = 566
 Maximum deviation from orthogonality = 2.449E-10

 Scale SEOQF with 1.000000e-01/1.000000e-02/1.000000e-01

 Standard Electronic Orientation quadrupole field applied
 Nucleus-field energy     =     0.0000000010 hartrees

 -----------------------------------------------------------------------
  General SCF calculation program by
  Eric Jon Sundstrom, Paul Horn, Yuezhi Mao, Dmitri Zuev, Alec White,
  David Stuck, Shaama M.S., Shane Yost, Joonho Lee, David Small,
  Daniel Levine, Susi Lehtola, Hugh Burton, Evgeny Epifanovsky
 -----------------------------------------------------------------------
================================================================
                 ALMO-EDA with the EDA2 driver                  
================================================================
 The second-generation ALMO-EDA (for DFT):                      
 P. R. Horn, Y. Mao and M. Head-Gordon, PCCP, 18, 23067 (2016)  
 Decomposition of the frozen energy:                            
 P. R. Horn, Y. Mao and M. Head-Gordon, JCP, 144, 114107 (2016) 
 FERF model for polarization:                                   
 P. R. Horn and M. Head-Gordon, JCP, 143, 114111 (2015)         
Using eda2 option set 1
Option set summary: Frozen orbital wavefunction, initial wavefunction decomposition, and nDQ polarization.
--------------------------------
Printing EDA Options
--------------------------------
eda_child_super_basis      0
fragmo_guess_mode          0
child_mp                   1
child_mp_orders            232
cls_elec                   1
cls_disp                   0
scfmi_mode                 1
scfmi_occs                 0
scfmi_virts                0
frz_relax                  0
frz_relax_method           0
dc_pen_start               0
dc_pen_conv                0
dc_pen_increment           0
dc_pen_steps               0
dc_pen_thresh_factor       0
dc_pen_pre_newton_thresh   0
frz_ortho_decomp           1
frz_ortho_decomp_conv      6
frgm_method                2
scfmi_freeze_ss            0
separate_rehyb             0
plot_diff_den              0
eda_nocv                   0
eda_vct_relax              1
disp_free_x                0
disp_free_c                0
eda_bsse                   0
eda_pct_a                  0
eda_covp                   0
--------------------------------
Attempting to make child job directory: /tmp/qchem18794//Frg1/
Attempting to make child job directory: /tmp/qchem18794//Frg2/
Creating input file /tmp/qchem18794/Frg1.input
using default PutDataFrgm: nothing
calling putenv with: QCSCRATCH=/tmp/qchem18794/ 
calling putenv with: QCLOCALSCR=/tmp/qchem18794/ 
Spawning Job For Fragment 0
                  Welcome to Q-Chem
     A Quantum Leap Into The Future Of Chemistry


 Q-Chem 5.2, Q-Chem, Inc., Pleasanton, CA (2019)

 License issued to: National Energy Research Scientific Computing Center

 Yihan Shao,  Zhengting Gan,  E. Epifanovsky,  A. T. B. Gilbert,  M. Wormit,  
 J. Kussmann,  A. W. Lange,  A. Behn,  Jia Deng,  Xintian Feng,  D. Ghosh,  
 M. Goldey,  P. R. Horn,  L. D. Jacobson,  I. Kaliman,  T. Kus,  A. Landau,  
 Jie Liu,  E. I. Proynov,  R. M. Richard,  R. P. Steele,  E. J. Sundstrom,  
 H. L. Woodcock III,  P. M. Zimmerman,  D. Zuev,  B. Albrecht,  E. Alguire,  
 S. A. Baeppler,  D. Barton,  Z. Benda,  Y. A. Bernard,  E. J. Berquist,  
 K. B. Bravaya,  H. Burton,  D. Casanova,  Chun-Min Chang,  Yunqing Chen,  
 A. Chien,  K. D. Closser,  M. P. Coons,  S. Coriani,  S. Dasgupta,  
 A. L. Dempwolff,  M. Diedenhofen,  Hainam Do,  R. G. Edgar,  Po-Tung Fang,  
 S. Faraji,  S. Fatehi,  Qingguo Feng,  K. D. Fenk,  J. Fosso-Tande,  
 J. Gayvert,  Qinghui Ge,  A. Ghysels,  G. Gidofalvi,  J. Gomes,  
 J. Gonthier,  A. Gunina,  D. Hait,  M. W. D. Hanson-Heine,  
 P. H. P. Harbach,  A. W. Hauser,  M. F. Herbst,  J. E. Herr,  
 E. G. Hohenstein,  Z. C. Holden,  Kerwin Hui,  B. C. Huynh,  T.-C. Jagau,  
 Hyunjun Ji,  B. Kaduk,  K. Khistyaev,  Jaehoon Kim,  P. Klunzinger,  K. Koh,  
 D. Kosenkov,  L. Koulias,  T. Kowalczyk,  C. M. Krauter,  A. Kunitsa,  
 Ka Un Lao,  A. Laurent,  K. V. Lawler,  Joonho Lee,  D. Lefrancois,  
 S. Lehtola,  D. S. Levine,  Yi-Pei Li,  You-Sheng Lin,  Fenglai Liu,  
 E. Livshits,  A. Luenser,  P. Manohar,  E. Mansoor,  S. F. Manzer,  
 Shan-Ping Mao,  Yuezhi Mao,  N. Mardirossian,  A. V. Marenich,  
 T. Markovich,  L. A. Martinez-Martinez,  S. A. Maurer,  N. J. Mayhall,  
 S. C. McKenzie,  J.-M. Mewes,  P. Morgante,  A. F. Morrison,  
 J. W. Mullinax,  K. Nanda,  T. S. Nguyen-Beck,  R. Olivares-Amaya,  
 J. A. Parkhill,  Zheng Pei,  T. M. Perrine,  F. Plasser,  P. Pokhilko,  
 S. Prager,  A. Prociuk,  E. Ramos,  D. R. Rehn,  F. Rob,  M. Scheurer,  
 M. Schneider,  N. Sergueev,  S. M. Sharada,  S. Sharma,  D. W. Small,  
 T. Stauch,  T. Stein,  Yu-Chuan Su,  A. J. W. Thom,  A. Tkatchenko,  
 T. Tsuchimochi,  N. M. Tubman,  L. Vogt,  M. L. Vidal,  O. Vydrov,  
 M. A. Watson,  J. Wenzel,  M. de Wergifosse,  T. A. Wesolowski,  A. White,  
 J. Witte,  A. Yamada,  Jun Yang,  K. Yao,  S. Yeganeh,  S. R. Yost,  
 Zhi-Qiang You,  A. Zech,  Igor Ying Zhang,  Xing Zhang,  Yan Zhao,  
 Ying Zhu,  B. R. Brooks,  G. K. L. Chan,  C. J. Cramer,  M. S. Gordon,  
 W. J. Hehre,  A. Klamt,  M. W. Schmidt,  C. D. Sherrill,  D. G. Truhlar,  
 A. Aspuru-Guzik,  R. Baer,  A. T. Bell,  N. A. Besley,  Jeng-Da Chai,  
 A. E. DePrince, III,  R. A. DiStasio Jr.,  A. Dreuw,  B. D. Dunietz,  
 T. R. Furlani,  Chao-Ping Hsu,  Yousung Jung,  Jing Kong,  D. S. Lambrecht,  
 WanZhen Liang,  C. Ochsenfeld,  V. A. Rassolov,  L. V. Slipchenko,  
 J. E. Subotnik,  T. Van Voorhis,  J. M. Herbert,  A. I. Krylov,  
 P. M. W. Gill,  M. Head-Gordon

 Contributors to earlier versions of Q-Chem not listed above: 
 R. D. Adamson,  B. Austin,  J. Baker,  G. J. O. Beran,  K. Brandhorst,  
 S. T. Brown,  E. F. C. Byrd,  A. K. Chakraborty,  C.-L. Cheng,  
 Siu Hung Chien,  D. M. Chipman,  D. L. Crittenden,  H. Dachsel,  
 R. J. Doerksen,  A. D. Dutoi,  L. Fusti-Molnar,  W. A. Goddard III,  
 A. Golubeva-Zadorozhnaya,  S. R. Gwaltney,  G. Hawkins,  A. Heyden,  
 S. Hirata,  G. Kedziora,  F. J. Keil,  C. Kelley,  Jihan Kim,  R. A. King,  
 R. Z. Khaliullin,  P. P. Korambath,  W. Kurlancheek,  A. M. Lee,  M. S. Lee,  
 S. V. Levchenko,  Ching Yeh Lin,  D. Liotard,  R. C. Lochan,  I. Lotan,  
 P. E. Maslen,  N. Nair,  D. P. O'Neill,  D. Neuhauser,  E. Neuscamman,  
 C. M. Oana,  R. Olson,  B. Peters,  R. Peverati,  P. A. Pieniazek,  
 Y. M. Rhee,  J. Ritchie,  M. A. Rohrdanz,  E. Rosta,  N. J. Russ,  
 H. F. Schaefer III,  N. E. Schultz,  N. Shenvi,  A. C. Simmonett,  A. Sodt,  
 D. Stuck,  K. S. Thanthiriwatte,  V. Vanovschi,  Tao Wang,  A. Warshel,  
 C. F. Williams,  Q. Wu,  X. Xu,  W. Zhang

 Please cite Q-Chem as follows:
 Y. Shao et al., Mol. Phys. 113, 184-215 (2015)
 DOI: 10.1080/00268976.2014.952696

 Q-Chem 5.2.0 for Intel X86 EM64T Linux

 Parts of Q-Chem use Armadillo 8.300.2 (Tropical Shenanigans).
 http://arma.sourceforge.net/

 Q-Chem begins on Sun Sep 26 08:20:53 2021  

Host: cori01
0

     Scratch files written to /tmp/qchem18794//Frg1//
 May1019 |scratch|qcdevops|jenkins|workspace|build_RNUM -1
Processing $rem in /global/common/cori/software/qchem/5.2/config/preferences:
	 MEM_TOTAL  96000 
NAlpha2: 58
NElect   58
Mult     1
Symmetry turned off for PCM/SM12/SMD calculation

Checking the input file for inconsistencies... 	...done.

--------------------------------------------------------------
User input:
--------------------------------------------------------------
$molecule
0 1
 6	-0.0541793911	-4.6660576576	-0.7194630637
 6	-1.0211793911	-0.6840576576	0.6275369363
 6	-0.7901793911	-0.9290576576	-0.7134630637
 6	-0.9261793911	-1.7210576576	1.5405369363
 6	-0.4651793911	-2.2140576576	-1.1434630637
 6	-0.5971793911	-3.0070576576	1.1095369363
 6	-0.3541793911	-3.2640576576	-0.2384630637
 8	-1.3411793911	0.5779423424	1.0245369363
 1	-1.2011793911	1.2149423424	0.3155369363
 1	-0.8631793911	-0.1230576576	-1.4304630637
 1	-1.2081793911	-1.5040576576	2.5495369363
 1	-0.2951793911	-2.3940576576	-2.1974630637
 1	-0.5501793911	-3.8150576576	1.8265369363
 1	0.4528206089	-5.2040576576	0.0755369363
 1	0.6028206089	-4.6020576576	-1.5844630637
 1	-0.9683293911	-5.2099366576	-0.9996870637
$end
$rem
EDA2		1
METHOD		WB97X-V
BASIS		DEF2-TZVPD
XC_GRID		000099000590
NL_GRID		1
UNRESTRICTED		FALSE
MAX_SCF_CYCLES		200
SYMMETRY		FALSE
SYM_IGNORE		TRUE
BASIS_LIN_DEP_THRESH		6
THRESH		14
SCF_CONVERGENCE		8
SCF_PRINT_FRGM		TRUE
SOLVENT_METHOD		PCM
!required keywords
JOBTYPE		SP
SYM_IGNORE		TRUE
SUBSYSTEM		TRUE
GEN_SCFMAN		TRUE
CHILD_INSTRUCTION		2
SYM_IGNORE		TRUE
SCFMI		0
RI_K 0		
PARI_K 0		
MIN_PARI_K 0		
IARI_K 0		
OCC_RI_K 0		
PURECART		1111
MEM_STATIC		2000
MEM_TOTAL		96000
GUI		0
CHILD_MP		1
CHILD_MP_ORDERS		232
FRZ_RELAX		0
FRZ_RELAX_METHOD		0
EDA_CLS_ELEC		1
EDA_CLS_DISP		0
FRZ_ORTHO_DECOMP		1
EDA2		FALSE
FRGM_METHOD		FALSE
CIS_N_ROOTS  0
LOCAL_CIS    0
CIS_RLX_DNS  1
$end
$pcm
THEORY                  CPCM
METHOD                  SWIG
SOLVER                  INVERSION
RADII                   UFF
HPOINTS                 302
HEAVYPOINTS             302
PRINTLEVEL              0
$end
$solvent
DIELECTRIC              78.390000 ! water
$end
--------------------------------------------------------------
 ----------------------------------------------------------------
             Standard Nuclear Orientation (Angstroms)
    I     Atom           X                Y                Z
 ----------------------------------------------------------------
    1      C      -0.0541793911    -4.6660576576    -0.7194630637
    2      C      -1.0211793911    -0.6840576576     0.6275369363
    3      C      -0.7901793911    -0.9290576576    -0.7134630637
    4      C      -0.9261793911    -1.7210576576     1.5405369363
    5      C      -0.4651793911    -2.2140576576    -1.1434630637
    6      C      -0.5971793911    -3.0070576576     1.1095369363
    7      C      -0.3541793911    -3.2640576576    -0.2384630637
    8      O      -1.3411793911     0.5779423424     1.0245369363
    9      H      -1.2011793911     1.2149423424     0.3155369363
   10      H      -0.8631793911    -0.1230576576    -1.4304630637
   11      H      -1.2081793911    -1.5040576576     2.5495369363
   12      H      -0.2951793911    -2.3940576576    -2.1974630637
   13      H      -0.5501793911    -3.8150576576     1.8265369363
   14      H       0.4528206089    -5.2040576576     0.0755369363
   15      H       0.6028206089    -4.6020576576    -1.5844630637
   16      H      -0.9683293911    -5.2099366576    -0.9996870637
 ----------------------------------------------------------------
 Nuclear Repulsion Energy =         343.63523958 hartrees
 There are       29 alpha and       29 beta electrons
 Requested basis set is def2-TZVPD
 There are 145 shells and 371 basis functions

 Total QAlloc Memory Limit  96000 MB
 Mega-Array Size      1956 MB
 MEM_STATIC part      2000 MB
 Discretize the solute cavity surface with Lebedev spheres
	Using 302 Lebedev grid points for each H atom
	Using 302 Lebedev grid points for other atoms
	Atomic van der Waals radii will be scaled by 1.20
 Remove points where switching function is < 1.0e-08
 Keep 1883 surface tesserae and discard 2949 interior tesserae
 Molecular Surface Area = 189.705 Angst**2
 A cutoff of  1.0D-14 yielded  10045 shell pairs
 There are     67097 function pairs (     85798 Cartesian)
 Smallest overlap matrix eigenvalue = 5.48E-07
 Linear dependence detected in AO basis
 Tighter screening thresholds may be required for diffuse basis sets
 Use S2THRESH > 14 and THRESH = 14 in case of SCF convergence issues
 Number of orthogonalized atomic orbitals = 370
 Maximum deviation from orthogonality = 2.081E-10

 Scale SEOQF with 1.000000e-01/1.000000e-02/1.000000e-01

 Standard Electronic Orientation quadrupole field applied
 Nucleus-field energy     =    -0.0000000029 hartrees
 Guess from superposition of atomic densities
 Warning:  Energy on first SCF cycle will be non-variational
 SAD guess density has 57.738434 electrons

 -----------------------------------------------------------------------
  General SCF calculation program by
  Eric Jon Sundstrom, Paul Horn, Yuezhi Mao, Dmitri Zuev, Alec White,
  David Stuck, Shaama M.S., Shane Yost, Joonho Lee, David Small,
  Daniel Levine, Susi Lehtola, Hugh Burton, Evgeny Epifanovsky
 -----------------------------------------------------------------------
 Exchange:     0.1670 Hartree-Fock + 1.0000 wB97X-V + LR-HF
 Correlation:  1.0000 wB97X-V
 Using Euler-Maclaurin-Lebedev (99,590) quadrature formula
 Nonlocal Correlation:  VV10 with C = 0.0100 and b = 6.00 and scale = 1.00000
 Grid used for NLC:  SG-1 standard quadrature
Energy prior to optimization (guess energy) = -346.496690366462
Begin Timing: Total SCF Calculation
begin iterations for algorithm: DIIS         
the SCF tolerance is set to 1.00e-08
    1    -346.4966903665      5.16e-03     00000 
    2    -346.4360121183      5.57e-03     00000 
    3    -346.8110912915      5.31e-04     00000 
    4    -346.8151362991      1.80e-04     00000 
    5    -346.8157384773      2.46e-05     00000 
    6    -346.8157574329      1.19e-05     00000 
    7    -346.8157604205      3.81e-06     00000 
    8    -346.8157608152      1.22e-06     00000 
    9    -346.8157608689      5.60e-07     00000 
   10    -346.8157608789      1.39e-07     00000 
   11    -346.8157608807      6.20e-08     00000 
   12    -346.8157608809      3.27e-08     00000 
   13    -346.8157608810      6.98e-09     00000 Convergence criterion met
Timing for Total SCF: 2110.00s (wall), 4193.93s (cpu)

************** Final PCM Free Energy Summary **************
 G_electrostatic  =      -0.00551307 hartree =      -3.45950458 kcal/mol
 G_cavitation     =       0.00000000 hartree =       0.00000000 kcal/mol
 G_dispersion     =       0.00000000 hartree =       0.00000000 kcal/mol
 G_repulsion      =       0.00000000 hartree =       0.00000000 kcal/mol
 --------------------------------------------------
 Non-electrostatic Free Energy =       0.00000000 hartree =       0.00000000 kcal/mol
 Total                         =      -0.00551307 hartree =      -3.45950458 kcal/mol
 --------------------------------------------------
 SCF Energy (H0 + V/2)                       =    -346.81576088 
 Solute Internal Energy (H0)                 =    -346.81024781 
 Total Free Energy (H0 + V/2 + non-elec)     =    -346.81576088 hartree
                                             = -217630.17464488 kcal/mol
***********************************************************

E_pcm = -0.0055130715
Multipole orders to be included
        2
        3
computing dipole RHS
computing quadrupole RHS
total number of RHS in solve_reponses: 8
RHS batch sizes
        8
Beginning Block Conjugate Gradient Iterations. Batch Number: 0
computing hessian-vector products by finite difference
              1      6.06e-01     00000 Conjugate Gradient Iteration
computing hessian-vector products by finite difference
              2      1.97e-01     00000 Conjugate Gradient Iteration
computing hessian-vector products by finite difference
              3      4.95e-02     00000 Conjugate Gradient Iteration
computing hessian-vector products by finite difference
              4      1.36e-02     00000 Conjugate Gradient Iteration
computing hessian-vector products by finite difference
              5      4.14e-03     00000 Conjugate Gradient Iteration
computing hessian-vector products by finite difference
              6      1.63e-03     00000 Conjugate Gradient Iteration
computing hessian-vector products by finite difference
              7      4.08e-04     00000 Conjugate Gradient Iteration
computing hessian-vector products by finite difference
              8      8.01e-05     00000 Conjugate Gradient Iteration
computing hessian-vector products by finite difference
              9      1.47e-05     00000 Conjugate Gradient Iteration
computing hessian-vector products by finite difference
             10      1.92e-06     00000 Conjugate Gradient Iteration
computing hessian-vector products by finite difference
             11      2.98e-07     00000 Conjugate Gradient Iteration
computing hessian-vector products by finite difference
             12      5.71e-08     00000 Conjugate Gradient Iteration
computing hessian-vector products by finite difference
             13      9.36e-09     00000 CG Converged
batch 0 complete
Done Calculating Responses
TESTING ORTHOGONALIZATION OF MULTIPOLE BASIS
Multipole virts passed orthogonality test
Virts Per Order
           87
          145
 
 --------------------------------------------------------------
 
                    Orbital Energies (a.u.)
 --------------------------------------------------------------
 
 Alpha MOs
 -- Occupied --
-19.2447 -10.3326 -10.2761 -10.2754 -10.2738 -10.2705 -10.2702 -10.2615
 -1.1963  -0.9968  -0.9032  -0.8839  -0.8118  -0.7504  -0.7144  -0.6671
 -0.6036  -0.5829  -0.5526  -0.5412  -0.5327  -0.5235  -0.5113  -0.4796
 -0.4553  -0.4444  -0.4394  -0.3524  -0.3149
 -- Virtual --
  0.0576   0.0585   0.0682   0.0789   0.0831   0.0945   0.1090   0.1096
  0.1139   0.1311   0.1449   0.1501   0.1544   0.1700   0.1734   0.1920
  0.1979   0.2062   0.2165   0.2231   0.2364   0.2380   0.2498   0.2518
  0.2630   0.2654   0.2697   0.2712   0.2843   0.2953   0.2963   0.3021
  0.3050   0.3100   0.3105   0.3229   0.3337   0.3404   0.3453   0.3457
  0.3530   0.3578   0.3612   0.3718   0.3730   0.3776   0.3845   0.3911
  0.3937   0.3950   0.4004   0.4054   0.4137   0.4176   0.4231   0.4323
  0.4352   0.4499   0.4557   0.4578   0.4723   0.4759   0.4773   0.4832
  0.4859   0.4938   0.4970   0.5041   0.5109   0.5128   0.5212   0.5365
  0.5399   0.5453   0.5491   0.5545   0.5595   0.5660   0.5870   0.5940
  0.6036   0.6086   0.6261   0.6273   0.6439   0.6525   0.6549   0.6703
  0.6802   0.6816   0.6892   0.6915   0.6944   0.7009   0.7182   0.7276
  0.7299   0.7428   0.7449   0.7506   0.7578   0.7764   0.7804   0.7832
  0.7890   0.7919   0.7983   0.8016   0.8083   0.8128   0.8285   0.8304
  0.8425   0.8452   0.8553   0.8565   0.8648   0.8744   0.8818   0.8951
  0.9021   0.9145   0.9184   0.9507   0.9654   0.9759   0.9888   1.0065
  1.0201   1.0333   1.0406   1.0468   1.0554   1.0663   1.0731   1.0834
  1.1017   1.1224   1.1392   1.1767   1.1929   1.2313   1.2541   1.2876
  1.3010   1.3145   1.3329   1.3555   1.3594   1.3814   1.3951   1.4337
  1.4595   1.4682   1.4756   1.4827   1.5302   1.5652   1.6020   1.6153
  1.6272   1.6349   1.6863   1.6883   1.7066   1.7197   1.7827   1.8039
  1.8157   1.8235   1.8286   1.8470   1.8795   1.8984   1.9155   1.9301
  1.9413   1.9543   1.9739   1.9843   2.0025   2.0299   2.0332   2.0505
  2.0583   2.0804   2.0969   2.1045   2.1182   2.1475   2.1964   2.2002
  2.2287   2.2362   2.2695   2.2773   2.3028   2.3150   2.3422   2.3739
  2.4070   2.4140   2.4266   2.4611   2.4995   2.5021   2.5152   2.5571
  2.5807   2.5994   2.6214   2.6289   2.6525   2.6664   2.6841   2.7457
  2.7489   2.7606   2.7774   2.7978   2.8237   2.8434   2.8704   2.8817
  2.9094   2.9203   2.9408   2.9444   2.9596   2.9733   2.9811   3.0144
  3.0198   3.0361   3.0692   3.0796   3.1060   3.1267   3.1504   3.1613
  3.1791   3.2001   3.2186   3.2294   3.2500   3.2550   3.2769   3.2975
  3.3341   3.3389   3.3820   3.3876   3.3949   3.4101   3.4464   3.4580
  3.4682   3.4761   3.4915   3.5113   3.5145   3.5308   3.5427   3.5447
  3.5665   3.5739   3.5858   3.5917   3.6062   3.6154   3.6509   3.6602
  3.6839   3.7096   3.7367   3.7583   3.8081   3.8204   3.8506   3.8821
  3.9242   3.9601   3.9866   3.9931   4.0505   4.0834   4.1349   4.1662
  4.2554   4.2735   4.2867   4.3071   4.3240   4.3339   4.3497   4.3682
  4.3856   4.3917   4.4424   4.4528   4.4910   4.5517   4.5991   4.6329
  4.7331   4.7400   4.7881   4.8066   4.8916   4.9191   5.0279   5.0610
  5.0852   5.1264   5.1589   5.2995   5.3388   5.4234   5.4517   5.5285
  5.6042   5.6632   5.7188   5.7557   5.9590   6.2154   6.4980   6.5682
  6.6666   6.8792   7.0101   7.2980   7.4519  22.6595  22.6765  22.9555
 22.9908  23.0457  23.2030  23.5356  44.4222
 --------------------------------------------------------------
 
          Ground-State Mulliken Net Atomic Charges

     Atom                 Charge (a.u.)
  ----------------------------------------
      1 C                    -1.032665
      2 C                     0.777891
      3 C                    -0.403643
      4 C                    -0.716150
      5 C                    -0.633664
      6 C                    -0.381369
      7 C                     0.563441
      8 O                    -0.489744
      9 H                     0.298283
     10 H                     0.269237
     11 H                     0.339376
     12 H                     0.314158
     13 H                     0.322973
     14 H                     0.280856
     15 H                     0.278083
     16 H                     0.212938
  ----------------------------------------
  Sum of atomic charges =     0.000000

 -----------------------------------------------------------------
                    Cartesian Multipole Moments
 -----------------------------------------------------------------
    Charge (ESU x 10^10)
                 0.0000
    Dipole Moment (Debye)
         X       0.3812      Y      -0.0074      Z      -1.7136
       Tot       1.7555
    Quadrupole Moments (Debye-Ang)
        XX     -52.1216     XY      -1.0409     YY     -40.6434
        XZ       1.2545     YZ      -1.7755     ZZ     -45.9290
    Octopole Moments (Debye-Ang^2)
       XXX     105.5985    XXY     105.2816    XYY      30.9792
       YYY     272.3735    XXZ      -9.9128    XYZ       3.9681
       YYZ      -5.7224    XZZ      31.9271    YZZ      87.5280
       ZZZ     -22.6675
    Hexadecapole Moments (Debye-Ang^3)
      XXXX    -258.3061   XXXY    -117.5727   XXYY    -399.0672
      XYYY    -108.2118   YYYY   -1956.7277   XXXZ      58.4487
      XXYZ     -15.3698   XYYZ      17.5285   YYYZ     -56.4098
      XXZZ    -107.4039   XYZZ     -29.6678   YYZZ    -383.2798
      XZZZ      45.3241   YZZZ     -48.2743   ZZZZ    -350.1787
 -----------------------------------------------------------------
Archival summary:
1\1\nid00506\SP\ProcedureUnspecified\BasisUnspecified\178\meili\SunSep2619:26:522021SunSep2619:26:522021\0\\#,ProcedureUnspecified,BasisUnspecified,\\0,1\C\O,1,1.36112\H,2,0.963354,1,111.361\C,1,1.38263,2,119.108,3,-11.2242,0\H,4,1.08123,1,119.986,2,0.10068,0\C,1,1.38491,2,121.205,3,168.887,0\H,6,1.0699,1,116.857,2,5.80221,0\C,4,1.39347,1,120.11,2,-179.803,0\H,8,1.08269,4,119.363,1,179.473,0\C,8,1.39063,4,120.936,1,-0.658133,0\C,10,1.39363,8,118.445,4,1.0329,0\H,11,1.08128,10,119.736,8,177.899,0\C,10,1.51227,8,120.587,4,177.603,0\H,13,1.0856,10,108.613,8,152.804,0\H,13,1.0881,10,108.548,8,34.1489,0\H,13,1.1,10,111.996,8,-86.4531,0\\\@

 Total job time:  39966.06s(wall), 79273.14s(cpu) 
 Sun Sep 26 19:26:59 2021

        *************************************************************
        *                                                           *
        *  Thank you very much for using Q-Chem.  Have a nice day.  *
        *                                                           *
        *************************************************************


Done Job For Fragment 0
calling putenv with: QCSCRATCH=/global/cscratch1/sd/meili 
calling putenv with: QCLOCALSCR=/tmp 
calling putenv with: QCTHREADS=32 
Creating input file /tmp/qchem18794/Frg2.input
using default PutDataFrgm: nothing
calling putenv with: QCSCRATCH=/tmp/qchem18794/ 
calling putenv with: QCLOCALSCR=/tmp/qchem18794/ 
Spawning Job For Fragment 1
                  Welcome to Q-Chem
     A Quantum Leap Into The Future Of Chemistry


 Q-Chem 5.2, Q-Chem, Inc., Pleasanton, CA (2019)

 License issued to: National Energy Research Scientific Computing Center

 Yihan Shao,  Zhengting Gan,  E. Epifanovsky,  A. T. B. Gilbert,  M. Wormit,  
 J. Kussmann,  A. W. Lange,  A. Behn,  Jia Deng,  Xintian Feng,  D. Ghosh,  
 M. Goldey,  P. R. Horn,  L. D. Jacobson,  I. Kaliman,  T. Kus,  A. Landau,  
 Jie Liu,  E. I. Proynov,  R. M. Richard,  R. P. Steele,  E. J. Sundstrom,  
 H. L. Woodcock III,  P. M. Zimmerman,  D. Zuev,  B. Albrecht,  E. Alguire,  
 S. A. Baeppler,  D. Barton,  Z. Benda,  Y. A. Bernard,  E. J. Berquist,  
 K. B. Bravaya,  H. Burton,  D. Casanova,  Chun-Min Chang,  Yunqing Chen,  
 A. Chien,  K. D. Closser,  M. P. Coons,  S. Coriani,  S. Dasgupta,  
 A. L. Dempwolff,  M. Diedenhofen,  Hainam Do,  R. G. Edgar,  Po-Tung Fang,  
 S. Faraji,  S. Fatehi,  Qingguo Feng,  K. D. Fenk,  J. Fosso-Tande,  
 J. Gayvert,  Qinghui Ge,  A. Ghysels,  G. Gidofalvi,  J. Gomes,  
 J. Gonthier,  A. Gunina,  D. Hait,  M. W. D. Hanson-Heine,  
 P. H. P. Harbach,  A. W. Hauser,  M. F. Herbst,  J. E. Herr,  
 E. G. Hohenstein,  Z. C. Holden,  Kerwin Hui,  B. C. Huynh,  T.-C. Jagau,  
 Hyunjun Ji,  B. Kaduk,  K. Khistyaev,  Jaehoon Kim,  P. Klunzinger,  K. Koh,  
 D. Kosenkov,  L. Koulias,  T. Kowalczyk,  C. M. Krauter,  A. Kunitsa,  
 Ka Un Lao,  A. Laurent,  K. V. Lawler,  Joonho Lee,  D. Lefrancois,  
 S. Lehtola,  D. S. Levine,  Yi-Pei Li,  You-Sheng Lin,  Fenglai Liu,  
 E. Livshits,  A. Luenser,  P. Manohar,  E. Mansoor,  S. F. Manzer,  
 Shan-Ping Mao,  Yuezhi Mao,  N. Mardirossian,  A. V. Marenich,  
 T. Markovich,  L. A. Martinez-Martinez,  S. A. Maurer,  N. J. Mayhall,  
 S. C. McKenzie,  J.-M. Mewes,  P. Morgante,  A. F. Morrison,  
 J. W. Mullinax,  K. Nanda,  T. S. Nguyen-Beck,  R. Olivares-Amaya,  
 J. A. Parkhill,  Zheng Pei,  T. M. Perrine,  F. Plasser,  P. Pokhilko,  
 S. Prager,  A. Prociuk,  E. Ramos,  D. R. Rehn,  F. Rob,  M. Scheurer,  
 M. Schneider,  N. Sergueev,  S. M. Sharada,  S. Sharma,  D. W. Small,  
 T. Stauch,  T. Stein,  Yu-Chuan Su,  A. J. W. Thom,  A. Tkatchenko,  
 T. Tsuchimochi,  N. M. Tubman,  L. Vogt,  M. L. Vidal,  O. Vydrov,  
 M. A. Watson,  J. Wenzel,  M. de Wergifosse,  T. A. Wesolowski,  A. White,  
 J. Witte,  A. Yamada,  Jun Yang,  K. Yao,  S. Yeganeh,  S. R. Yost,  
 Zhi-Qiang You,  A. Zech,  Igor Ying Zhang,  Xing Zhang,  Yan Zhao,  
 Ying Zhu,  B. R. Brooks,  G. K. L. Chan,  C. J. Cramer,  M. S. Gordon,  
 W. J. Hehre,  A. Klamt,  M. W. Schmidt,  C. D. Sherrill,  D. G. Truhlar,  
 A. Aspuru-Guzik,  R. Baer,  A. T. Bell,  N. A. Besley,  Jeng-Da Chai,  
 A. E. DePrince, III,  R. A. DiStasio Jr.,  A. Dreuw,  B. D. Dunietz,  
 T. R. Furlani,  Chao-Ping Hsu,  Yousung Jung,  Jing Kong,  D. S. Lambrecht,  
 WanZhen Liang,  C. Ochsenfeld,  V. A. Rassolov,  L. V. Slipchenko,  
 J. E. Subotnik,  T. Van Voorhis,  J. M. Herbert,  A. I. Krylov,  
 P. M. W. Gill,  M. Head-Gordon

 Contributors to earlier versions of Q-Chem not listed above: 
 R. D. Adamson,  B. Austin,  J. Baker,  G. J. O. Beran,  K. Brandhorst,  
 S. T. Brown,  E. F. C. Byrd,  A. K. Chakraborty,  C.-L. Cheng,  
 Siu Hung Chien,  D. M. Chipman,  D. L. Crittenden,  H. Dachsel,  
 R. J. Doerksen,  A. D. Dutoi,  L. Fusti-Molnar,  W. A. Goddard III,  
 A. Golubeva-Zadorozhnaya,  S. R. Gwaltney,  G. Hawkins,  A. Heyden,  
 S. Hirata,  G. Kedziora,  F. J. Keil,  C. Kelley,  Jihan Kim,  R. A. King,  
 R. Z. Khaliullin,  P. P. Korambath,  W. Kurlancheek,  A. M. Lee,  M. S. Lee,  
 S. V. Levchenko,  Ching Yeh Lin,  D. Liotard,  R. C. Lochan,  I. Lotan,  
 P. E. Maslen,  N. Nair,  D. P. O'Neill,  D. Neuhauser,  E. Neuscamman,  
 C. M. Oana,  R. Olson,  B. Peters,  R. Peverati,  P. A. Pieniazek,  
 Y. M. Rhee,  J. Ritchie,  M. A. Rohrdanz,  E. Rosta,  N. J. Russ,  
 H. F. Schaefer III,  N. E. Schultz,  N. Shenvi,  A. C. Simmonett,  A. Sodt,  
 D. Stuck,  K. S. Thanthiriwatte,  V. Vanovschi,  Tao Wang,  A. Warshel,  
 C. F. Williams,  Q. Wu,  X. Xu,  W. Zhang

 Please cite Q-Chem as follows:
 Y. Shao et al., Mol. Phys. 113, 184-215 (2015)
 DOI: 10.1080/00268976.2014.952696

 Q-Chem 5.2.0 for Intel X86 EM64T Linux

 Parts of Q-Chem use Armadillo 8.300.2 (Tropical Shenanigans).
 http://arma.sourceforge.net/

 Q-Chem begins on Sun Sep 26 19:27:06 2021  

Host: cori01
0

     Scratch files written to /tmp/qchem18794//Frg2//
 May1019 |scratch|qcdevops|jenkins|workspace|build_RNUM -1
Processing $rem in /global/common/cori/software/qchem/5.2/config/preferences:
	 MEM_TOTAL  96000 
NAlpha2: 32
NElect   32
Mult     1
Symmetry turned off for PCM/SM12/SMD calculation

Checking the input file for inconsistencies... 	...done.

--------------------------------------------------------------
User input:
--------------------------------------------------------------
$molecule
0 1
 6	2.4288206089	3.9369423424	-1.1814630637
 6	1.2468206089	3.4869423424	-0.3274630637
 8	0.8348206089	2.3259423424	-0.3254630637
 7	0.6758206089	4.4359423424	0.4055369363
 1	3.1018206089	4.5279423424	-0.5644630637
 1	2.0318206089	4.5969423424	-1.9534630637
 1	-0.1071793911	4.1849423424	0.9895369363
 1	1.0168206089	5.3839423424	0.3695369363
 1	2.9752456089	3.1162303424	-1.6691630637
$end
$rem
EDA2		1
METHOD		WB97X-V
BASIS		DEF2-TZVPD
XC_GRID		000099000590
NL_GRID		1
UNRESTRICTED		FALSE
MAX_SCF_CYCLES		200
SYMMETRY		FALSE
SYM_IGNORE		TRUE
BASIS_LIN_DEP_THRESH		6
THRESH		14
SCF_CONVERGENCE		8
SCF_PRINT_FRGM		TRUE
SOLVENT_METHOD		PCM
!required keywords
JOBTYPE		SP
SYM_IGNORE		TRUE
SUBSYSTEM		TRUE
GEN_SCFMAN		TRUE
CHILD_INSTRUCTION		2
SYM_IGNORE		TRUE
SCFMI		0
RI_K 0		
PARI_K 0		
MIN_PARI_K 0		
IARI_K 0		
OCC_RI_K 0		
PURECART		1111
MEM_STATIC		2000
MEM_TOTAL		96000
GUI		0
CHILD_MP		1
CHILD_MP_ORDERS		232
FRZ_RELAX		0
FRZ_RELAX_METHOD		0
EDA_CLS_ELEC		1
EDA_CLS_DISP		0
FRZ_ORTHO_DECOMP		1
EDA2		FALSE
FRGM_METHOD		FALSE
CIS_N_ROOTS  0
LOCAL_CIS    0
CIS_RLX_DNS  1
$end
$pcm
THEORY                  CPCM
METHOD                  SWIG
SOLVER                  INVERSION
RADII                   UFF
HPOINTS                 302
HEAVYPOINTS             302
PRINTLEVEL              0
$end
$solvent
DIELECTRIC              78.390000 ! water
$end
--------------------------------------------------------------
 ----------------------------------------------------------------
             Standard Nuclear Orientation (Angstroms)
    I     Atom           X                Y                Z
 ----------------------------------------------------------------
    1      C       2.4288206089     3.9369423424    -1.1814630637
    2      C       1.2468206089     3.4869423424    -0.3274630637
    3      O       0.8348206089     2.3259423424    -0.3254630637
    4      N       0.6758206089     4.4359423424     0.4055369363
    5      H       3.1018206089     4.5279423424    -0.5644630637
    6      H       2.0318206089     4.5969423424    -1.9534630637
    7      H      -0.1071793911     4.1849423424     0.9895369363
    8      H       1.0168206089     5.3839423424     0.3695369363
    9      H       2.9752456089     3.1162303424    -1.6691630637
 ----------------------------------------------------------------
 Nuclear Repulsion Energy =         122.00750803 hartrees
 There are       16 alpha and       16 beta electrons
 Requested basis set is def2-TZVPD
 There are 78 shells and 196 basis functions

 Total QAlloc Memory Limit  96000 MB
 Mega-Array Size      1956 MB
 MEM_STATIC part      2000 MB
 Discretize the solute cavity surface with Lebedev spheres
	Using 302 Lebedev grid points for each H atom
	Using 302 Lebedev grid points for other atoms
	Atomic van der Waals radii will be scaled by 1.20
 Remove points where switching function is < 1.0e-08
 Keep 1203 surface tesserae and discard 1515 interior tesserae
 Molecular Surface Area = 128.826 Angst**2

                       Distance Matrix (Angstroms)
             C (  1)   C (  2)   O (  3)   N (  4)   H (  5)   H (  6)
   C (  2)  1.526086
   O (  3)  2.422580  1.231937
   N (  4)  2.416729  1.328131  2.238692
   H (  5)  1.087612  2.140298  3.169419  2.614353
   H (  6)  1.090501  2.119481  3.039841  2.725718  1.754703
   H (  7)  3.347543  2.013705  2.464238  1.008537  3.581933  3.661463
   H (  8)  2.548167  2.034040  3.141260  1.008108  2.439737  2.654416
   H (  9)  1.100000  2.219243  2.647924  3.366508  1.797029  1.778591
             H (  7)   H (  8)
   H (  8)  1.756524
   H (  9)  4.208583  3.624120
 
 A cutoff of  1.0D-14 yielded   3054 shell pairs
 There are     19544 function pairs (     24702 Cartesian)
 Smallest overlap matrix eigenvalue = 1.06E-05

 Scale SEOQF with 1.000000e-01/1.000000e-02/1.000000e-01

 Standard Electronic Orientation quadrupole field applied
 Nucleus-field energy     =     0.0000000039 hartrees
 Guess from superposition of atomic densities
 Warning:  Energy on first SCF cycle will be non-variational
 SAD guess density has 31.604610 electrons

 -----------------------------------------------------------------------
  General SCF calculation program by
  Eric Jon Sundstrom, Paul Horn, Yuezhi Mao, Dmitri Zuev, Alec White,
  David Stuck, Shaama M.S., Shane Yost, Joonho Lee, David Small,
  Daniel Levine, Susi Lehtola, Hugh Burton, Evgeny Epifanovsky
 -----------------------------------------------------------------------
 Exchange:     0.1670 Hartree-Fock + 1.0000 wB97X-V + LR-HF
 Correlation:  1.0000 wB97X-V
 Using Euler-Maclaurin-Lebedev (99,590) quadrature formula
 Nonlocal Correlation:  VV10 with C = 0.0100 and b = 6.00 and scale = 1.00000
 Grid used for NLC:  SG-1 standard quadrature
Energy prior to optimization (guess energy) = -208.703115331544
Begin Timing: Total SCF Calculation
begin iterations for algorithm: DIIS         
the SCF tolerance is set to 1.00e-08
    1    -208.7031153315      1.26e-02     00000 
    2    -208.3076916571      1.56e-02     00000 
    3    -209.2227064109      2.50e-03     00000 
    4    -209.2428912151      8.29e-04     00000 
    5    -209.2456117079      1.26e-04     00000 
    6    -209.2457127865      4.95e-05     00000 
    7    -209.2457302579      1.12e-05     00000 
    8    -209.2457314340      2.11e-06     00000 
    9    -209.2457315265      7.57e-07     00000 
   10    -209.2457315322      3.20e-07     00000 
   11    -209.2457315331      7.49e-08     00000 
   12    -209.2457315332      1.70e-08     00000 
   13    -209.2457315332      4.36e-09     00000 Convergence criterion met
Timing for Total SCF: 374.00s (wall), 739.32s (cpu)

************** Final PCM Free Energy Summary **************
 G_electrostatic  =      -0.01219897 hartree =      -7.65496959 kcal/mol
 G_cavitation     =       0.00000000 hartree =       0.00000000 kcal/mol
 G_dispersion     =       0.00000000 hartree =       0.00000000 kcal/mol
 G_repulsion      =       0.00000000 hartree =       0.00000000 kcal/mol
 --------------------------------------------------
 Non-electrostatic Free Energy =       0.00000000 hartree =       0.00000000 kcal/mol
 Total                         =      -0.01219897 hartree =      -7.65496959 kcal/mol
 --------------------------------------------------
 SCF Energy (H0 + V/2)                       =    -209.24573153 
 Solute Internal Energy (H0)                 =    -209.23353256 
 Total Free Energy (H0 + V/2 + non-elec)     =    -209.24573153 hartree
                                             = -131303.67830341 kcal/mol
***********************************************************

E_pcm = -0.0121989706
Multipole orders to be included
        2
        3
computing dipole RHS
computing quadrupole RHS
total number of RHS in solve_reponses: 8
RHS batch sizes
        8
Beginning Block Conjugate Gradient Iterations. Batch Number: 0
computing hessian-vector products by finite difference
              1      6.66e-01     00000 Conjugate Gradient Iteration
computing hessian-vector products by finite difference
              2      2.22e-01     00000 Conjugate Gradient Iteration
computing hessian-vector products by finite difference
              3      5.73e-02     00000 Conjugate Gradient Iteration
computing hessian-vector products by finite difference
              4      1.45e-02     00000 Conjugate Gradient Iteration
computing hessian-vector products by finite difference
              5      2.26e-03     00000 Conjugate Gradient Iteration
computing hessian-vector products by finite difference
              6      5.09e-04     00000 Conjugate Gradient Iteration
computing hessian-vector products by finite difference
              7      7.76e-05     00000 Conjugate Gradient Iteration
computing hessian-vector products by finite difference
              8      9.55e-06     00000 Conjugate Gradient Iteration
computing hessian-vector products by finite difference
              9      1.35e-06     00000 Conjugate Gradient Iteration
computing hessian-vector products by finite difference
             10      1.42e-07     00000 Conjugate Gradient Iteration
computing hessian-vector products by finite difference
             11      1.76e-08     00000 Conjugate Gradient Iteration
computing hessian-vector products by finite difference
             12      4.11e-09     00000 CG Converged
batch 0 complete
Done Calculating Responses
TESTING ORTHOGONALIZATION OF MULTIPOLE BASIS
Multipole virts passed orthogonality test
Virts Per Order
        48
        80
 
 --------------------------------------------------------------
 
                    Orbital Energies (a.u.)
 --------------------------------------------------------------
 
 Alpha MOs
 -- Occupied --
-19.1795 -14.4335 -10.3791 -10.2738  -1.1704  -1.0464  -0.8705  -0.7141
 -0.6620  -0.5879  -0.5681  -0.5191  -0.5104  -0.4816  -0.3829  -0.3677
 -- Virtual --
  0.0586   0.0903   0.0945   0.0969   0.1254   0.1279   0.1347   0.1399
  0.1668   0.1841   0.1980   0.2059   0.2266   0.2403   0.2421   0.2515
  0.2552   0.2729   0.2985   0.3085   0.3268   0.3290   0.3399   0.3472
  0.3544   0.3671   0.3748   0.3785   0.3889   0.3977   0.4149   0.4207
  0.4221   0.4482   0.4567   0.4684   0.4826   0.4853   0.4906   0.4994
  0.5239   0.5312   0.5326   0.5663   0.5777   0.5871   0.6289   0.6420
  0.6514   0.6557   0.6653   0.6808   0.6981   0.7078   0.7296   0.7642
  0.7722   0.7785   0.7953   0.8039   0.8094   0.8320   0.8461   0.8738
  0.9168   0.9529   0.9734   0.9922   1.0053   1.0328   1.0585   1.1094
  1.1173   1.1659   1.2237   1.2578   1.2793   1.2976   1.3363   1.3935
  1.4730   1.4787   1.4979   1.6033   1.6811   1.7228   1.7553   1.8031
  1.8378   1.8638   1.8707   1.9184   1.9266   1.9373   1.9921   2.0141
  2.0608   2.0864   2.1388   2.1783   2.2347   2.2697   2.3090   2.3192
  2.3625   2.4084   2.4405   2.4726   2.5311   2.5640   2.6170   2.6372
  2.6695   2.7117   2.7469   2.8229   2.8562   2.9000   2.9349   2.9863
  3.0218   3.1172   3.1353   3.1614   3.1934   3.2245   3.2712   3.2753
  3.3144   3.3169   3.3459   3.4125   3.4498   3.5017   3.5399   3.5732
  3.6082   3.6614   3.7236   3.7492   3.8598   3.9313   4.0145   4.0388
  4.0681   4.1896   4.3234   4.3719   4.5519   4.5895   4.6121   4.6248
  4.7823   4.8840   4.8913   4.9171   5.1363   5.1731   5.2644   5.3476
  5.3780   5.3874   5.4130   5.4819   5.5277   5.7630   5.9066   6.1419
  6.2563   6.5189   6.6350   6.7293   6.8210   6.9763   7.2306   7.3216
 22.5948  23.5607  32.4116  44.3053
 --------------------------------------------------------------
 
          Ground-State Mulliken Net Atomic Charges

     Atom                 Charge (a.u.)
  ----------------------------------------
      1 C                    -0.656607
      2 C                     0.448065
      3 O                    -0.582647
      4 N                    -0.268081
      5 H                     0.242988
      6 H                     0.221110
      7 H                     0.211858
      8 H                     0.189668
      9 H                     0.193647
  ----------------------------------------
  Sum of atomic charges =     0.000000

 -----------------------------------------------------------------
                    Cartesian Multipole Moments
 -----------------------------------------------------------------
    Charge (ESU x 10^10)
                 0.0000
    Dipole Moment (Debye)
         X       0.9189      Y       5.1106      Z       0.6308
       Tot       5.2307
    Quadrupole Moments (Debye-Ang)
        XX     -20.4939     XY       7.7807     YY      10.3122
        XZ      -2.1354     YZ       1.8565     ZZ     -23.1124
    Octopole Moments (Debye-Ang^2)
       XXX     -89.6933    XXY     -69.4414    XYY      10.7961
       YYY     -73.7258    XXZ       5.4330    XYZ      -8.4756
       YYZ      17.7864    XZZ     -32.2559    YZZ     -82.0161
       ZZZ      27.6523
    Hexadecapole Moments (Debye-Ang^3)
      XXXX    -365.6331   XXXY    -329.1255   XXYY    -319.3680
      XYYY    -138.7773   YYYY   -1036.4858   XXXZ      63.1627
      XXYZ      19.8508   XYYZ      -6.9809   YYYZ     143.8830
      XXZZ     -79.3940   XYZZ    -120.7019   YYZZ    -331.4407
      XZZZ      67.6468   YZZZ      91.8817   ZZZZ    -110.5737
 -----------------------------------------------------------------
Archival summary:
1\1\nid00506\SP\ProcedureUnspecified\BasisUnspecified\1125\meili\SunSep2621:15:382021SunSep2621:15:382021\0\\#,ProcedureUnspecified,BasisUnspecified,\\0,1\C\O,1,1.23194\N,1,1.32813,2,121.919\H,3,1.00811,1,120.451,2,-178.466,0\H,3,1.00854,1,118.394,2,1.07767,0\C,1,1.52609,2,122.536,3,-179.125,0\H,6,1.08761,1,108.786,2,-133.058,0\H,6,1.0905,1,107.017,2,111.265,0\H,6,1.1,1,114.384,2,-9.03098,0\\\@

 Total job time:  6519.09s(wall), 12702.75s(cpu) 
 Sun Sep 26 21:15:45 2021

        *************************************************************
        *                                                           *
        *  Thank you very much for using Q-Chem.  Have a nice day.  *
        *                                                           *
        *************************************************************


Done Job For Fragment 1
calling putenv with: QCSCRATCH=/global/cscratch1/sd/meili 
calling putenv with: QCLOCALSCR=/tmp 
calling putenv with: QCTHREADS=32 
Doing General SCFMI
 Exchange:     0.1670 Hartree-Fock + 1.0000 wB97X-V + LR-HF
 Correlation:  1.0000 wB97X-V
 Using Euler-Maclaurin-Lebedev (99,590) quadrature formula
 Nonlocal Correlation:  VV10 with C = 0.0100 and b = 6.00 and scale = 1.00000
 Grid used for NLC:  SG-1 standard quadrature
performing fock build before subrot guess so that all methods have access
Printing subrot_rss_gen Method Specification:
Occupied Subspace Method is 0
Virtual Subspace Method is 0
Energy of the unrelaxed supersystem initial determinant -556.050489569722
performing fock build before subrot guess so that all methods have access
Printing subrot_rss_gen Method Specification:
Occupied Subspace Method is 0
Virtual Subspace Method is 0
Energy of the unrelaxed supersystem initial determinant w/ solvent -556.065228606107
write pseudocanon occs and virts to disk
write pseudocanon orbital energies to disk
Tolerance of ortho_decomp_scf: 1.00e-06
GDM subspace size: 20
Beginning the Orthogonal Decomposition of the Initial Supersystem Wavefunction
    1    -556.0282828154      3.50e-02     ortho_decomp Preconditoned Steepest Descent
    2    -556.0304637682      6.19e-04     ortho_decomp BFGS Step
    3    -556.0304679490      4.38e-05     ortho_decomp BFGS Step
    4    -556.0304679557      1.41e-06     ortho_decomp BFGS Step
    5    -556.0304679557      3.82e-08     ortho_decomp 00000 Convergence criterion met
 Hartree-Fock
 Hartree-Fock
 Hartree-Fock
Doing General SCFMI
 Exchange:     0.1670 Hartree-Fock + 1.0000 wB97X-V + LR-HF
 Correlation:  1.0000 wB97X-V
 Using Euler-Maclaurin-Lebedev (99,590) quadrature formula
 Nonlocal Correlation:  VV10 with C = 0.0100 and b = 6.00 and scale = 1.00000
 Grid used for NLC:  SG-1 standard quadrature
performing fock build at end of subrot_r(subrot) constructor so that all methods have access
<S^2> of initial wavefunction before polarization iterations 0.0000000000
Beginning iterations for the determination of the polarized wavefunction
Energy prior to optimization (guess energy) = -556.065228606107
Begin Timing: Total SCF Calculation
begin iterations for algorithm: DIIS         
the SCF tolerance is set to 1.00e-08
    1    -556.0652286061      6.93e-05     00000 
    2    -556.0656581106      2.99e-05     00000 
    3    -556.0657039029      1.93e-05     00000 
    4    -556.0657227088      5.98e-06     00000 
    5    -556.0657251632      2.54e-06     00000 
    6    -556.0657256578      1.09e-06     00000 
    7    -556.0657257682      3.71e-07     00000 
    8    -556.0657257789      1.23e-07     00000 
    9    -556.0657257804      3.95e-08     00000 
   10    -556.0657257805      1.48e-08     00000 
   11    -556.0657257805      5.29e-09     00000 Convergence criterion met
write pseudocanon occs and virts to disk
write pseudocanon orbital energies to disk
Timing for Total SCF: 5209.00s (wall), 10363.39s (cpu)
<S^2> of polarized wavefunction after polarization iterations 0.0000000000
relaxing scfmi constraint to allow all rotations in the entire AO span
Doing General SCFMI
 Exchange:     0.1670 Hartree-Fock + 1.0000 wB97X-V + LR-HF
 Correlation:  1.0000 wB97X-V
 Using Euler-Maclaurin-Lebedev (99,590) quadrature formula
 Nonlocal Correlation:  VV10 with C = 0.0100 and b = 6.00 and scale = 1.00000
 Grid used for NLC:  SG-1 standard quadrature
performing fock build at end of subrot_r(subrot) constructor so that all methods have access
<S^2> of polarized wavefunction before ct-allowed iterations 0.0000000000
Beginning iterations for the determination of the CT-Allowed wavefunction
Energy prior to optimization (guess energy) = -556.065725780510
Begin Timing: Total SCF Calculation
begin iterations for algorithm: DIIS         
the SCF tolerance is set to 1.00e-08
    1    -556.0657257805      6.03e-05     00000 
    2    -556.0664005858      7.99e-06     00000 
    3    -556.0664263430      2.67e-06     00000 
    4    -556.0664272982      2.35e-06     00000 
    5    -556.0664279852      2.52e-07     00000 
    6    -556.0664280066      1.42e-07     00000 
    7    -556.0664280112      4.36e-08     00000 
    8    -556.0664280117      1.61e-08     00000 
    9    -556.0664280118      5.14e-09     00000 Convergence criterion met
write pseudocanon occs and virts to disk
write pseudocanon orbital energies to disk
Timing for Total SCF: 4067.00s (wall), 8095.63s (cpu)
<S^2> of ct_allowed wavefunction after ct-allowed iterations 0.0000000000

================================
        Results of EDA2         
================================
Basic EDA Quantities
--------------------
Fragment Energies (Ha):
1 -346.8157608810
2 -209.2457315332
--------------------
  E_prp (kJ/mol) = 0.0000
  E_sol (kJ/mol) = 7.8057
  E_frz (kJ/mol) = -17.6152
  E_pol (kJ/mol) = -1.3053
  E_vct (kJ/mol) = -1.8437
  E_int (kJ/mol) = -12.9586
--------------------


Initial Wavefunction Decomposition
--------------------
  --------------------
  Orthogonal Fragment Subspace Decomposition:
  --------------------
     E_elec   (ELEC)   (kJ/mol) = -36.6179
     E_pauli  (PAULI)  (kJ/mol) = 27.8172
     E_disp   (DISP)   (kJ/mol) = -8.8145
     --------------------
     Terms summing to E_pauli:
     --------------------
        E_kep_pauli       (kJ/mol) = 34.9522
        E_disp_free_pauli (kJ/mol) = -7.1350
  --------------------
  Classical Frozen Decomposition:
  --------------------
     E_cls_elec  (CLS ELEC)  (kJ/mol) = -20.4798
     E_cls_pauli (CLS PAULI) (kJ/mol) = 2.8646
    [E_mod_pauli (MOD PAULI) (kJ/mol) = 11.6791 (CLS PAULI - DISP from orthogonal decomposition) ]
  --------------------
--------------------

Simplified EDA Summary (kJ/mol)
--------------------
 PREPARATION     0.0000
 SOLVATION       7.8057
 FROZEN          -8.8007      (does not include dispersion)
[PAULI           27.8172]     (if this is negligible, then frozen describes electrostatics)
 DISPERSION      -8.8145
 POLARIZATION    -1.3053
 CHARGE TRANSFER -1.8437
 TOTAL           -12.9586     (PRP + SOL + FRZ + DISP + POL + CT)
--------------------
 
 --------------------------------------------------------------
 
                    Orbital Energies (a.u.)
 --------------------------------------------------------------
 
 Alpha MOs
 -- Occupied --
-19.2353 -19.1835 -14.4356 -10.3822 -10.3287 -10.2750 -10.2738 -10.2732
-10.2713 -10.2673 -10.2669 -10.2605  -1.1877  -1.1740  -1.0487  -0.9940
 -0.9005  -0.8812  -0.8721  -0.8091  -0.7469  -0.7163  -0.7105  -0.6639
 -0.6622  -0.6009  -0.5916  -0.5795  -0.5700  -0.5494  -0.5384  -0.5304
 -0.5236  -0.5176  -0.5113  -0.5077  -0.4837  -0.4764  -0.4527  -0.4407
 -0.4357  -0.3857  -0.3718  -0.3499  -0.3108
 -- Virtual --
  0.0530   0.0608   0.0662   0.0741   0.0787   0.0847   0.0887   0.0926
  0.1050   0.1081   0.1119   0.1140   0.1250   0.1340   0.1392   0.1417
  0.1470   0.1502   0.1576   0.1591   0.1745   0.1773   0.1832   0.1860
  0.1944   0.1986   0.2087   0.2109   0.2147   0.2196   0.2238   0.2364
  0.2451   0.2469   0.2499   0.2506   0.2536   0.2579   0.2623   0.2643
  0.2705   0.2758   0.2773   0.2818   0.2915   0.2951   0.2978   0.3012
  0.3046   0.3087   0.3107   0.3221   0.3248   0.3283   0.3303   0.3355
  0.3416   0.3430   0.3446   0.3459   0.3513   0.3558   0.3579   0.3642
  0.3665   0.3701   0.3732   0.3742   0.3810   0.3823   0.3857   0.3908
  0.3936   0.3978   0.4008   0.4026   0.4065   0.4116   0.4168   0.4201
  0.4224   0.4260   0.4307   0.4367   0.4390   0.4430   0.4507   0.4535
  0.4580   0.4594   0.4630   0.4665   0.4724   0.4764   0.4787   0.4809
  0.4854   0.4898   0.4918   0.4958   0.5020   0.5044   0.5077   0.5118
  0.5184   0.5202   0.5257   0.5306   0.5320   0.5369   0.5409   0.5491
  0.5501   0.5525   0.5629   0.5664   0.5705   0.5786   0.5825   0.5886
  0.5910   0.5988   0.6073   0.6134   0.6185   0.6250   0.6306   0.6353
  0.6425   0.6496   0.6598   0.6610   0.6701   0.6752   0.6798   0.6815
  0.6851   0.6969   0.7036   0.7067   0.7142   0.7196   0.7209   0.7276
  0.7334   0.7357   0.7377   0.7530   0.7552   0.7617   0.7649   0.7712
  0.7756   0.7833   0.7844   0.7871   0.7933   0.7946   0.7975   0.7997
  0.8043   0.8067   0.8117   0.8138   0.8216   0.8248   0.8292   0.8328
  0.8387   0.8446   0.8497   0.8535   0.8567   0.8696   0.8730   0.8785
  0.8836   0.8937   0.8995   0.9052   0.9081   0.9211   0.9264   0.9330
  0.9389   0.9502   0.9646   0.9701   0.9820   0.9884   0.9950   1.0170
  1.0187   1.0318   1.0400   1.0430   1.0477   1.0534   1.0653   1.0678
  1.0719   1.0807   1.0874   1.0940   1.0983   1.1153   1.1254   1.1515
  1.1569   1.1654   1.1868   1.2043   1.2219   1.2310   1.2579   1.2687
  1.2826   1.2859   1.3025   1.3099   1.3136   1.3177   1.3322   1.3462
  1.3620   1.3665   1.3733   1.3793   1.4118   1.4135   1.4257   1.4575
  1.4767   1.4794   1.4947   1.5031   1.5106   1.5253   1.5438   1.5698
  1.5798   1.6193   1.6286   1.6383   1.6491   1.6617   1.7067   1.7101
  1.7240   1.7287   1.7394   1.7468   1.7916   1.7991   1.8173   1.8290
  1.8322   1.8398   1.8651   1.8697   1.8858   1.8909   1.8959   1.9073
  1.9215   1.9389   1.9426   1.9474   1.9568   1.9631   1.9655   1.9754
  1.9960   2.0002   2.0160   2.0220   2.0415   2.0525   2.0665   2.0680
  2.0722   2.0974   2.1008   2.1137   2.1191   2.1329   2.1485   2.1731
  2.1921   2.2048   2.2199   2.2291   2.2400   2.2465   2.2506   2.2801
  2.2822   2.2966   2.3198   2.3360   2.3424   2.3580   2.3802   2.3940
  2.4159   2.4196   2.4352   2.4458   2.4590   2.4746   2.4924   2.5111
  2.5157   2.5398   2.5547   2.5614   2.5737   2.6051   2.6097   2.6223
  2.6279   2.6355   2.6419   2.6571   2.6726   2.6794   2.6855   2.7185
  2.7322   2.7540   2.7576   2.7637   2.7762   2.7951   2.8041   2.8331
  2.8361   2.8595   2.8679   2.8809   2.9020   2.9185   2.9297   2.9395
  2.9492   2.9564   2.9700   2.9741   2.9916   3.0015   3.0140   3.0247
  3.0329   3.0370   3.0503   3.0805   3.0923   3.1171   3.1390   3.1457
  3.1521   3.1723   3.1813   3.1844   3.1950   3.2102   3.2183   3.2319
  3.2439   3.2499   3.2643   3.2717   3.2860   3.2893   3.3042   3.3175
  3.3295   3.3428   3.3495   3.3666   3.3832   3.3922   3.4029   3.4089
  3.4185   3.4253   3.4644   3.4655   3.4729   3.4866   3.4933   3.5054
  3.5147   3.5206   3.5281   3.5470   3.5494   3.5540   3.5662   3.5767
  3.5799   3.5936   3.6061   3.6189   3.6220   3.6290   3.6317   3.6630
  3.6722   3.6788   3.6968   3.7173   3.7364   3.7482   3.7604   3.7666
  3.8168   3.8279   3.8574   3.8650   3.8865   3.9348   3.9565   3.9677
  3.9944   3.9997   4.0290   4.0598   4.0691   4.0734   4.0939   4.1443
  4.1819   4.2144   4.2626   4.2801   4.2946   4.3110   4.3281   4.3425
  4.3564   4.3605   4.3784   4.3894   4.3982   4.3992   4.4504   4.4617
  4.5015   4.5584   4.5645   4.5968   4.6095   4.6161   4.6379   4.6392
  4.7401   4.7470   4.8038   4.8138   4.8442   4.8884   4.8972   4.9058
  4.9278   4.9445   5.0393   5.0686   5.0934   5.1353   5.1623   5.1690
  5.1767   5.2708   5.3046   5.3460   5.3577   5.3829   5.3882   5.4154
  5.4360   5.4586   5.5047   5.5351   5.5497   5.6249   5.6763   5.7311
  5.7604   5.7654   5.9083   5.9839   6.1517   6.2447   6.2882   6.5064
  6.5970   6.6290   6.6619   6.7164   6.7684   6.8316   6.9207   6.9775
  7.0317   7.2471   7.3270   7.3842   7.4796  22.6041  22.6650  22.6998
 22.9654  23.0053  23.0588  23.2135  23.5472  23.5928  32.4290  44.3401
 44.4600
 --------------------------------------------------------------
 
          Ground-State Mulliken Net Atomic Charges

     Atom                 Charge (a.u.)
  ----------------------------------------
      1 C                    -1.039436
      2 C                     0.695356
      3 C                    -0.205144
      4 C                    -0.754232
      5 C                    -0.650964
      6 C                    -0.403289
      7 C                     0.565827
      8 O                    -0.500103
      9 H                     0.264441
     10 H                     0.298908
     11 H                     0.328313
     12 H                     0.309630
     13 H                     0.323298
     14 H                     0.281550
     15 H                     0.277488
     16 H                     0.214315
     17 C                    -0.756378
     18 C                     0.417146
     19 O                    -0.521802
     20 N                    -0.243748
     21 H                     0.271662
     22 H                     0.238288
     23 H                     0.206578
     24 H                     0.186186
     25 H                     0.196110
  ----------------------------------------
  Sum of atomic charges =     0.000000

 -----------------------------------------------------------------
                    Cartesian Multipole Moments
 -----------------------------------------------------------------
    Charge (ESU x 10^10)
                -0.0000
    Dipole Moment (Debye)
         X       1.4956      Y       5.5766      Z      -1.1403
       Tot       5.8852
    Quadrupole Moments (Debye-Ang)
        XX     -72.6994     XY       6.9605     YY     -30.3552
        XZ      -0.8145     YZ       0.0783     ZZ     -69.3394
    Octopole Moments (Debye-Ang^2)
       XXX      17.2633    XXY      37.0505    XYY      43.5869
       YYY     206.8385    XXZ      -4.9461    XYZ      -4.7821
       YYZ      11.9826    XZZ       0.2853    YZZ       6.5959
       ZZZ       4.5227
    Hexadecapole Moments (Debye-Ang^3)
      XXXX    -623.9750   XXXY    -444.5888   XXYY    -716.2322
      XYYY    -241.8118   YYYY   -2989.0957   XXXZ     121.6426
      XXYZ       3.6604   XYYZ       9.7314   YYYZ      86.3486
      XXZZ    -187.2877   XYZZ    -149.9660   YYZZ    -715.4493
      XZZZ     113.3025   YZZZ      43.3406   ZZZZ    -462.9043
 -----------------------------------------------------------------
Archival summary:
1\1\nid00506\SP\ProcedureUnspecified\BasisUnspecified\21913\meili\MonSep2701:55:512021MonSep2701:55:512021\0\\#,ProcedureUnspecified,BasisUnspecified,\\0,1\O\H,1,0.963354\C,1,1.36112,2,111.361\C,3,1.38263,1,119.108,2,-11.2242,0\H,4,1.08123,3,119.986,1,0.10068,0\C,3,1.38491,1,121.205,2,168.887,0\H,6,1.0699,3,116.857,1,5.80221,0\C,4,1.39347,3,120.11,1,-179.803,0\H,8,1.08269,4,119.363,3,179.473,0\C,8,1.39063,4,120.936,3,-0.658133,0\C,10,1.39363,8,118.445,4,1.0329,0\H,11,1.08128,10,119.736,8,177.899,0\C,10,1.51227,8,120.587,4,177.603,0\H,13,1.0856,10,108.613,8,152.804,0\H,13,1.0881,10,108.548,8,34.1489,0\H,13,1.1,10,111.996,8,-86.4531,0\O,2,2.40635,1,128.63,3,-84.0085,0\C,17,1.23194,2,135.931,1,-114.393,0\N,18,1.32813,17,121.919,2,18.2192,0\H,19,1.00811,18,120.451,17,-178.466,0\H,19,1.00854,18,118.394,17,1.07767,0\C,18,1.52609,17,122.536,2,-160.906,0\H,22,1.08761,18,108.786,17,-133.058,0\H,22,1.0905,18,107.017,17,111.265,0\H,22,1.1,18,114.384,17,-9.03098,0\\\@

 Total job time:  63308.96s(wall), 33467.75s(cpu) 
 Mon Sep 27 01:55:55 2021

        *************************************************************
        *                                                           *
        *  Thank you very much for using Q-Chem.  Have a nice day.  *
        *                                                           *
        *************************************************************


