
Running Job 1 of 1 SSI-001ARG-015GLU-1_SMD_TZVPD.in
qchem SSI-001ARG-015GLU-1_SMD_TZVPD.in_41987.0 /tmp/qchem41987/ 0
/global/common/cori/software/qchem/5.2/exe/qcprog.exe_s SSI-001ARG-015GLU-1_SMD_TZVPD.in_41987.0 /tmp/qchem41987/
                  Welcome to Q-Chem
     A Quantum Leap Into The Future Of Chemistry


 Q-Chem 5.2, Q-Chem, Inc., Pleasanton, CA (2019)

 License issued to: National Energy Research Scientific Computing Center

 Yihan Shao,  Zhengting Gan,  E. Epifanovsky,  A. T. B. Gilbert,  M. Wormit,  
 J. Kussmann,  A. W. Lange,  A. Behn,  Jia Deng,  Xintian Feng,  D. Ghosh,  
 M. Goldey,  P. R. Horn,  L. D. Jacobson,  I. Kaliman,  T. Kus,  A. Landau,  
 Jie Liu,  E. I. Proynov,  R. M. Richard,  R. P. Steele,  E. J. Sundstrom,  
 H. L. Woodcock III,  P. M. Zimmerman,  D. Zuev,  B. Albrecht,  E. Alguire,  
 S. A. Baeppler,  D. Barton,  Z. Benda,  Y. A. Bernard,  E. J. Berquist,  
 K. B. Bravaya,  H. Burton,  D. Casanova,  Chun-Min Chang,  Yunqing Chen,  
 A. Chien,  K. D. Closser,  M. P. Coons,  S. Coriani,  S. Dasgupta,  
 A. L. Dempwolff,  M. Diedenhofen,  Hainam Do,  R. G. Edgar,  Po-Tung Fang,  
 S. Faraji,  S. Fatehi,  Qingguo Feng,  K. D. Fenk,  J. Fosso-Tande,  
 J. Gayvert,  Qinghui Ge,  A. Ghysels,  G. Gidofalvi,  J. Gomes,  
 J. Gonthier,  A. Gunina,  D. Hait,  M. W. D. Hanson-Heine,  
 P. H. P. Harbach,  A. W. Hauser,  M. F. Herbst,  J. E. Herr,  
 E. G. Hohenstein,  Z. C. Holden,  Kerwin Hui,  B. C. Huynh,  T.-C. Jagau,  
 Hyunjun Ji,  B. Kaduk,  K. Khistyaev,  Jaehoon Kim,  P. Klunzinger,  K. Koh,  
 D. Kosenkov,  L. Koulias,  T. Kowalczyk,  C. M. Krauter,  A. Kunitsa,  
 Ka Un Lao,  A. Laurent,  K. V. Lawler,  Joonho Lee,  D. Lefrancois,  
 S. Lehtola,  D. S. Levine,  Yi-Pei Li,  You-Sheng Lin,  Fenglai Liu,  
 E. Livshits,  A. Luenser,  P. Manohar,  E. Mansoor,  S. F. Manzer,  
 Shan-Ping Mao,  Yuezhi Mao,  N. Mardirossian,  A. V. Marenich,  
 T. Markovich,  L. A. Martinez-Martinez,  S. A. Maurer,  N. J. Mayhall,  
 S. C. McKenzie,  J.-M. Mewes,  P. Morgante,  A. F. Morrison,  
 J. W. Mullinax,  K. Nanda,  T. S. Nguyen-Beck,  R. Olivares-Amaya,  
 J. A. Parkhill,  Zheng Pei,  T. M. Perrine,  F. Plasser,  P. Pokhilko,  
 S. Prager,  A. Prociuk,  E. Ramos,  D. R. Rehn,  F. Rob,  M. Scheurer,  
 M. Schneider,  N. Sergueev,  S. M. Sharada,  S. Sharma,  D. W. Small,  
 T. Stauch,  T. Stein,  Yu-Chuan Su,  A. J. W. Thom,  A. Tkatchenko,  
 T. Tsuchimochi,  N. M. Tubman,  L. Vogt,  M. L. Vidal,  O. Vydrov,  
 M. A. Watson,  J. Wenzel,  M. de Wergifosse,  T. A. Wesolowski,  A. White,  
 J. Witte,  A. Yamada,  Jun Yang,  K. Yao,  S. Yeganeh,  S. R. Yost,  
 Zhi-Qiang You,  A. Zech,  Igor Ying Zhang,  Xing Zhang,  Yan Zhao,  
 Ying Zhu,  B. R. Brooks,  G. K. L. Chan,  C. J. Cramer,  M. S. Gordon,  
 W. J. Hehre,  A. Klamt,  M. W. Schmidt,  C. D. Sherrill,  D. G. Truhlar,  
 A. Aspuru-Guzik,  R. Baer,  A. T. Bell,  N. A. Besley,  Jeng-Da Chai,  
 A. E. DePrince, III,  R. A. DiStasio Jr.,  A. Dreuw,  B. D. Dunietz,  
 T. R. Furlani,  Chao-Ping Hsu,  Yousung Jung,  Jing Kong,  D. S. Lambrecht,  
 WanZhen Liang,  C. Ochsenfeld,  V. A. Rassolov,  L. V. Slipchenko,  
 J. E. Subotnik,  T. Van Voorhis,  J. M. Herbert,  A. I. Krylov,  
 P. M. W. Gill,  M. Head-Gordon

 Contributors to earlier versions of Q-Chem not listed above: 
 R. D. Adamson,  B. Austin,  J. Baker,  G. J. O. Beran,  K. Brandhorst,  
 S. T. Brown,  E. F. C. Byrd,  A. K. Chakraborty,  C.-L. Cheng,  
 Siu Hung Chien,  D. M. Chipman,  D. L. Crittenden,  H. Dachsel,  
 R. J. Doerksen,  A. D. Dutoi,  L. Fusti-Molnar,  W. A. Goddard III,  
 A. Golubeva-Zadorozhnaya,  S. R. Gwaltney,  G. Hawkins,  A. Heyden,  
 S. Hirata,  G. Kedziora,  F. J. Keil,  C. Kelley,  Jihan Kim,  R. A. King,  
 R. Z. Khaliullin,  P. P. Korambath,  W. Kurlancheek,  A. M. Lee,  M. S. Lee,  
 S. V. Levchenko,  Ching Yeh Lin,  D. Liotard,  R. C. Lochan,  I. Lotan,  
 P. E. Maslen,  N. Nair,  D. P. O'Neill,  D. Neuhauser,  E. Neuscamman,  
 C. M. Oana,  R. Olson,  B. Peters,  R. Peverati,  P. A. Pieniazek,  
 Y. M. Rhee,  J. Ritchie,  M. A. Rohrdanz,  E. Rosta,  N. J. Russ,  
 H. F. Schaefer III,  N. E. Schultz,  N. Shenvi,  A. C. Simmonett,  A. Sodt,  
 D. Stuck,  K. S. Thanthiriwatte,  V. Vanovschi,  Tao Wang,  A. Warshel,  
 C. F. Williams,  Q. Wu,  X. Xu,  W. Zhang

 Please cite Q-Chem as follows:
 Y. Shao et al., Mol. Phys. 113, 184-215 (2015)
 DOI: 10.1080/00268976.2014.952696

 Q-Chem 5.2.0 for Intel X86 EM64T Linux

 Parts of Q-Chem use Armadillo 8.300.2 (Tropical Shenanigans).
 http://arma.sourceforge.net/

 Q-Chem begins on Sun Sep 26 01:24:07 2021  

Host: cori01
0

     Scratch files written to /tmp/qchem41987//
 May1019 |scratch|qcdevops|jenkins|workspace|build_RNUM -1
Processing $rem in /global/common/cori/software/qchem/5.2/config/preferences:
	 MEM_TOTAL  96000 
NAlpha2: 72
NElect   72
Mult     1
Symmetry turned off for PCM/SM12/SMD calculation

 Q-Chem warning in module libgen/rem_setup.C, line 2803:

 Neither GIA nor STOLL is specified by user. Use STOLL as the default


Checking the input file for inconsistencies... 	...done.

--------------------------------------------------------------
User input:
--------------------------------------------------------------
$comment
SSI-001ARG-015GLU-1.pdb
$end

$molecule
0 1
--
1 1
C   -2.984148627956    2.063008076316    1.527960651240
C   -1.983148627956    0.461008076316   -0.052039348760
N   -1.012148627956    0.131008076316   -0.875039348760
N   -1.986148627956    1.647008076316    0.535960651240
N   -2.951148627956   -0.415991923684    0.146960651240
H   -0.249148627956    0.763008076316   -1.057039348760
H   -0.961148627956   -0.793991923684   -1.271039348760
H   -1.285148627956    2.321008076316    0.260960651240
H   -3.887148627956   -0.057991923684    0.209960651240
H   -2.860148627956   -1.331991923684   -0.269039348760
H   -3.627148627956    2.840008076316    1.113960651240
H   -2.450148627956    2.471008076316    2.387960651240
H   -3.596428627956    1.211518076316    1.859730651240
--
-1 1
C    3.777851372044   -1.925991923684   -0.387039348760
C    2.691851372044   -0.915991923684   -0.317039348760
O    1.503851372044   -1.278991923684   -0.312039348760
O    3.005851372044    0.273008076316   -0.226039348760
H    3.713851372044   -2.467991923684   -1.334039348760
H    3.623851372044   -2.643991923684    0.419960651240
H    4.781311372044   -1.483351923684   -0.302519348760
$end

$rem
JOBTYPE			EDA
EDA2			1
method			wB97X-V
BASIS			def2-TZVPD
XC_GRID			000099000590
NL_GRID			1
UNRESTRICTED		FALSE
MAX_SCF_CYCLES		200
SYMMETRY		FALSE
SYM_IGNORE		TRUE
MEM_STATIC		2000
BASIS_LIN_DEP_THRESH 	6
THRESH 			14
SCF_CONVERGENCE 	8
SCF_PRINT_FRGM 		TRUE
SOLVENT_METHOD          SMD
$end

$SMX
SOLVENT			WATER
$END
--------------------------------------------------------------
 ----------------------------------------------------------------
             Standard Nuclear Orientation (Angstroms)
    I     Atom           X                Y                Z
 ----------------------------------------------------------------
    1      C      -2.9841486280     2.0630080763     1.5279606512
    2      C      -1.9831486280     0.4610080763    -0.0520393488
    3      N      -1.0121486280     0.1310080763    -0.8750393488
    4      N      -1.9861486280     1.6470080763     0.5359606512
    5      N      -2.9511486280    -0.4159919237     0.1469606512
    6      H      -0.2491486280     0.7630080763    -1.0570393488
    7      H      -0.9611486280    -0.7939919237    -1.2710393488
    8      H      -1.2851486280     2.3210080763     0.2609606512
    9      H      -3.8871486280    -0.0579919237     0.2099606512
   10      H      -2.8601486280    -1.3319919237    -0.2690393488
   11      H      -3.6271486280     2.8400080763     1.1139606512
   12      H      -2.4501486280     2.4710080763     2.3879606512
   13      H      -3.5964286280     1.2115180763     1.8597306512
   14      C       3.7778513720    -1.9259919237    -0.3870393488
   15      C       2.6918513720    -0.9159919237    -0.3170393488
   16      O       1.5038513720    -1.2789919237    -0.3120393488
   17      O       3.0058513720     0.2730080763    -0.2260393488
   18      H       3.7138513720    -2.4679919237    -1.3340393488
   19      H       3.6238513720    -2.6439919237     0.4199606512
   20      H       4.7813113720    -1.4833519237    -0.3025193488
 ----------------------------------------------------------------
 Nuclear Repulsion Energy =         437.82922933 hartrees
 There are       36 alpha and       36 beta electrons
 Requested basis set is def2-TZVPD
 There are 174 shells and 438 basis functions

 Total QAlloc Memory Limit  96000 MB
 Mega-Array Size      1956 MB
 MEM_STATIC part      2000 MB
 
 Citation of the SMD model:
 Marenich, A.V.; Cramer, C.J.; Truhlar, D.G.
 J. Phys. Chem. B 2009, 113, 6378-6396.
 iSolventCode=           1
 Solvent: water                                                           
 
 vradii
            1           2           3           4           5           6
    1   1.8500000   1.8500000   1.8900000   1.8900000   1.8900000   1.2000000
            7           8           9          10          11          12
    1   1.2000000   1.2000000   1.2000000   1.2000000   1.2000000   1.2000000
           13          14          15          16          17          18
    1   1.2000000   1.8500000   1.8500000   1.5200000   1.5200000   1.2000000
           19          20
    1   1.2000000   1.2000000
 Changing PCM_VDW_RADII to SMD_RADIUS
 Discretize the solute cavity surface with Lebedev spheres
	Using 110 Lebedev grid points for each H atom
	Using 194 Lebedev grid points for other atoms
	Atomic van der Waals radii will be scaled by 1.20
 Remove points where switching function is < 1.0e-08
 Keep 1546 surface tesserae and discard 1410 interior tesserae
 Molecular Surface Area = 187.501 Angst**2
 A cutoff of  1.0D-14 yielded  12955 shell pairs
 There are     81953 function pairs (    102515 Cartesian)
 Smallest overlap matrix eigenvalue = 8.44E-06

 Scale SEOQF with 1.000000e-01/1.000000e-01/1.000000e-01

 Standard Electronic Orientation quadrupole field applied
 Nucleus-field energy     =     0.0000000227 hartrees

 -----------------------------------------------------------------------
  General SCF calculation program by
  Eric Jon Sundstrom, Paul Horn, Yuezhi Mao, Dmitri Zuev, Alec White,
  David Stuck, Shaama M.S., Shane Yost, Joonho Lee, David Small,
  Daniel Levine, Susi Lehtola, Hugh Burton, Evgeny Epifanovsky
 -----------------------------------------------------------------------
================================================================
                 ALMO-EDA with the EDA2 driver                  
================================================================
 The second-generation ALMO-EDA (for DFT):                      
 P. R. Horn, Y. Mao and M. Head-Gordon, PCCP, 18, 23067 (2016)  
 Decomposition of the frozen energy:                            
 P. R. Horn, Y. Mao and M. Head-Gordon, JCP, 144, 114107 (2016) 
 FERF model for polarization:                                   
 P. R. Horn and M. Head-Gordon, JCP, 143, 114111 (2015)         
Using eda2 option set 1
Option set summary: Frozen orbital wavefunction, initial wavefunction decomposition, and nDQ polarization.
--------------------------------
Printing EDA Options
--------------------------------
eda_child_super_basis      0
fragmo_guess_mode          0
child_mp                   1
child_mp_orders            232
cls_elec                   1
cls_disp                   0
scfmi_mode                 1
scfmi_occs                 0
scfmi_virts                0
frz_relax                  0
frz_relax_method           0
dc_pen_start               0
dc_pen_conv                0
dc_pen_increment           0
dc_pen_steps               0
dc_pen_thresh_factor       0
dc_pen_pre_newton_thresh   0
frz_ortho_decomp           1
frz_ortho_decomp_conv      6
frgm_method                2
scfmi_freeze_ss            0
separate_rehyb             0
plot_diff_den              0
eda_nocv                   0
eda_vct_relax              1
disp_free_x                0
disp_free_c                0
eda_bsse                   0
eda_pct_a                  0
eda_covp                   0
--------------------------------
Attempting to make child job directory: /tmp/qchem41987//Frg1/
Attempting to make child job directory: /tmp/qchem41987//Frg2/
Creating input file /tmp/qchem41987/Frg1.input
using default PutDataFrgm: nothing
calling putenv with: QCSCRATCH=/tmp/qchem41987/ 
calling putenv with: QCLOCALSCR=/tmp/qchem41987/ 
Spawning Job For Fragment 0
                  Welcome to Q-Chem
     A Quantum Leap Into The Future Of Chemistry


 Q-Chem 5.2, Q-Chem, Inc., Pleasanton, CA (2019)

 License issued to: National Energy Research Scientific Computing Center

 Yihan Shao,  Zhengting Gan,  E. Epifanovsky,  A. T. B. Gilbert,  M. Wormit,  
 J. Kussmann,  A. W. Lange,  A. Behn,  Jia Deng,  Xintian Feng,  D. Ghosh,  
 M. Goldey,  P. R. Horn,  L. D. Jacobson,  I. Kaliman,  T. Kus,  A. Landau,  
 Jie Liu,  E. I. Proynov,  R. M. Richard,  R. P. Steele,  E. J. Sundstrom,  
 H. L. Woodcock III,  P. M. Zimmerman,  D. Zuev,  B. Albrecht,  E. Alguire,  
 S. A. Baeppler,  D. Barton,  Z. Benda,  Y. A. Bernard,  E. J. Berquist,  
 K. B. Bravaya,  H. Burton,  D. Casanova,  Chun-Min Chang,  Yunqing Chen,  
 A. Chien,  K. D. Closser,  M. P. Coons,  S. Coriani,  S. Dasgupta,  
 A. L. Dempwolff,  M. Diedenhofen,  Hainam Do,  R. G. Edgar,  Po-Tung Fang,  
 S. Faraji,  S. Fatehi,  Qingguo Feng,  K. D. Fenk,  J. Fosso-Tande,  
 J. Gayvert,  Qinghui Ge,  A. Ghysels,  G. Gidofalvi,  J. Gomes,  
 J. Gonthier,  A. Gunina,  D. Hait,  M. W. D. Hanson-Heine,  
 P. H. P. Harbach,  A. W. Hauser,  M. F. Herbst,  J. E. Herr,  
 E. G. Hohenstein,  Z. C. Holden,  Kerwin Hui,  B. C. Huynh,  T.-C. Jagau,  
 Hyunjun Ji,  B. Kaduk,  K. Khistyaev,  Jaehoon Kim,  P. Klunzinger,  K. Koh,  
 D. Kosenkov,  L. Koulias,  T. Kowalczyk,  C. M. Krauter,  A. Kunitsa,  
 Ka Un Lao,  A. Laurent,  K. V. Lawler,  Joonho Lee,  D. Lefrancois,  
 S. Lehtola,  D. S. Levine,  Yi-Pei Li,  You-Sheng Lin,  Fenglai Liu,  
 E. Livshits,  A. Luenser,  P. Manohar,  E. Mansoor,  S. F. Manzer,  
 Shan-Ping Mao,  Yuezhi Mao,  N. Mardirossian,  A. V. Marenich,  
 T. Markovich,  L. A. Martinez-Martinez,  S. A. Maurer,  N. J. Mayhall,  
 S. C. McKenzie,  J.-M. Mewes,  P. Morgante,  A. F. Morrison,  
 J. W. Mullinax,  K. Nanda,  T. S. Nguyen-Beck,  R. Olivares-Amaya,  
 J. A. Parkhill,  Zheng Pei,  T. M. Perrine,  F. Plasser,  P. Pokhilko,  
 S. Prager,  A. Prociuk,  E. Ramos,  D. R. Rehn,  F. Rob,  M. Scheurer,  
 M. Schneider,  N. Sergueev,  S. M. Sharada,  S. Sharma,  D. W. Small,  
 T. Stauch,  T. Stein,  Yu-Chuan Su,  A. J. W. Thom,  A. Tkatchenko,  
 T. Tsuchimochi,  N. M. Tubman,  L. Vogt,  M. L. Vidal,  O. Vydrov,  
 M. A. Watson,  J. Wenzel,  M. de Wergifosse,  T. A. Wesolowski,  A. White,  
 J. Witte,  A. Yamada,  Jun Yang,  K. Yao,  S. Yeganeh,  S. R. Yost,  
 Zhi-Qiang You,  A. Zech,  Igor Ying Zhang,  Xing Zhang,  Yan Zhao,  
 Ying Zhu,  B. R. Brooks,  G. K. L. Chan,  C. J. Cramer,  M. S. Gordon,  
 W. J. Hehre,  A. Klamt,  M. W. Schmidt,  C. D. Sherrill,  D. G. Truhlar,  
 A. Aspuru-Guzik,  R. Baer,  A. T. Bell,  N. A. Besley,  Jeng-Da Chai,  
 A. E. DePrince, III,  R. A. DiStasio Jr.,  A. Dreuw,  B. D. Dunietz,  
 T. R. Furlani,  Chao-Ping Hsu,  Yousung Jung,  Jing Kong,  D. S. Lambrecht,  
 WanZhen Liang,  C. Ochsenfeld,  V. A. Rassolov,  L. V. Slipchenko,  
 J. E. Subotnik,  T. Van Voorhis,  J. M. Herbert,  A. I. Krylov,  
 P. M. W. Gill,  M. Head-Gordon

 Contributors to earlier versions of Q-Chem not listed above: 
 R. D. Adamson,  B. Austin,  J. Baker,  G. J. O. Beran,  K. Brandhorst,  
 S. T. Brown,  E. F. C. Byrd,  A. K. Chakraborty,  C.-L. Cheng,  
 Siu Hung Chien,  D. M. Chipman,  D. L. Crittenden,  H. Dachsel,  
 R. J. Doerksen,  A. D. Dutoi,  L. Fusti-Molnar,  W. A. Goddard III,  
 A. Golubeva-Zadorozhnaya,  S. R. Gwaltney,  G. Hawkins,  A. Heyden,  
 S. Hirata,  G. Kedziora,  F. J. Keil,  C. Kelley,  Jihan Kim,  R. A. King,  
 R. Z. Khaliullin,  P. P. Korambath,  W. Kurlancheek,  A. M. Lee,  M. S. Lee,  
 S. V. Levchenko,  Ching Yeh Lin,  D. Liotard,  R. C. Lochan,  I. Lotan,  
 P. E. Maslen,  N. Nair,  D. P. O'Neill,  D. Neuhauser,  E. Neuscamman,  
 C. M. Oana,  R. Olson,  B. Peters,  R. Peverati,  P. A. Pieniazek,  
 Y. M. Rhee,  J. Ritchie,  M. A. Rohrdanz,  E. Rosta,  N. J. Russ,  
 H. F. Schaefer III,  N. E. Schultz,  N. Shenvi,  A. C. Simmonett,  A. Sodt,  
 D. Stuck,  K. S. Thanthiriwatte,  V. Vanovschi,  Tao Wang,  A. Warshel,  
 C. F. Williams,  Q. Wu,  X. Xu,  W. Zhang

 Please cite Q-Chem as follows:
 Y. Shao et al., Mol. Phys. 113, 184-215 (2015)
 DOI: 10.1080/00268976.2014.952696

 Q-Chem 5.2.0 for Intel X86 EM64T Linux

 Parts of Q-Chem use Armadillo 8.300.2 (Tropical Shenanigans).
 http://arma.sourceforge.net/

 Q-Chem begins on Sun Sep 26 01:24:11 2021  

Host: cori01
0

     Scratch files written to /tmp/qchem41987//Frg1//
 May1019 |scratch|qcdevops|jenkins|workspace|build_RNUM -1
Processing $rem in /global/common/cori/software/qchem/5.2/config/preferences:
	 MEM_TOTAL  96000 
NAlpha2: 40
NElect   40
Mult     1
Symmetry turned off for PCM/SM12/SMD calculation

Checking the input file for inconsistencies... 	...done.

--------------------------------------------------------------
User input:
--------------------------------------------------------------
$molecule
1 1
 6	-2.9841486280	2.0630080763	1.5279606512
 6	-1.9831486280	0.4610080763	-0.0520393488
 7	-1.0121486280	0.1310080763	-0.8750393488
 7	-1.9861486280	1.6470080763	0.5359606512
 7	-2.9511486280	-0.4159919237	0.1469606512
 1	-0.2491486280	0.7630080763	-1.0570393488
 1	-0.9611486280	-0.7939919237	-1.2710393488
 1	-1.2851486280	2.3210080763	0.2609606512
 1	-3.8871486280	-0.0579919237	0.2099606512
 1	-2.8601486280	-1.3319919237	-0.2690393488
 1	-3.6271486280	2.8400080763	1.1139606512
 1	-2.4501486280	2.4710080763	2.3879606512
 1	-3.5964286280	1.2115180763	1.8597306512
$end
$rem
EDA2		1
METHOD		WB97X-V
BASIS		DEF2-TZVPD
XC_GRID		000099000590
NL_GRID		1
UNRESTRICTED		FALSE
MAX_SCF_CYCLES		200
SYMMETRY		FALSE
SYM_IGNORE		TRUE
BASIS_LIN_DEP_THRESH		6
THRESH		14
SCF_CONVERGENCE		8
SCF_PRINT_FRGM		TRUE
SOLVENT_METHOD		SMD
!required keywords
JOBTYPE		SP
SYM_IGNORE		TRUE
SUBSYSTEM		TRUE
GEN_SCFMAN		TRUE
CHILD_INSTRUCTION		2
SYM_IGNORE		TRUE
SCFMI		0
RI_K 0		
PARI_K 0		
MIN_PARI_K 0		
IARI_K 0		
OCC_RI_K 0		
PURECART		1111
MEM_STATIC		2000
MEM_TOTAL		96000
GUI		0
CHILD_MP		1
CHILD_MP_ORDERS		232
FRZ_RELAX		0
FRZ_RELAX_METHOD		0
EDA_CLS_ELEC		1
EDA_CLS_DISP		0
FRZ_ORTHO_DECOMP		1
EDA2		FALSE
FRGM_METHOD		FALSE
CIS_N_ROOTS  0
LOCAL_CIS    0
CIS_RLX_DNS  1
$end
$smx
SOLVENT			WATER
$end
--------------------------------------------------------------
 ----------------------------------------------------------------
             Standard Nuclear Orientation (Angstroms)
    I     Atom           X                Y                Z
 ----------------------------------------------------------------
    1      C      -2.9841486280     2.0630080763     1.5279606512
    2      C      -1.9831486280     0.4610080763    -0.0520393488
    3      N      -1.0121486280     0.1310080763    -0.8750393488
    4      N      -1.9861486280     1.6470080763     0.5359606512
    5      N      -2.9511486280    -0.4159919237     0.1469606512
    6      H      -0.2491486280     0.7630080763    -1.0570393488
    7      H      -0.9611486280    -0.7939919237    -1.2710393488
    8      H      -1.2851486280     2.3210080763     0.2609606512
    9      H      -3.8871486280    -0.0579919237     0.2099606512
   10      H      -2.8601486280    -1.3319919237    -0.2690393488
   11      H      -3.6271486280     2.8400080763     1.1139606512
   12      H      -2.4501486280     2.4710080763     2.3879606512
   13      H      -3.5964286280     1.2115180763     1.8597306512
 ----------------------------------------------------------------
 Nuclear Repulsion Energy =         194.44225252 hartrees
 There are       20 alpha and       20 beta electrons
 Requested basis set is def2-TZVPD
 There are 105 shells and 257 basis functions

 Total QAlloc Memory Limit  96000 MB
 Mega-Array Size      1956 MB
 MEM_STATIC part      2000 MB
 
 Citation of the SMD model:
 Marenich, A.V.; Cramer, C.J.; Truhlar, D.G.
 J. Phys. Chem. B 2009, 113, 6378-6396.
 iSolventCode=           1
 Solvent: water                                                           
 
 vradii
            1           2           3           4           5           6
    1   1.8500000   1.8500000   1.8900000   1.8900000   1.8900000   1.2000000
            7           8           9          10          11          12
    1   1.2000000   1.2000000   1.2000000   1.2000000   1.2000000   1.2000000
           13
    1   1.2000000
 Changing PCM_VDW_RADII to SMD_RADIUS
 Discretize the solute cavity surface with Lebedev spheres
	Using 110 Lebedev grid points for each H atom
	Using 194 Lebedev grid points for other atoms
	Atomic van der Waals radii will be scaled by 1.20
 Remove points where switching function is < 1.0e-08
 Keep 916 surface tesserae and discard 934 interior tesserae
 Molecular Surface Area = 113.455 Angst**2

                       Distance Matrix (Angstroms)
             C (  1)   C (  2)   N (  3)   N (  4)   N (  5)   H (  6)
   C (  2)  2.462682
   N (  3)  3.660030  1.314941
   N (  4)  1.467353  1.323763  2.288636
   N (  5)  2.837903  1.321270  2.259074  2.310523
   H (  6)  3.981514  2.026816  1.007332  2.517196  3.184409
   H (  7)  4.482118  2.026196  1.007493  3.205363  2.472591  1.725395
   H (  8)  2.135054  2.011162  2.482161  1.010595  3.206200  2.288621
   H (  9)  2.655405  1.990784  3.078729  2.574316  1.004106  3.938829
   H ( 10)  3.843255  2.007752  2.433662  3.207233  1.010145  3.439083
   H ( 11)  1.090217  3.118001  4.258289  2.109553  3.463178  4.520847
   H ( 12)  1.091430  3.195589  4.265045  2.079465  3.688882  4.430541
   H ( 13)  1.099997  2.611667  3.914712  2.129559  2.449236  4.462398
             H (  7)   H (  8)   H (  9)   H ( 10)   H ( 11)   H ( 12)
   H (  8)  3.486434
   H (  9)  3.361032  3.525996
   H ( 10)  2.213515  4.013220  1.705065
   H ( 11)  5.099190  2.545964  3.046838  4.461677
   H ( 12)  5.125000  2.429785  3.633799  4.657312  1.773292
   H ( 13)  4.557246  3.021432  2.101884  3.397530  1.791395  1.783059

 
 A cutoff of  1.0D-14 yielded   5442 shell pairs
 There are     33176 function pairs (     41510 Cartesian)
 Smallest overlap matrix eigenvalue = 1.70E-05

 Scale SEOQF with 1.000000e-01/1.000000e-01/1.000000e-01

 Standard Electronic Orientation quadrupole field applied
 Nucleus-field energy     =     0.0000000096 hartrees
 Guess from superposition of atomic densities
 Warning:  Energy on first SCF cycle will be non-variational
 SAD guess density has 40.388232 electrons

 -----------------------------------------------------------------------
  General SCF calculation program by
  Eric Jon Sundstrom, Paul Horn, Yuezhi Mao, Dmitri Zuev, Alec White,
  David Stuck, Shaama M.S., Shane Yost, Joonho Lee, David Small,
  Daniel Levine, Susi Lehtola, Hugh Burton, Evgeny Epifanovsky
 -----------------------------------------------------------------------
 Exchange:     0.1670 Hartree-Fock + 1.0000 wB97X-V + LR-HF
 Correlation:  1.0000 wB97X-V
 Using Euler-Maclaurin-Lebedev (99,590) quadrature formula
 Nonlocal Correlation:  VV10 with C = 0.0100 and b = 6.00 and scale = 1.00000
 Grid used for NLC:  SG-1 standard quadrature
Energy prior to optimization (guess energy) = -244.720377354892
Begin Timing: Total SCF Calculation
begin iterations for algorithm: DIIS         
the SCF tolerance is set to 1.00e-08
    1    -244.7203773549      7.94e-03     00000 
    2    -244.9609263381      6.24e-03     00000 
    3    -245.2007737985      3.35e-04     00000 
    4    -245.2017909996      1.72e-04     00000 
    5    -245.2020323709      5.03e-05     00000 
    6    -245.2020550645      2.01e-05     00000 
    7    -245.2020586686      4.16e-06     00000 
    8    -245.2020589645      1.09e-06     00000 
    9    -245.2020589898      4.68e-07     00000 
   10    -245.2020589935      1.38e-07     00000 
   11    -245.2020589940      2.87e-08     00000 
   12    -245.2020589941      8.60e-09     00000 Convergence criterion met
Timing for Total SCF: 680.00s (wall), 1351.05s (cpu)
(3)  G-ENP(liq) elect-nuc-pol free energy of system     -245.202058994 a.u.
(4)  G-CDS(liq) cavity-dispersion-solvent structure 
     free energy                                                2.9203 kcal/mol
(6)  G-S(liq) free energy of system                     -245.197405163 a.u.
E_pcm = -0.1088877950
E_cds = 0.0046538310
Multipole orders to be included
        2
        3
computing dipole RHS
computing quadrupole RHS
total number of RHS in solve_reponses: 8
RHS batch sizes
        8
Beginning Block Conjugate Gradient Iterations. Batch Number: 0
computing hessian-vector products by finite difference
              1      4.84e-01     00000 Conjugate Gradient Iteration
computing hessian-vector products by finite difference
              2      1.80e-01     00000 Conjugate Gradient Iteration
computing hessian-vector products by finite difference
              3      4.93e-02     00000 Conjugate Gradient Iteration
computing hessian-vector products by finite difference
              4      1.32e-02     00000 Conjugate Gradient Iteration
computing hessian-vector products by finite difference
              5      1.97e-03     00000 Conjugate Gradient Iteration
computing hessian-vector products by finite difference
              6      3.21e-04     00000 Conjugate Gradient Iteration
computing hessian-vector products by finite difference
              7      4.90e-05     00000 Conjugate Gradient Iteration
computing hessian-vector products by finite difference
              8      6.81e-06     00000 Conjugate Gradient Iteration
computing hessian-vector products by finite difference
              9      1.01e-06     00000 Conjugate Gradient Iteration
computing hessian-vector products by finite difference
             10      1.11e-07     00000 Conjugate Gradient Iteration
computing hessian-vector products by finite difference
             11      1.23e-08     00000 Conjugate Gradient Iteration
computing hessian-vector products by finite difference
             12      2.21e-09     00000 CG Converged
batch 0 complete
Done Calculating Responses
TESTING ORTHOGONALIZATION OF MULTIPOLE BASIS
Multipole virts passed orthogonality test
Virts Per Order
           60
          100
 
 --------------------------------------------------------------
 
                    Orbital Energies (a.u.)
 --------------------------------------------------------------
 
 Alpha MOs
 -- Occupied --
-14.4578 -14.4459 -14.4416 -10.4220 -10.3039  -1.1747  -1.0583  -1.0411
 -0.8520  -0.7654  -0.7212  -0.6867  -0.6260  -0.6125  -0.5792  -0.5688
 -0.5240  -0.5082  -0.4008  -0.3771
 -- Virtual --
  0.0592   0.0859   0.0956   0.0990   0.1233   0.1295   0.1392   0.1486
  0.1667   0.1758   0.1919   0.1961   0.2060   0.2107   0.2281   0.2377
  0.2421   0.2473   0.2565   0.2728   0.2803   0.2866   0.3014   0.3064
  0.3111   0.3155   0.3240   0.3314   0.3397   0.3490   0.3536   0.3638
  0.3678   0.3685   0.3820   0.3912   0.4060   0.4094   0.4208   0.4359
  0.4422   0.4438   0.4684   0.4700   0.4803   0.4863   0.4932   0.4964
  0.5018   0.5134   0.5186   0.5238   0.5278   0.5405   0.5524   0.5531
  0.5567   0.5688   0.5862   0.5969   0.6039   0.6217   0.6287   0.6533
  0.6657   0.6907   0.7000   0.7115   0.7180   0.7305   0.7496   0.7663
  0.7822   0.8026   0.8139   0.8210   0.8286   0.8333   0.8489   0.8651
  0.8763   0.8824   0.9054   0.9198   0.9425   0.9675   0.9916   1.0040
  1.0264   1.0389   1.0741   1.0829   1.1056   1.1141   1.1369   1.1490
  1.1736   1.1955   1.2279   1.2449   1.2680   1.3400   1.3782   1.4331
  1.4350   1.4566   1.4756   1.4921   1.5720   1.6061   1.6340   1.6698
  1.6987   1.7275   1.7678   1.7709   1.8118   1.8491   1.8585   1.9035
  1.9081   1.9195   1.9391   1.9535   1.9915   2.0109   2.0292   2.0601
  2.0815   2.1231   2.1556   2.1834   2.2238   2.2529   2.2641   2.2939
  2.3421   2.3566   2.3871   2.4336   2.4683   2.4851   2.4983   2.5444
  2.5494   2.5949   2.6045   2.6179   2.6703   2.7013   2.7206   2.7439
  2.7586   2.8246   2.8528   2.8914   2.9008   2.9280   2.9328   2.9737
  3.0272   3.0827   3.1287   3.1469   3.1817   3.1969   3.2293   3.2395
  3.2512   3.2881   3.3130   3.3229   3.3608   3.3749   3.4435   3.4770
  3.4836   3.5334   3.5415   3.5587   3.5942   3.6248   3.7416   3.7776
  3.8058   3.8708   3.8980   3.9373   3.9960   4.0361   4.1636   4.2017
  4.2773   4.3258   4.3505   4.4232   4.4895   4.5601   4.6097   4.6275
  4.6957   4.8345   4.8676   4.9026   4.9221   4.9751   4.9924   5.0597
  5.1044   5.1307   5.1428   5.1909   5.1961   5.2255   5.2663   5.3440
  5.3870   5.4087   5.4604   5.4745   5.4994   5.5433   5.5700   5.6340
  5.7164   5.7590   5.8385   5.8886   6.1393   6.1942   6.3405   6.4646
 22.6318  23.6526  32.3381  32.4518  32.8066
 --------------------------------------------------------------
 
          Ground-State Mulliken Net Atomic Charges

     Atom                 Charge (a.u.)
  ----------------------------------------
      1 C                    -0.740032
      2 C                     0.417396
      3 N                    -0.289619
      4 N                    -0.122430
      5 N                    -0.355754
      6 H                     0.247174
      7 H                     0.246321
      8 H                     0.263290
      9 H                     0.257375
     10 H                     0.255160
     11 H                     0.256864
     12 H                     0.260228
     13 H                     0.304026
  ----------------------------------------
  Sum of atomic charges =     1.000000

 -----------------------------------------------------------------
                    Cartesian Multipole Moments
 -----------------------------------------------------------------
    Charge (ESU x 10^10)
                 4.8032
    Dipole Moment (Debye)
         X      -9.7094      Y       2.9118      Z      -0.8814
       Tot      10.1748
    Quadrupole Moments (Debye-Ang)
        XX       0.1754     XY      -4.0111     YY     -15.8803
        XZ      -3.2211     YZ       5.5190     ZZ     -26.5466
    Octopole Moments (Debye-Ang^2)
       XXX      93.4972    XXY     -13.3694    XYY      40.6037
       YYY     -52.0198    XXZ       4.1319    XYZ     -14.9428
       YYZ      -4.1767    XZZ      61.8921    YZZ     -19.8098
       ZZZ     -24.0743
    Hexadecapole Moments (Debye-Ang^3)
      XXXX    -647.3452   XXXY     142.5837   XXYY    -165.3705
      XYYY     142.7479   YYYY    -268.8775   XXXZ      60.6048
      XXYZ      11.6792   XYYZ      19.7052   YYYZ     -59.4416
      XXZZ    -190.5502   XYZZ      46.0039   YYZZ     -71.7117
      XZZZ      95.6909   YZZZ     -67.3269   ZZZZ    -175.4926
 -----------------------------------------------------------------
Archival summary:
1\1\nid00572\SP\ProcedureUnspecified\BasisUnspecified\328(1+,1)\meili\SunSep2604:54:172021SunSep2604:54:172021\0\\#,ProcedureUnspecified,BasisUnspecified,\\1,1\C\N,1,1.31494\H,2,1.00733,1,120.994\H,2,1.00749,1,120.917,3,173.902,0\N,1,1.32127,2,117.949,3,-179.727,0\H,5,1.00411,1,117.112,2,-140.132,0\H,5,1.01015,1,118.286,2,5.77056,0\N,1,1.32376,2,120.3,3,1.23649,0\H,8,1.01059,1,118.365,2,6.50318,0\C,8,1.46735,1,123.768,2,-176.107,0\H,10,1.09022,8,110.271,1,-110.934,0\H,10,1.09143,8,107.813,1,130.479,0\H,10,1.1,8,111.286,1,11.1072,0\\\@

 Total job time:  12607.21s(wall), 24937.87s(cpu) 
 Sun Sep 26 04:54:18 2021

        *************************************************************
        *                                                           *
        *  Thank you very much for using Q-Chem.  Have a nice day.  *
        *                                                           *
        *************************************************************


Done Job For Fragment 0
calling putenv with: QCSCRATCH=/global/cscratch1/sd/meili 
calling putenv with: QCLOCALSCR=/tmp 
calling putenv with: QCTHREADS=32 
Creating input file /tmp/qchem41987/Frg2.input
using default PutDataFrgm: nothing
calling putenv with: QCSCRATCH=/tmp/qchem41987/ 
calling putenv with: QCLOCALSCR=/tmp/qchem41987/ 
Spawning Job For Fragment 1
                  Welcome to Q-Chem
     A Quantum Leap Into The Future Of Chemistry


 Q-Chem 5.2, Q-Chem, Inc., Pleasanton, CA (2019)

 License issued to: National Energy Research Scientific Computing Center

 Yihan Shao,  Zhengting Gan,  E. Epifanovsky,  A. T. B. Gilbert,  M. Wormit,  
 J. Kussmann,  A. W. Lange,  A. Behn,  Jia Deng,  Xintian Feng,  D. Ghosh,  
 M. Goldey,  P. R. Horn,  L. D. Jacobson,  I. Kaliman,  T. Kus,  A. Landau,  
 Jie Liu,  E. I. Proynov,  R. M. Richard,  R. P. Steele,  E. J. Sundstrom,  
 H. L. Woodcock III,  P. M. Zimmerman,  D. Zuev,  B. Albrecht,  E. Alguire,  
 S. A. Baeppler,  D. Barton,  Z. Benda,  Y. A. Bernard,  E. J. Berquist,  
 K. B. Bravaya,  H. Burton,  D. Casanova,  Chun-Min Chang,  Yunqing Chen,  
 A. Chien,  K. D. Closser,  M. P. Coons,  S. Coriani,  S. Dasgupta,  
 A. L. Dempwolff,  M. Diedenhofen,  Hainam Do,  R. G. Edgar,  Po-Tung Fang,  
 S. Faraji,  S. Fatehi,  Qingguo Feng,  K. D. Fenk,  J. Fosso-Tande,  
 J. Gayvert,  Qinghui Ge,  A. Ghysels,  G. Gidofalvi,  J. Gomes,  
 J. Gonthier,  A. Gunina,  D. Hait,  M. W. D. Hanson-Heine,  
 P. H. P. Harbach,  A. W. Hauser,  M. F. Herbst,  J. E. Herr,  
 E. G. Hohenstein,  Z. C. Holden,  Kerwin Hui,  B. C. Huynh,  T.-C. Jagau,  
 Hyunjun Ji,  B. Kaduk,  K. Khistyaev,  Jaehoon Kim,  P. Klunzinger,  K. Koh,  
 D. Kosenkov,  L. Koulias,  T. Kowalczyk,  C. M. Krauter,  A. Kunitsa,  
 Ka Un Lao,  A. Laurent,  K. V. Lawler,  Joonho Lee,  D. Lefrancois,  
 S. Lehtola,  D. S. Levine,  Yi-Pei Li,  You-Sheng Lin,  Fenglai Liu,  
 E. Livshits,  A. Luenser,  P. Manohar,  E. Mansoor,  S. F. Manzer,  
 Shan-Ping Mao,  Yuezhi Mao,  N. Mardirossian,  A. V. Marenich,  
 T. Markovich,  L. A. Martinez-Martinez,  S. A. Maurer,  N. J. Mayhall,  
 S. C. McKenzie,  J.-M. Mewes,  P. Morgante,  A. F. Morrison,  
 J. W. Mullinax,  K. Nanda,  T. S. Nguyen-Beck,  R. Olivares-Amaya,  
 J. A. Parkhill,  Zheng Pei,  T. M. Perrine,  F. Plasser,  P. Pokhilko,  
 S. Prager,  A. Prociuk,  E. Ramos,  D. R. Rehn,  F. Rob,  M. Scheurer,  
 M. Schneider,  N. Sergueev,  S. M. Sharada,  S. Sharma,  D. W. Small,  
 T. Stauch,  T. Stein,  Yu-Chuan Su,  A. J. W. Thom,  A. Tkatchenko,  
 T. Tsuchimochi,  N. M. Tubman,  L. Vogt,  M. L. Vidal,  O. Vydrov,  
 M. A. Watson,  J. Wenzel,  M. de Wergifosse,  T. A. Wesolowski,  A. White,  
 J. Witte,  A. Yamada,  Jun Yang,  K. Yao,  S. Yeganeh,  S. R. Yost,  
 Zhi-Qiang You,  A. Zech,  Igor Ying Zhang,  Xing Zhang,  Yan Zhao,  
 Ying Zhu,  B. R. Brooks,  G. K. L. Chan,  C. J. Cramer,  M. S. Gordon,  
 W. J. Hehre,  A. Klamt,  M. W. Schmidt,  C. D. Sherrill,  D. G. Truhlar,  
 A. Aspuru-Guzik,  R. Baer,  A. T. Bell,  N. A. Besley,  Jeng-Da Chai,  
 A. E. DePrince, III,  R. A. DiStasio Jr.,  A. Dreuw,  B. D. Dunietz,  
 T. R. Furlani,  Chao-Ping Hsu,  Yousung Jung,  Jing Kong,  D. S. Lambrecht,  
 WanZhen Liang,  C. Ochsenfeld,  V. A. Rassolov,  L. V. Slipchenko,  
 J. E. Subotnik,  T. Van Voorhis,  J. M. Herbert,  A. I. Krylov,  
 P. M. W. Gill,  M. Head-Gordon

 Contributors to earlier versions of Q-Chem not listed above: 
 R. D. Adamson,  B. Austin,  J. Baker,  G. J. O. Beran,  K. Brandhorst,  
 S. T. Brown,  E. F. C. Byrd,  A. K. Chakraborty,  C.-L. Cheng,  
 Siu Hung Chien,  D. M. Chipman,  D. L. Crittenden,  H. Dachsel,  
 R. J. Doerksen,  A. D. Dutoi,  L. Fusti-Molnar,  W. A. Goddard III,  
 A. Golubeva-Zadorozhnaya,  S. R. Gwaltney,  G. Hawkins,  A. Heyden,  
 S. Hirata,  G. Kedziora,  F. J. Keil,  C. Kelley,  Jihan Kim,  R. A. King,  
 R. Z. Khaliullin,  P. P. Korambath,  W. Kurlancheek,  A. M. Lee,  M. S. Lee,  
 S. V. Levchenko,  Ching Yeh Lin,  D. Liotard,  R. C. Lochan,  I. Lotan,  
 P. E. Maslen,  N. Nair,  D. P. O'Neill,  D. Neuhauser,  E. Neuscamman,  
 C. M. Oana,  R. Olson,  B. Peters,  R. Peverati,  P. A. Pieniazek,  
 Y. M. Rhee,  J. Ritchie,  M. A. Rohrdanz,  E. Rosta,  N. J. Russ,  
 H. F. Schaefer III,  N. E. Schultz,  N. Shenvi,  A. C. Simmonett,  A. Sodt,  
 D. Stuck,  K. S. Thanthiriwatte,  V. Vanovschi,  Tao Wang,  A. Warshel,  
 C. F. Williams,  Q. Wu,  X. Xu,  W. Zhang

 Please cite Q-Chem as follows:
 Y. Shao et al., Mol. Phys. 113, 184-215 (2015)
 DOI: 10.1080/00268976.2014.952696

 Q-Chem 5.2.0 for Intel X86 EM64T Linux

 Parts of Q-Chem use Armadillo 8.300.2 (Tropical Shenanigans).
 http://arma.sourceforge.net/

 Q-Chem begins on Sun Sep 26 04:54:20 2021  

Host: cori01
0

     Scratch files written to /tmp/qchem41987//Frg2//
 May1019 |scratch|qcdevops|jenkins|workspace|build_RNUM -1
Processing $rem in /global/common/cori/software/qchem/5.2/config/preferences:
	 MEM_TOTAL  96000 
NAlpha2: 32
NElect   32
Mult     1
Symmetry turned off for PCM/SM12/SMD calculation

Checking the input file for inconsistencies... 	...done.

--------------------------------------------------------------
User input:
--------------------------------------------------------------
$molecule
-1 1
 6	3.7778513720	-1.9259919237	-0.3870393488
 6	2.6918513720	-0.9159919237	-0.3170393488
 8	1.5038513720	-1.2789919237	-0.3120393488
 8	3.0058513720	0.2730080763	-0.2260393488
 1	3.7138513720	-2.4679919237	-1.3340393488
 1	3.6238513720	-2.6439919237	0.4199606512
 1	4.7813113720	-1.4833519237	-0.3025193488
$end
$rem
EDA2		1
METHOD		WB97X-V
BASIS		DEF2-TZVPD
XC_GRID		000099000590
NL_GRID		1
UNRESTRICTED		FALSE
MAX_SCF_CYCLES		200
SYMMETRY		FALSE
SYM_IGNORE		TRUE
BASIS_LIN_DEP_THRESH		6
THRESH		14
SCF_CONVERGENCE		8
SCF_PRINT_FRGM		TRUE
SOLVENT_METHOD		SMD
!required keywords
JOBTYPE		SP
SYM_IGNORE		TRUE
SUBSYSTEM		TRUE
GEN_SCFMAN		TRUE
CHILD_INSTRUCTION		2
SYM_IGNORE		TRUE
SCFMI		0
RI_K 0		
PARI_K 0		
MIN_PARI_K 0		
IARI_K 0		
OCC_RI_K 0		
PURECART		1111
MEM_STATIC		2000
MEM_TOTAL		96000
GUI		0
CHILD_MP		1
CHILD_MP_ORDERS		232
FRZ_RELAX		0
FRZ_RELAX_METHOD		0
EDA_CLS_ELEC		1
EDA_CLS_DISP		0
FRZ_ORTHO_DECOMP		1
EDA2		FALSE
FRGM_METHOD		FALSE
CIS_N_ROOTS  0
LOCAL_CIS    0
CIS_RLX_DNS  1
$end
$smx
SOLVENT			WATER
$end
--------------------------------------------------------------
 ----------------------------------------------------------------
             Standard Nuclear Orientation (Angstroms)
    I     Atom           X                Y                Z
 ----------------------------------------------------------------
    1      C       3.7778513720    -1.9259919237    -0.3870393488
    2      C       2.6918513720    -0.9159919237    -0.3170393488
    3      O       1.5038513720    -1.2789919237    -0.3120393488
    4      O       3.0058513720     0.2730080763    -0.2260393488
    5      H       3.7138513720    -2.4679919237    -1.3340393488
    6      H       3.6238513720    -2.6439919237     0.4199606512
    7      H       4.7813113720    -1.4833519237    -0.3025193488
 ----------------------------------------------------------------
 Nuclear Repulsion Energy =         114.16760576 hartrees
 There are       16 alpha and       16 beta electrons
 Requested basis set is def2-TZVPD
 There are 69 shells and 181 basis functions

 Total QAlloc Memory Limit  96000 MB
 Mega-Array Size      1956 MB
 MEM_STATIC part      2000 MB
 
 Citation of the SMD model:
 Marenich, A.V.; Cramer, C.J.; Truhlar, D.G.
 J. Phys. Chem. B 2009, 113, 6378-6396.
 iSolventCode=           1
 Solvent: water                                                           
 
 vradii
            1           2           3           4           5           6
    1   1.8500000   1.8500000   1.5200000   1.5200000   1.2000000   1.2000000
            7
    1   1.2000000
 Changing PCM_VDW_RADII to SMD_RADIUS
 Discretize the solute cavity surface with Lebedev spheres
	Using 110 Lebedev grid points for each H atom
	Using 194 Lebedev grid points for other atoms
	Atomic van der Waals radii will be scaled by 1.20
 Remove points where switching function is < 1.0e-08
 Keep 644 surface tesserae and discard 462 interior tesserae
 Molecular Surface Area = 78.933 Angst**2

                       Distance Matrix (Angstroms)
             C (  1)   C (  2)   O (  3)   O (  4)   H (  5)   H (  6)
   C (  2)  1.484721
   O (  3)  2.365441  1.242231
   O (  4)  2.336131  1.233125  2.161505
   H (  5)  1.093009  2.118367  2.709669  3.040067
   H (  6)  1.091095  2.097088  2.625538  3.050923  1.765104
   H (  7)  1.100003  2.165168  3.283839  2.498581  1.781297  1.791306

 
 A cutoff of  1.0D-14 yielded   2394 shell pairs
 There are     16706 function pairs (     21504 Cartesian)
 Smallest overlap matrix eigenvalue = 1.44E-05

 Scale SEOQF with 1.000000e-01/1.000000e-01/1.000000e-01

 Standard Electronic Orientation quadrupole field applied
 Nucleus-field energy     =     0.0000000131 hartrees
 Guess from superposition of atomic densities
 Warning:  Energy on first SCF cycle will be non-variational
 SAD guess density has 30.625312 electrons

 -----------------------------------------------------------------------
  General SCF calculation program by
  Eric Jon Sundstrom, Paul Horn, Yuezhi Mao, Dmitri Zuev, Alec White,
  David Stuck, Shaama M.S., Shane Yost, Joonho Lee, David Small,
  Daniel Levine, Susi Lehtola, Hugh Burton, Evgeny Epifanovsky
 -----------------------------------------------------------------------
 Exchange:     0.1670 Hartree-Fock + 1.0000 wB97X-V + LR-HF
 Correlation:  1.0000 wB97X-V
 Using Euler-Maclaurin-Lebedev (99,590) quadrature formula
 Nonlocal Correlation:  VV10 with C = 0.0100 and b = 6.00 and scale = 1.00000
 Grid used for NLC:  SG-1 standard quadrature
Energy prior to optimization (guess energy) = -227.761952912160
Begin Timing: Total SCF Calculation
begin iterations for algorithm: DIIS         
the SCF tolerance is set to 1.00e-08
    1    -227.7619529122      1.66e-02     00000 
    2    -225.5789468847      2.51e-02     00000 
    3    -228.6025591352      4.10e-03     00000 
    4    -228.6562072657      1.43e-03     00000 
    5    -228.6623284986      3.60e-04     00000 
    6    -228.6626694848      2.36e-04     00000 
    7    -228.6628218253      4.66e-05     00000 
    8    -228.6628311751      1.33e-05     00000 
    9    -228.6628323261      3.35e-06     00000 
   10    -228.6628324246      9.10e-07     00000 
   11    -228.6628324302      2.42e-07     00000 
   12    -228.6628324306      5.28e-08     00000 
   13    -228.6628324306      1.30e-08     00000 
   14    -228.6628324306      3.36e-09     00000 Convergence criterion met
Timing for Total SCF: 281.00s (wall), 550.89s (cpu)
(3)  G-ENP(liq) elect-nuc-pol free energy of system     -228.662832431 a.u.
(4)  G-CDS(liq) cavity-dispersion-solvent structure 
     free energy                                                3.9160 kcal/mol
(6)  G-S(liq) free energy of system                     -228.656591843 a.u.
E_pcm = -0.1319912201
E_cds = 0.0062405881
Multipole orders to be included
        2
        3
computing dipole RHS
computing quadrupole RHS
total number of RHS in solve_reponses: 8
RHS batch sizes
        8
Beginning Block Conjugate Gradient Iterations. Batch Number: 0
computing hessian-vector products by finite difference
              1      6.64e-01     00000 Conjugate Gradient Iteration
computing hessian-vector products by finite difference
              2      2.19e-01     00000 Conjugate Gradient Iteration
computing hessian-vector products by finite difference
              3      5.86e-02     00000 Conjugate Gradient Iteration
computing hessian-vector products by finite difference
              4      1.52e-02     00000 Conjugate Gradient Iteration
computing hessian-vector products by finite difference
              5      2.13e-03     00000 Conjugate Gradient Iteration
computing hessian-vector products by finite difference
              6      5.15e-04     00000 Conjugate Gradient Iteration
computing hessian-vector products by finite difference
              7      7.62e-05     00000 Conjugate Gradient Iteration
computing hessian-vector products by finite difference
              8      9.52e-06     00000 Conjugate Gradient Iteration
computing hessian-vector products by finite difference
              9      1.42e-06     00000 Conjugate Gradient Iteration
computing hessian-vector products by finite difference
             10      1.55e-07     00000 Conjugate Gradient Iteration
computing hessian-vector products by finite difference
             11      1.93e-08     00000 Conjugate Gradient Iteration
computing hessian-vector products by finite difference
             12      5.24e-09     00000 CG Converged
batch 0 complete
Done Calculating Responses
TESTING ORTHOGONALIZATION OF MULTIPOLE BASIS
Multipole virts passed orthogonality test
Virts Per Order
        48
        80
 
 --------------------------------------------------------------
 
                    Orbital Energies (a.u.)
 --------------------------------------------------------------
 
 Alpha MOs
 -- Occupied --
-19.1484 -19.1482 -10.3458 -10.2436  -1.1728  -1.0670  -0.8461  -0.6164
 -0.5529  -0.5496  -0.5436  -0.4812  -0.4617  -0.3643  -0.3594  -0.3406
 -- Virtual --
  0.0673   0.0998   0.1008   0.1072   0.1354   0.1451   0.1472   0.1499
  0.1602   0.1921   0.2029   0.2277   0.2327   0.2405   0.2609   0.2665
  0.3004   0.3161   0.3345   0.3457   0.3513   0.3620   0.3732   0.3858
  0.3904   0.3990   0.4162   0.4281   0.4339   0.4587   0.4669   0.4735
  0.4856   0.4935   0.5054   0.5091   0.5504   0.5686   0.5929   0.6037
  0.6091   0.6283   0.6291   0.6525   0.6598   0.6782   0.6818   0.7012
  0.7099   0.7259   0.7702   0.7954   0.8090   0.8101   0.8393   0.8583
  0.8646   0.9530   0.9710   0.9804   0.9838   1.0341   1.0396   1.1122
  1.1729   1.1879   1.2472   1.2700   1.2914   1.3131   1.3325   1.3469
  1.4497   1.5625   1.5938   1.7317   1.8127   1.8455   1.8590   1.9085
  1.9099   1.9479   1.9554   1.9610   2.0026   2.1183   2.1239   2.1402
  2.1982   2.2214   2.3094   2.3513   2.3997   2.4386   2.4756   2.4970
  2.5719   2.5838   2.6071   2.6609   2.8090   2.8142   2.8754   2.9354
  2.9423   2.9819   3.0192   3.1756   3.1834   3.2607   3.2639   3.2894
  3.3254   3.3390   3.3769   3.4208   3.4213   3.5413   3.5541   3.5612
  3.6369   3.6476   3.6947   3.7538   3.7814   3.9097   3.9625   4.0717
  4.0985   4.2147   4.3744   4.5626   4.6305   4.6740   4.7672   4.8250
  4.9632   5.2999   5.3272   5.3404   5.3480   5.4796   5.7099   5.7864
  5.8348   6.0495   6.2269   6.3510   6.3732   6.6037   6.6245   6.7112
  6.7202   6.7401   6.9564   6.9737   7.0190   7.2449   7.3450   7.3977
  7.3998  22.6191  23.8540  44.1967  44.3472
 --------------------------------------------------------------
 
          Ground-State Mulliken Net Atomic Charges

     Atom                 Charge (a.u.)
  ----------------------------------------
      1 C                    -0.563519
      2 C                     0.491374
      3 O                    -0.790625
      4 O                    -0.762780
      5 H                     0.206839
      6 H                     0.204212
      7 H                     0.214498
  ----------------------------------------
  Sum of atomic charges =    -1.000000

 -----------------------------------------------------------------
                    Cartesian Multipole Moments
 -----------------------------------------------------------------
    Charge (ESU x 10^10)
                -4.8032
    Dipole Moment (Debye)
         X      -9.0712      Y       0.8144      Z       1.1337
       Tot       9.1780
    Quadrupole Moments (Debye-Ang)
        XX     -46.2156     XY      -4.9505     YY     -29.7809
        XZ       1.6919     YZ      -0.3986     ZZ     -25.1082
    Octopole Moments (Debye-Ang^2)
       XXX    -269.5877    XXY       0.9694    XYY     -73.5099
       YYY      83.7576    XXZ      10.9488    XYZ       1.3524
       YYZ       9.5411    XZZ     -69.6972    YZZ      24.4158
       ZZZ      23.1261
    Hexadecapole Moments (Debye-Ang^3)
      XXXX   -1511.9076   XXXY     140.9587   XXYY    -269.9603
      XYYY     230.6966   YYYY    -316.3621   XXXZ      75.4439
      XXYZ      -1.6940   XYYZ      23.6976   YYYZ     -31.5084
      XXZZ    -229.0866   XYZZ      69.9471   YYZZ     -55.4188
      XZZZ      65.6438   YZZZ     -26.1583   ZZZZ     -46.9206
 -----------------------------------------------------------------
Archival summary:
1\1\nid00572\SP\ProcedureUnspecified\BasisUnspecified\223(1-,1)\meili\SunSep2606:09:002021SunSep2606:09:002021\0\\#,ProcedureUnspecified,BasisUnspecified,\\-1,1\C\O,1,1.23313\O,1,1.24223,2,121.667\C,1,1.48472,2,118.239,3,-177.91,0\H,4,1.0911,1,108.032,2,124.08,0\H,4,1.09301,1,109.594,2,-118.68,0\H,4,1.1,1,112.948,2,2.58745,0\\\@

 Total job time:  4482.15s(wall), 8787.90s(cpu) 
 Sun Sep 26 06:09:02 2021

        *************************************************************
        *                                                           *
        *  Thank you very much for using Q-Chem.  Have a nice day.  *
        *                                                           *
        *************************************************************


Done Job For Fragment 1
calling putenv with: QCSCRATCH=/global/cscratch1/sd/meili 
calling putenv with: QCLOCALSCR=/tmp 
calling putenv with: QCTHREADS=32 
Doing General SCFMI
 Exchange:     0.1670 Hartree-Fock + 1.0000 wB97X-V + LR-HF
 Correlation:  1.0000 wB97X-V
 Using Euler-Maclaurin-Lebedev (99,590) quadrature formula
 Nonlocal Correlation:  VV10 with C = 0.0100 and b = 6.00 and scale = 1.00000
 Grid used for NLC:  SG-1 standard quadrature
performing fock build before subrot guess so that all methods have access
Printing subrot_rss_gen Method Specification:
Occupied Subspace Method is 0
Virtual Subspace Method is 0
Energy of the unrelaxed supersystem initial determinant -473.750777640170
performing fock build before subrot guess so that all methods have access
Printing subrot_rss_gen Method Specification:
Occupied Subspace Method is 0
Virtual Subspace Method is 0
Energy of the unrelaxed supersystem initial determinant w/ solvent -473.864679327930
write pseudocanon occs and virts to disk
write pseudocanon orbital energies to disk
Tolerance of ortho_decomp_scf: 1.00e-06
GDM subspace size: 20
Beginning the Orthogonal Decomposition of the Initial Supersystem Wavefunction
    1    -473.6006076137      5.15e-02     ortho_decomp Preconditoned Steepest Descent
    2    -473.6046175360      1.20e-03     ortho_decomp BFGS Step
    3    -473.6046294717      9.03e-05     ortho_decomp BFGS Step
    4    -473.6046294914      3.45e-06     ortho_decomp BFGS Step
    5    -473.6046294914      1.09e-07     ortho_decomp 00000 Convergence criterion met
 Hartree-Fock
 Hartree-Fock
 Hartree-Fock
Doing General SCFMI
 Exchange:     0.1670 Hartree-Fock + 1.0000 wB97X-V + LR-HF
 Correlation:  1.0000 wB97X-V
 Using Euler-Maclaurin-Lebedev (99,590) quadrature formula
 Nonlocal Correlation:  VV10 with C = 0.0100 and b = 6.00 and scale = 1.00000
 Grid used for NLC:  SG-1 standard quadrature
performing fock build at end of subrot_r(subrot) constructor so that all methods have access
<S^2> of initial wavefunction before polarization iterations 0.0000000000
Beginning iterations for the determination of the polarized wavefunction
Energy prior to optimization (guess energy) = -473.864679327931
Begin Timing: Total SCF Calculation
begin iterations for algorithm: DIIS         
the SCF tolerance is set to 1.00e-08
    1    -473.8646793279      7.13e-05     00000 
    2    -473.8648503679      6.26e-05     00000 
    3    -473.8649250088      1.42e-05     00000 
    4    -473.8649367494      7.31e-06     00000 
    5    -473.8649393332      3.51e-06     00000 
    6    -473.8649401166      1.10e-06     00000 
    7    -473.8649401911      4.21e-07     00000 
    8    -473.8649401985      1.21e-07     00000 
    9    -473.8649401994      5.59e-08     00000 
   10    -473.8649401996      1.44e-08     00000 
   11    -473.8649401996      7.38e-09     00000 Convergence criterion met
write pseudocanon occs and virts to disk
write pseudocanon orbital energies to disk
Timing for Total SCF: 2197.00s (wall), 4370.92s (cpu)
<S^2> of polarized wavefunction after polarization iterations 0.0000000000
relaxing scfmi constraint to allow all rotations in the entire AO span
Doing General SCFMI
 Exchange:     0.1670 Hartree-Fock + 1.0000 wB97X-V + LR-HF
 Correlation:  1.0000 wB97X-V
 Using Euler-Maclaurin-Lebedev (99,590) quadrature formula
 Nonlocal Correlation:  VV10 with C = 0.0100 and b = 6.00 and scale = 1.00000
 Grid used for NLC:  SG-1 standard quadrature
performing fock build at end of subrot_r(subrot) constructor so that all methods have access
<S^2> of polarized wavefunction before ct-allowed iterations 0.0000000000
Beginning iterations for the determination of the CT-Allowed wavefunction
Energy prior to optimization (guess energy) = -473.864940199574
Begin Timing: Total SCF Calculation
begin iterations for algorithm: DIIS         
the SCF tolerance is set to 1.00e-08
    1    -473.8649401996      7.14e-05     00000 
    2    -473.8654446357      7.90e-06     00000 
    3    -473.8654621707      2.13e-06     00000 
    4    -473.8654627712      2.03e-06     00000 
    5    -473.8654630593      2.35e-07     00000 
    6    -473.8654630675      1.47e-07     00000 
    7    -473.8654630696      3.70e-08     00000 
    8    -473.8654630698      1.23e-08     00000 
    9    -473.8654630698      3.66e-09     00000 Convergence criterion met
write pseudocanon occs and virts to disk
write pseudocanon orbital energies to disk
Timing for Total SCF: 1785.00s (wall), 3547.76s (cpu)
<S^2> of ct_allowed wavefunction after ct-allowed iterations 0.0000000000

================================
        Results of EDA2         
================================
Basic EDA Quantities
--------------------
Fragment Energies (Ha):
1 -245.1974051630
2 -228.6565918426
--------------------
  E_prp (kJ/mol) = 0.0000
  E_sol (kJ/mol) = 332.0297
  E_frz (kJ/mol) = -332.8261
  E_pol (kJ/mol) = -0.6849
  E_vct (kJ/mol) = -1.3728
  E_int (kJ/mol) = -2.8541
--------------------


Initial Wavefunction Decomposition
--------------------
  --------------------
  Orthogonal Fragment Subspace Decomposition:
  --------------------
     E_elec   (ELEC)   (kJ/mol) = -364.5549
     E_pauli  (PAULI)  (kJ/mol) = 41.4272
     E_disp   (DISP)   (kJ/mol) = -9.6984
     --------------------
     Terms summing to E_pauli:
     --------------------
        E_kep_pauli       (kJ/mol) = 50.8905
        E_disp_free_pauli (kJ/mol) = -9.4633
  --------------------
  Classical Frozen Decomposition:
  --------------------
     E_cls_elec  (CLS ELEC)  (kJ/mol) = -342.9857
     E_cls_pauli (CLS PAULI) (kJ/mol) = 10.1596
    [E_mod_pauli (MOD PAULI) (kJ/mol) = 19.8580 (CLS PAULI - DISP from orthogonal decomposition) ]
  --------------------
--------------------

Simplified EDA Summary (kJ/mol)
--------------------
 PREPARATION     0.0000
 SOLVATION       332.0297
 FROZEN          -323.1277      (does not include dispersion)
[PAULI           41.4272]     (if this is negligible, then frozen describes electrostatics)
 DISPERSION      -9.6984
 POLARIZATION    -0.6849
 CHARGE TRANSFER -1.3728
 TOTAL           -2.8541     (PRP + SOL + FRZ + DISP + POL + CT)
--------------------
 
 --------------------------------------------------------------
 
                    Orbital Energies (a.u.)
 --------------------------------------------------------------
 
 Alpha MOs
 -- Occupied --
-19.1496 -19.1471 -14.4545 -14.4396 -14.4386 -10.4177 -10.3461 -10.3022
-10.2443  -1.1733  -1.1707  -1.0674  -1.0548  -1.0367  -0.8494  -0.8466
 -0.7622  -0.7174  -0.6827  -0.6237  -0.6163  -0.6082  -0.5763  -0.5662
 -0.5535  -0.5499  -0.5440  -0.5211  -0.5063  -0.4817  -0.4625  -0.3981
 -0.3752  -0.3646  -0.3555  -0.3405
 -- Virtual --
  0.0568   0.0746   0.0861   0.0898   0.0978   0.1059   0.1107   0.1160
  0.1262   0.1360   0.1417   0.1442   0.1498   0.1524   0.1612   0.1658
  0.1711   0.1719   0.1845   0.1980   0.2058   0.2070   0.2155   0.2283
  0.2339   0.2381   0.2396   0.2439   0.2516   0.2595   0.2659   0.2672
  0.2715   0.2814   0.2847   0.2891   0.3013   0.3142   0.3155   0.3207
  0.3249   0.3255   0.3307   0.3357   0.3440   0.3490   0.3519   0.3540
  0.3549   0.3604   0.3701   0.3735   0.3801   0.3808   0.3812   0.3870
  0.3881   0.3964   0.4009   0.4067   0.4113   0.4216   0.4264   0.4325
  0.4353   0.4401   0.4518   0.4556   0.4600   0.4646   0.4718   0.4752
  0.4793   0.4852   0.4921   0.4955   0.4998   0.5043   0.5073   0.5106
  0.5150   0.5162   0.5185   0.5261   0.5299   0.5407   0.5457   0.5472
  0.5581   0.5640   0.5690   0.5778   0.5821   0.5939   0.5959   0.6069
  0.6142   0.6185   0.6213   0.6293   0.6455   0.6519   0.6576   0.6654
  0.6690   0.6793   0.6829   0.6925   0.6971   0.7015   0.7146   0.7198
  0.7377   0.7396   0.7433   0.7450   0.7559   0.7641   0.7756   0.7806
  0.7931   0.8060   0.8169   0.8192   0.8211   0.8269   0.8385   0.8456
  0.8466   0.8509   0.8632   0.8707   0.8774   0.8843   0.8865   0.9006
  0.9140   0.9326   0.9361   0.9455   0.9644   0.9743   0.9817   0.9924
  1.0030   1.0158   1.0237   1.0446   1.0542   1.0749   1.0852   1.0874
  1.0943   1.0961   1.1169   1.1459   1.1566   1.1597   1.1749   1.1965
  1.2069   1.2196   1.2316   1.2417   1.2552   1.2635   1.2861   1.2980
  1.3172   1.3225   1.3428   1.3526   1.3804   1.3852   1.4216   1.4545
  1.4742   1.4779   1.4848   1.5203   1.5491   1.5808   1.6032   1.6340
  1.6606   1.6863   1.6916   1.7299   1.7389   1.7574   1.7826   1.8071
  1.8488   1.8587   1.8632   1.8722   1.8755   1.8841   1.9138   1.9310
  1.9352   1.9396   1.9537   1.9576   1.9679   1.9853   1.9923   1.9971
  2.0076   2.0251   2.0437   2.0731   2.0965   2.1252   2.1333   2.1383
  2.1468   2.1688   2.1840   2.1973   2.2226   2.2504   2.2638   2.2725
  2.2998   2.3119   2.3546   2.3607   2.3765   2.3915   2.4040   2.4225
  2.4641   2.4780   2.4960   2.5087   2.5148   2.5388   2.5432   2.5612
  2.5777   2.5895   2.6019   2.6099   2.6228   2.6338   2.6449   2.6900
  2.7037   2.7145   2.7401   2.7635   2.7851   2.8338   2.8381   2.8409
  2.8634   2.8859   2.9061   2.9170   2.9427   2.9524   2.9583   2.9664
  2.9876   2.9996   3.0488   3.0608   3.1003   3.1464   3.1684   3.1984
  3.2069   3.2139   3.2326   3.2376   3.2563   3.2677   3.2762   3.2942
  3.3083   3.3214   3.3260   3.3323   3.3399   3.3662   3.3777   3.3904
  3.3969   3.4260   3.4402   3.4553   3.4822   3.4911   3.5416   3.5464
  3.5676   3.5703   3.5823   3.5970   3.6019   3.6436   3.6459   3.6580
  3.7187   3.7497   3.7626   3.7840   3.7911   3.8142   3.8798   3.9212
  3.9307   3.9479   3.9709   4.0068   4.0442   4.0898   4.1049   4.1747
  4.2214   4.2248   4.2886   4.3353   4.3757   4.3997   4.4333   4.4964
  4.5657   4.5719   4.6175   4.6364   4.6464   4.6824   4.7013   4.8145
  4.8519   4.8593   4.8952   4.9262   4.9333   4.9898   5.0020   5.0252
  5.0719   5.1284   5.1520   5.1583   5.2027   5.2078   5.2411   5.2828
  5.3028   5.3374   5.3450   5.3524   5.3552   5.4035   5.4343   5.4732
  5.4817   5.5007   5.5118   5.5611   5.5789   5.6454   5.7160   5.7312
  5.7779   5.7896   5.8387   5.8546   5.8955   6.0658   6.1470   6.2032
  6.2454   6.3523   6.3768   6.3901   6.4728   6.6304   6.6498   6.7318
  6.7378   6.7730   6.9678   6.9990   7.0238   7.2595   7.3550   7.4236
  7.4436  22.6323  22.6369  23.6672  23.8832  32.3738  32.5018  32.8315
 44.2382  44.3659
 --------------------------------------------------------------
 
          Ground-State Mulliken Net Atomic Charges

     Atom                 Charge (a.u.)
  ----------------------------------------
      1 C                    -0.764427
      2 C                     0.432258
      3 N                    -0.254373
      4 N                    -0.121449
      5 N                    -0.359334
      6 H                     0.230581
      7 H                     0.231924
      8 H                     0.269978
      9 H                     0.249674
     10 H                     0.253522
     11 H                     0.260719
     12 H                     0.266188
     13 H                     0.310259
     14 C                    -0.674186
     15 C                     0.533423
     16 O                    -0.758116
     17 O                    -0.763098
     18 H                     0.213298
     19 H                     0.221537
     20 H                     0.221620
  ----------------------------------------
  Sum of atomic charges =     0.000000

 -----------------------------------------------------------------
                    Cartesian Multipole Moments
 -----------------------------------------------------------------
    Charge (ESU x 10^10)
                -0.0000
    Dipole Moment (Debye)
         X     -18.6394      Y       3.6497      Z       0.2041
       Tot      18.9944
    Quadrupole Moments (Debye-Ang)
        XX     -46.9033     XY      -8.7326     YY     -45.9642
        XZ      -1.4566     YZ       5.0845     ZZ     -51.8062
    Octopole Moments (Debye-Ang^2)
       XXX    -174.9031    XXY     -12.4983    XYY     -32.6473
       YYY      31.5263    XXZ      14.9345    XYZ     -13.4700
       YYZ       5.2503    XZZ      -7.4996    YZZ       4.4553
       ZZZ      -0.9920
    Hexadecapole Moments (Debye-Ang^3)
      XXXX   -2170.6368   XXXY     286.0679   XXYY    -437.9828
      XYYY     375.2091   YYYY    -587.4983   XXXZ     137.5165
      XXYZ       9.2734   XYYZ      44.0305   YYYZ     -91.5000
      XXZZ    -421.1189   XYZZ     116.5202   YYZZ    -127.7830
      XZZZ     161.7245   YZZZ     -93.8019   ZZZZ    -223.3921
 -----------------------------------------------------------------
Archival summary:
1\1\nid00572\SP\ProcedureUnspecified\BasisUnspecified\23411\meili\SunSep2608:09:102021SunSep2608:09:102021\0\\#,ProcedureUnspecified,BasisUnspecified,\\0,1\O\C,1,1.24223\O,2,1.23313,1,121.667\C,2,1.48472,1,120.061,3,177.872,0\H,4,1.0911,2,108.032,1,-53.8648,0\H,4,1.09301,2,109.594,1,63.3759,0\H,4,1.1,2,112.948,1,-175.357,0\H,1,2.68908,2,145.337,3,44.3791,0\N,8,1.00749,1,94.1185,2,-60.7284,0\H,9,1.00733,8,117.818,1,51.4082,0\C,9,1.31494,8,120.917,1,-122.682,0\N,11,1.32127,9,117.949,8,-5.82443,0\H,12,1.00411,11,117.112,9,-140.132,0\H,12,1.01015,11,118.286,9,5.77056,0\N,11,1.32376,9,120.3,8,175.139,0\H,15,1.01059,11,118.365,9,6.50318,0\C,15,1.46735,11,123.768,9,-176.107,0\H,17,1.09022,15,110.271,11,-110.934,0\H,17,1.09143,15,107.813,11,130.479,0\H,17,1.1,15,111.286,11,11.1072,0\\\@

 Total job time:  24305.93s(wall), 14351.73s(cpu) 
 Sun Sep 26 08:09:13 2021

        *************************************************************
        *                                                           *
        *  Thank you very much for using Q-Chem.  Have a nice day.  *
        *                                                           *
        *************************************************************


