
Running Job 1 of 1 SSI-112TYR-190ARG-1_PCM_TZVPD.in
qchem SSI-112TYR-190ARG-1_PCM_TZVPD.in_32788.0 /tmp/qchem32788/ 0
/global/common/cori/software/qchem/5.2/exe/qcprog.exe_s SSI-112TYR-190ARG-1_PCM_TZVPD.in_32788.0 /tmp/qchem32788/
                  Welcome to Q-Chem
     A Quantum Leap Into The Future Of Chemistry


 Q-Chem 5.2, Q-Chem, Inc., Pleasanton, CA (2019)

 License issued to: National Energy Research Scientific Computing Center

 Yihan Shao,  Zhengting Gan,  E. Epifanovsky,  A. T. B. Gilbert,  M. Wormit,  
 J. Kussmann,  A. W. Lange,  A. Behn,  Jia Deng,  Xintian Feng,  D. Ghosh,  
 M. Goldey,  P. R. Horn,  L. D. Jacobson,  I. Kaliman,  T. Kus,  A. Landau,  
 Jie Liu,  E. I. Proynov,  R. M. Richard,  R. P. Steele,  E. J. Sundstrom,  
 H. L. Woodcock III,  P. M. Zimmerman,  D. Zuev,  B. Albrecht,  E. Alguire,  
 S. A. Baeppler,  D. Barton,  Z. Benda,  Y. A. Bernard,  E. J. Berquist,  
 K. B. Bravaya,  H. Burton,  D. Casanova,  Chun-Min Chang,  Yunqing Chen,  
 A. Chien,  K. D. Closser,  M. P. Coons,  S. Coriani,  S. Dasgupta,  
 A. L. Dempwolff,  M. Diedenhofen,  Hainam Do,  R. G. Edgar,  Po-Tung Fang,  
 S. Faraji,  S. Fatehi,  Qingguo Feng,  K. D. Fenk,  J. Fosso-Tande,  
 J. Gayvert,  Qinghui Ge,  A. Ghysels,  G. Gidofalvi,  J. Gomes,  
 J. Gonthier,  A. Gunina,  D. Hait,  M. W. D. Hanson-Heine,  
 P. H. P. Harbach,  A. W. Hauser,  M. F. Herbst,  J. E. Herr,  
 E. G. Hohenstein,  Z. C. Holden,  Kerwin Hui,  B. C. Huynh,  T.-C. Jagau,  
 Hyunjun Ji,  B. Kaduk,  K. Khistyaev,  Jaehoon Kim,  P. Klunzinger,  K. Koh,  
 D. Kosenkov,  L. Koulias,  T. Kowalczyk,  C. M. Krauter,  A. Kunitsa,  
 Ka Un Lao,  A. Laurent,  K. V. Lawler,  Joonho Lee,  D. Lefrancois,  
 S. Lehtola,  D. S. Levine,  Yi-Pei Li,  You-Sheng Lin,  Fenglai Liu,  
 E. Livshits,  A. Luenser,  P. Manohar,  E. Mansoor,  S. F. Manzer,  
 Shan-Ping Mao,  Yuezhi Mao,  N. Mardirossian,  A. V. Marenich,  
 T. Markovich,  L. A. Martinez-Martinez,  S. A. Maurer,  N. J. Mayhall,  
 S. C. McKenzie,  J.-M. Mewes,  P. Morgante,  A. F. Morrison,  
 J. W. Mullinax,  K. Nanda,  T. S. Nguyen-Beck,  R. Olivares-Amaya,  
 J. A. Parkhill,  Zheng Pei,  T. M. Perrine,  F. Plasser,  P. Pokhilko,  
 S. Prager,  A. Prociuk,  E. Ramos,  D. R. Rehn,  F. Rob,  M. Scheurer,  
 M. Schneider,  N. Sergueev,  S. M. Sharada,  S. Sharma,  D. W. Small,  
 T. Stauch,  T. Stein,  Yu-Chuan Su,  A. J. W. Thom,  A. Tkatchenko,  
 T. Tsuchimochi,  N. M. Tubman,  L. Vogt,  M. L. Vidal,  O. Vydrov,  
 M. A. Watson,  J. Wenzel,  M. de Wergifosse,  T. A. Wesolowski,  A. White,  
 J. Witte,  A. Yamada,  Jun Yang,  K. Yao,  S. Yeganeh,  S. R. Yost,  
 Zhi-Qiang You,  A. Zech,  Igor Ying Zhang,  Xing Zhang,  Yan Zhao,  
 Ying Zhu,  B. R. Brooks,  G. K. L. Chan,  C. J. Cramer,  M. S. Gordon,  
 W. J. Hehre,  A. Klamt,  M. W. Schmidt,  C. D. Sherrill,  D. G. Truhlar,  
 A. Aspuru-Guzik,  R. Baer,  A. T. Bell,  N. A. Besley,  Jeng-Da Chai,  
 A. E. DePrince, III,  R. A. DiStasio Jr.,  A. Dreuw,  B. D. Dunietz,  
 T. R. Furlani,  Chao-Ping Hsu,  Yousung Jung,  Jing Kong,  D. S. Lambrecht,  
 WanZhen Liang,  C. Ochsenfeld,  V. A. Rassolov,  L. V. Slipchenko,  
 J. E. Subotnik,  T. Van Voorhis,  J. M. Herbert,  A. I. Krylov,  
 P. M. W. Gill,  M. Head-Gordon

 Contributors to earlier versions of Q-Chem not listed above: 
 R. D. Adamson,  B. Austin,  J. Baker,  G. J. O. Beran,  K. Brandhorst,  
 S. T. Brown,  E. F. C. Byrd,  A. K. Chakraborty,  C.-L. Cheng,  
 Siu Hung Chien,  D. M. Chipman,  D. L. Crittenden,  H. Dachsel,  
 R. J. Doerksen,  A. D. Dutoi,  L. Fusti-Molnar,  W. A. Goddard III,  
 A. Golubeva-Zadorozhnaya,  S. R. Gwaltney,  G. Hawkins,  A. Heyden,  
 S. Hirata,  G. Kedziora,  F. J. Keil,  C. Kelley,  Jihan Kim,  R. A. King,  
 R. Z. Khaliullin,  P. P. Korambath,  W. Kurlancheek,  A. M. Lee,  M. S. Lee,  
 S. V. Levchenko,  Ching Yeh Lin,  D. Liotard,  R. C. Lochan,  I. Lotan,  
 P. E. Maslen,  N. Nair,  D. P. O'Neill,  D. Neuhauser,  E. Neuscamman,  
 C. M. Oana,  R. Olson,  B. Peters,  R. Peverati,  P. A. Pieniazek,  
 Y. M. Rhee,  J. Ritchie,  M. A. Rohrdanz,  E. Rosta,  N. J. Russ,  
 H. F. Schaefer III,  N. E. Schultz,  N. Shenvi,  A. C. Simmonett,  A. Sodt,  
 D. Stuck,  K. S. Thanthiriwatte,  V. Vanovschi,  Tao Wang,  A. Warshel,  
 C. F. Williams,  Q. Wu,  X. Xu,  W. Zhang

 Please cite Q-Chem as follows:
 Y. Shao et al., Mol. Phys. 113, 184-215 (2015)
 DOI: 10.1080/00268976.2014.952696

 Q-Chem 5.2.0 for Intel X86 EM64T Linux

 Parts of Q-Chem use Armadillo 8.300.2 (Tropical Shenanigans).
 http://arma.sourceforge.net/

 Q-Chem begins on Sun Sep 26 13:49:30 2021  

Host: cori01
0

     Scratch files written to /tmp/qchem32788//
 May1019 |scratch|qcdevops|jenkins|workspace|build_RNUM -1
Processing $rem in /global/common/cori/software/qchem/5.2/config/preferences:
	 MEM_TOTAL  96000 
NAlpha2: 106
NElect   106
Mult     1
Symmetry turned off for PCM/SM12/SMD calculation

 Q-Chem warning in module libgen/rem_setup.C, line 2803:

 Neither GIA nor STOLL is specified by user. Use STOLL as the default


Checking the input file for inconsistencies... 	...done.

--------------------------------------------------------------
User input:
--------------------------------------------------------------
$comment
SSI-112TYR-190ARG-1.pdb
$end

$molecule
1 1
--
0 1
C    0.088453308681   -3.796547820731    1.269760765592
C   -0.320546691319    0.402452179269    2.346760765592
C   -1.481546691319   -0.346547820731    2.013760765592
C    0.927453308681   -0.194547820731    2.246760765592
C   -1.349546691319   -1.715547820731    1.655760765592
C    1.046453308681   -1.557547820731    1.874760765592
C   -0.079546691319   -2.330547820731    1.595760765592
O   -0.358546691319    1.728452179269    2.727760765592
H   -2.457546691319    0.113452179269    2.054760765592
H   -1.257546691319    2.066452179269    2.773760765592
H    1.808453308681    0.384452179269    2.482760765592
H   -2.238546691319   -2.287547820731    1.436760765592
H    2.033453308681   -2.000547820731    1.826760765592
H   -0.342546691319   -4.363547820731    2.096760765592
H    1.150453308681   -4.025547820731    1.255760765592
H   -0.373814691319   -4.145048820731    0.334420765592
--
1 1
C    0.059453308681    2.003452179269   -1.105239234408
C    1.504453308681    2.017452179269   -0.639239234408
C   -0.058546691319    0.738452179269   -3.187239234408
N   -0.228546691319    0.804452179269   -1.871239234408
N    0.458453308681    1.746452179269   -3.861239234408
N   -0.317546691319   -0.381547820731   -3.804239234408
H   -0.594546691319    1.997452179269   -0.231239234408
H   -0.181546691319    2.900452179269   -1.678239234408
H    2.191453308681    2.149452179269   -1.472239234408
H    1.729453308681    1.071452179269   -0.146239234408
H   -0.617546691319    0.005452179269   -1.386239234408
H    0.662453308681    2.625452179269   -3.404239234408
H    0.628453308681    1.666452179269   -4.858239234408
H   -0.719546691319   -1.156547820731   -3.289239234408
H   -0.114546691319   -0.496547820731   -4.785239234408
H    1.594618008681    2.829652179269    0.097110765592
$end

$rem
JOBTYPE			EDA
EDA2			1
method			wB97X-V
BASIS			def2-TZVPD
XC_GRID			000099000590
NL_GRID			1
UNRESTRICTED		FALSE
MAX_SCF_CYCLES		200
SYMMETRY		FALSE
SYM_IGNORE		TRUE
MEM_STATIC		2000
BASIS_LIN_DEP_THRESH 	6
THRESH 			14
SCF_CONVERGENCE 	8
SCF_PRINT_FRGM 		TRUE
SOLVENT_METHOD          PCM
$end

$PCM
THEORY                  CPCM
METHOD                  SWIG
SOLVER                  INVERSION
RADII                   UFF
HPOINTS                 302
HEAVYPOINTS             302
PRINTLEVEL              0
$END

$SOLVENT
DIELECTRIC              78.390000 ! water
$END
--------------------------------------------------------------
 ----------------------------------------------------------------
             Standard Nuclear Orientation (Angstroms)
    I     Atom           X                Y                Z
 ----------------------------------------------------------------
    1      C       0.0884533087    -3.7965478207     1.2697607656
    2      C      -0.3205466913     0.4024521793     2.3467607656
    3      C      -1.4815466913    -0.3465478207     2.0137607656
    4      C       0.9274533087    -0.1945478207     2.2467607656
    5      C      -1.3495466913    -1.7155478207     1.6557607656
    6      C       1.0464533087    -1.5575478207     1.8747607656
    7      C      -0.0795466913    -2.3305478207     1.5957607656
    8      O      -0.3585466913     1.7284521793     2.7277607656
    9      H      -2.4575466913     0.1134521793     2.0547607656
   10      H      -1.2575466913     2.0664521793     2.7737607656
   11      H       1.8084533087     0.3844521793     2.4827607656
   12      H      -2.2385466913    -2.2875478207     1.4367607656
   13      H       2.0334533087    -2.0005478207     1.8267607656
   14      H      -0.3425466913    -4.3635478207     2.0967607656
   15      H       1.1504533087    -4.0255478207     1.2557607656
   16      H      -0.3738146913    -4.1450488207     0.3344207656
   17      C       0.0594533087     2.0034521793    -1.1052392344
   18      C       1.5044533087     2.0174521793    -0.6392392344
   19      C      -0.0585466913     0.7384521793    -3.1872392344
   20      N      -0.2285466913     0.8044521793    -1.8712392344
   21      N       0.4584533087     1.7464521793    -3.8612392344
   22      N      -0.3175466913    -0.3815478207    -3.8042392344
   23      H      -0.5945466913     1.9974521793    -0.2312392344
   24      H      -0.1815466913     2.9004521793    -1.6782392344
   25      H       2.1914533087     2.1494521793    -1.4722392344
   26      H       1.7294533087     1.0714521793    -0.1462392344
   27      H      -0.6175466913     0.0054521793    -1.3862392344
   28      H       0.6624533087     2.6254521793    -3.4042392344
   29      H       0.6284533087     1.6664521793    -4.8582392344
   30      H      -0.7195466913    -1.1565478207    -3.2892392344
   31      H      -0.1145466913    -0.4965478207    -4.7852392344
   32      H       1.5946180087     2.8296521793     0.0971107656
 ----------------------------------------------------------------
 Nuclear Repulsion Energy =         886.01873486 hartrees
 There are       53 alpha and       53 beta electrons
 Requested basis set is def2-TZVPD
 There are 273 shells and 683 basis functions

 Total QAlloc Memory Limit  96000 MB
 Mega-Array Size      1956 MB
 MEM_STATIC part      2000 MB
 Discretize the solute cavity surface with Lebedev spheres
	Using 302 Lebedev grid points for each H atom
	Using 302 Lebedev grid points for other atoms
	Atomic van der Waals radii will be scaled by 1.20
 Remove points where switching function is < 1.0e-08
 Keep 3442 surface tesserae and discard 6222 interior tesserae
 Molecular Surface Area = 325.644 Angst**2
 A cutoff of  1.0D-14 yielded  31942 shell pairs
 There are    200270 function pairs (    250672 Cartesian)
 Smallest overlap matrix eigenvalue = 5.50E-07
 Linear dependence detected in AO basis
 Tighter screening thresholds may be required for diffuse basis sets
 Use S2THRESH > 14 and THRESH = 14 in case of SCF convergence issues
 Number of orthogonalized atomic orbitals = 682
 Maximum deviation from orthogonality = 2.156E-10

 Scale SEOQF with 1.000000e-01/1.000000e-01/1.000000e-01

 Standard Electronic Orientation quadrupole field applied
 Nucleus-field energy     =    -0.0000000372 hartrees

 -----------------------------------------------------------------------
  General SCF calculation program by
  Eric Jon Sundstrom, Paul Horn, Yuezhi Mao, Dmitri Zuev, Alec White,
  David Stuck, Shaama M.S., Shane Yost, Joonho Lee, David Small,
  Daniel Levine, Susi Lehtola, Hugh Burton, Evgeny Epifanovsky
 -----------------------------------------------------------------------
================================================================
                 ALMO-EDA with the EDA2 driver                  
================================================================
 The second-generation ALMO-EDA (for DFT):                      
 P. R. Horn, Y. Mao and M. Head-Gordon, PCCP, 18, 23067 (2016)  
 Decomposition of the frozen energy:                            
 P. R. Horn, Y. Mao and M. Head-Gordon, JCP, 144, 114107 (2016) 
 FERF model for polarization:                                   
 P. R. Horn and M. Head-Gordon, JCP, 143, 114111 (2015)         
Using eda2 option set 1
Option set summary: Frozen orbital wavefunction, initial wavefunction decomposition, and nDQ polarization.
--------------------------------
Printing EDA Options
--------------------------------
eda_child_super_basis      0
fragmo_guess_mode          0
child_mp                   1
child_mp_orders            232
cls_elec                   1
cls_disp                   0
scfmi_mode                 1
scfmi_occs                 0
scfmi_virts                0
frz_relax                  0
frz_relax_method           0
dc_pen_start               0
dc_pen_conv                0
dc_pen_increment           0
dc_pen_steps               0
dc_pen_thresh_factor       0
dc_pen_pre_newton_thresh   0
frz_ortho_decomp           1
frz_ortho_decomp_conv      6
frgm_method                2
scfmi_freeze_ss            0
separate_rehyb             0
plot_diff_den              0
eda_nocv                   0
eda_vct_relax              1
disp_free_x                0
disp_free_c                0
eda_bsse                   0
eda_pct_a                  0
eda_covp                   0
--------------------------------
Attempting to make child job directory: /tmp/qchem32788//Frg1/
Attempting to make child job directory: /tmp/qchem32788//Frg2/
Creating input file /tmp/qchem32788/Frg1.input
using default PutDataFrgm: nothing
calling putenv with: QCSCRATCH=/tmp/qchem32788/ 
calling putenv with: QCLOCALSCR=/tmp/qchem32788/ 
Spawning Job For Fragment 0
                  Welcome to Q-Chem
     A Quantum Leap Into The Future Of Chemistry


 Q-Chem 5.2, Q-Chem, Inc., Pleasanton, CA (2019)

 License issued to: National Energy Research Scientific Computing Center

 Yihan Shao,  Zhengting Gan,  E. Epifanovsky,  A. T. B. Gilbert,  M. Wormit,  
 J. Kussmann,  A. W. Lange,  A. Behn,  Jia Deng,  Xintian Feng,  D. Ghosh,  
 M. Goldey,  P. R. Horn,  L. D. Jacobson,  I. Kaliman,  T. Kus,  A. Landau,  
 Jie Liu,  E. I. Proynov,  R. M. Richard,  R. P. Steele,  E. J. Sundstrom,  
 H. L. Woodcock III,  P. M. Zimmerman,  D. Zuev,  B. Albrecht,  E. Alguire,  
 S. A. Baeppler,  D. Barton,  Z. Benda,  Y. A. Bernard,  E. J. Berquist,  
 K. B. Bravaya,  H. Burton,  D. Casanova,  Chun-Min Chang,  Yunqing Chen,  
 A. Chien,  K. D. Closser,  M. P. Coons,  S. Coriani,  S. Dasgupta,  
 A. L. Dempwolff,  M. Diedenhofen,  Hainam Do,  R. G. Edgar,  Po-Tung Fang,  
 S. Faraji,  S. Fatehi,  Qingguo Feng,  K. D. Fenk,  J. Fosso-Tande,  
 J. Gayvert,  Qinghui Ge,  A. Ghysels,  G. Gidofalvi,  J. Gomes,  
 J. Gonthier,  A. Gunina,  D. Hait,  M. W. D. Hanson-Heine,  
 P. H. P. Harbach,  A. W. Hauser,  M. F. Herbst,  J. E. Herr,  
 E. G. Hohenstein,  Z. C. Holden,  Kerwin Hui,  B. C. Huynh,  T.-C. Jagau,  
 Hyunjun Ji,  B. Kaduk,  K. Khistyaev,  Jaehoon Kim,  P. Klunzinger,  K. Koh,  
 D. Kosenkov,  L. Koulias,  T. Kowalczyk,  C. M. Krauter,  A. Kunitsa,  
 Ka Un Lao,  A. Laurent,  K. V. Lawler,  Joonho Lee,  D. Lefrancois,  
 S. Lehtola,  D. S. Levine,  Yi-Pei Li,  You-Sheng Lin,  Fenglai Liu,  
 E. Livshits,  A. Luenser,  P. Manohar,  E. Mansoor,  S. F. Manzer,  
 Shan-Ping Mao,  Yuezhi Mao,  N. Mardirossian,  A. V. Marenich,  
 T. Markovich,  L. A. Martinez-Martinez,  S. A. Maurer,  N. J. Mayhall,  
 S. C. McKenzie,  J.-M. Mewes,  P. Morgante,  A. F. Morrison,  
 J. W. Mullinax,  K. Nanda,  T. S. Nguyen-Beck,  R. Olivares-Amaya,  
 J. A. Parkhill,  Zheng Pei,  T. M. Perrine,  F. Plasser,  P. Pokhilko,  
 S. Prager,  A. Prociuk,  E. Ramos,  D. R. Rehn,  F. Rob,  M. Scheurer,  
 M. Schneider,  N. Sergueev,  S. M. Sharada,  S. Sharma,  D. W. Small,  
 T. Stauch,  T. Stein,  Yu-Chuan Su,  A. J. W. Thom,  A. Tkatchenko,  
 T. Tsuchimochi,  N. M. Tubman,  L. Vogt,  M. L. Vidal,  O. Vydrov,  
 M. A. Watson,  J. Wenzel,  M. de Wergifosse,  T. A. Wesolowski,  A. White,  
 J. Witte,  A. Yamada,  Jun Yang,  K. Yao,  S. Yeganeh,  S. R. Yost,  
 Zhi-Qiang You,  A. Zech,  Igor Ying Zhang,  Xing Zhang,  Yan Zhao,  
 Ying Zhu,  B. R. Brooks,  G. K. L. Chan,  C. J. Cramer,  M. S. Gordon,  
 W. J. Hehre,  A. Klamt,  M. W. Schmidt,  C. D. Sherrill,  D. G. Truhlar,  
 A. Aspuru-Guzik,  R. Baer,  A. T. Bell,  N. A. Besley,  Jeng-Da Chai,  
 A. E. DePrince, III,  R. A. DiStasio Jr.,  A. Dreuw,  B. D. Dunietz,  
 T. R. Furlani,  Chao-Ping Hsu,  Yousung Jung,  Jing Kong,  D. S. Lambrecht,  
 WanZhen Liang,  C. Ochsenfeld,  V. A. Rassolov,  L. V. Slipchenko,  
 J. E. Subotnik,  T. Van Voorhis,  J. M. Herbert,  A. I. Krylov,  
 P. M. W. Gill,  M. Head-Gordon

 Contributors to earlier versions of Q-Chem not listed above: 
 R. D. Adamson,  B. Austin,  J. Baker,  G. J. O. Beran,  K. Brandhorst,  
 S. T. Brown,  E. F. C. Byrd,  A. K. Chakraborty,  C.-L. Cheng,  
 Siu Hung Chien,  D. M. Chipman,  D. L. Crittenden,  H. Dachsel,  
 R. J. Doerksen,  A. D. Dutoi,  L. Fusti-Molnar,  W. A. Goddard III,  
 A. Golubeva-Zadorozhnaya,  S. R. Gwaltney,  G. Hawkins,  A. Heyden,  
 S. Hirata,  G. Kedziora,  F. J. Keil,  C. Kelley,  Jihan Kim,  R. A. King,  
 R. Z. Khaliullin,  P. P. Korambath,  W. Kurlancheek,  A. M. Lee,  M. S. Lee,  
 S. V. Levchenko,  Ching Yeh Lin,  D. Liotard,  R. C. Lochan,  I. Lotan,  
 P. E. Maslen,  N. Nair,  D. P. O'Neill,  D. Neuhauser,  E. Neuscamman,  
 C. M. Oana,  R. Olson,  B. Peters,  R. Peverati,  P. A. Pieniazek,  
 Y. M. Rhee,  J. Ritchie,  M. A. Rohrdanz,  E. Rosta,  N. J. Russ,  
 H. F. Schaefer III,  N. E. Schultz,  N. Shenvi,  A. C. Simmonett,  A. Sodt,  
 D. Stuck,  K. S. Thanthiriwatte,  V. Vanovschi,  Tao Wang,  A. Warshel,  
 C. F. Williams,  Q. Wu,  X. Xu,  W. Zhang

 Please cite Q-Chem as follows:
 Y. Shao et al., Mol. Phys. 113, 184-215 (2015)
 DOI: 10.1080/00268976.2014.952696

 Q-Chem 5.2.0 for Intel X86 EM64T Linux

 Parts of Q-Chem use Armadillo 8.300.2 (Tropical Shenanigans).
 http://arma.sourceforge.net/

 Q-Chem begins on Sun Sep 26 13:49:38 2021  

Host: cori01
0

     Scratch files written to /tmp/qchem32788//Frg1//
 May1019 |scratch|qcdevops|jenkins|workspace|build_RNUM -1
Processing $rem in /global/common/cori/software/qchem/5.2/config/preferences:
	 MEM_TOTAL  96000 
NAlpha2: 58
NElect   58
Mult     1
Symmetry turned off for PCM/SM12/SMD calculation

Checking the input file for inconsistencies... 	...done.

--------------------------------------------------------------
User input:
--------------------------------------------------------------
$molecule
0 1
 6	0.0884533087	-3.7965478207	1.2697607656
 6	-0.3205466913	0.4024521793	2.3467607656
 6	-1.4815466913	-0.3465478207	2.0137607656
 6	0.9274533087	-0.1945478207	2.2467607656
 6	-1.3495466913	-1.7155478207	1.6557607656
 6	1.0464533087	-1.5575478207	1.8747607656
 6	-0.0795466913	-2.3305478207	1.5957607656
 8	-0.3585466913	1.7284521793	2.7277607656
 1	-2.4575466913	0.1134521793	2.0547607656
 1	-1.2575466913	2.0664521793	2.7737607656
 1	1.8084533087	0.3844521793	2.4827607656
 1	-2.2385466913	-2.2875478207	1.4367607656
 1	2.0334533087	-2.0005478207	1.8267607656
 1	-0.3425466913	-4.3635478207	2.0967607656
 1	1.1504533087	-4.0255478207	1.2557607656
 1	-0.3738146913	-4.1450488207	0.3344207656
$end
$rem
EDA2		1
METHOD		WB97X-V
BASIS		DEF2-TZVPD
XC_GRID		000099000590
NL_GRID		1
UNRESTRICTED		FALSE
MAX_SCF_CYCLES		200
SYMMETRY		FALSE
SYM_IGNORE		TRUE
BASIS_LIN_DEP_THRESH		6
THRESH		14
SCF_CONVERGENCE		8
SCF_PRINT_FRGM		TRUE
SOLVENT_METHOD		PCM
!required keywords
JOBTYPE		SP
SYM_IGNORE		TRUE
SUBSYSTEM		TRUE
GEN_SCFMAN		TRUE
CHILD_INSTRUCTION		2
SYM_IGNORE		TRUE
SCFMI		0
RI_K 0		
PARI_K 0		
MIN_PARI_K 0		
IARI_K 0		
OCC_RI_K 0		
PURECART		1111
MEM_STATIC		2000
MEM_TOTAL		96000
GUI		0
CHILD_MP		1
CHILD_MP_ORDERS		232
FRZ_RELAX		0
FRZ_RELAX_METHOD		0
EDA_CLS_ELEC		1
EDA_CLS_DISP		0
FRZ_ORTHO_DECOMP		1
EDA2		FALSE
FRGM_METHOD		FALSE
CIS_N_ROOTS  0
LOCAL_CIS    0
CIS_RLX_DNS  1
$end
$pcm
THEORY                  CPCM
METHOD                  SWIG
SOLVER                  INVERSION
RADII                   UFF
HPOINTS                 302
HEAVYPOINTS             302
PRINTLEVEL              0
$end
$solvent
DIELECTRIC              78.390000 ! water
$end
--------------------------------------------------------------
 ----------------------------------------------------------------
             Standard Nuclear Orientation (Angstroms)
    I     Atom           X                Y                Z
 ----------------------------------------------------------------
    1      C       0.0884533087    -3.7965478207     1.2697607656
    2      C      -0.3205466913     0.4024521793     2.3467607656
    3      C      -1.4815466913    -0.3465478207     2.0137607656
    4      C       0.9274533087    -0.1945478207     2.2467607656
    5      C      -1.3495466913    -1.7155478207     1.6557607656
    6      C       1.0464533087    -1.5575478207     1.8747607656
    7      C      -0.0795466913    -2.3305478207     1.5957607656
    8      O      -0.3585466913     1.7284521793     2.7277607656
    9      H      -2.4575466913     0.1134521793     2.0547607656
   10      H      -1.2575466913     2.0664521793     2.7737607656
   11      H       1.8084533087     0.3844521793     2.4827607656
   12      H      -2.2385466913    -2.2875478207     1.4367607656
   13      H       2.0334533087    -2.0005478207     1.8267607656
   14      H      -0.3425466913    -4.3635478207     2.0967607656
   15      H       1.1504533087    -4.0255478207     1.2557607656
   16      H      -0.3738146913    -4.1450488207     0.3344207656
 ----------------------------------------------------------------
 Nuclear Repulsion Energy =         339.89965386 hartrees
 There are       29 alpha and       29 beta electrons
 Requested basis set is def2-TZVPD
 There are 145 shells and 371 basis functions

 Total QAlloc Memory Limit  96000 MB
 Mega-Array Size      1956 MB
 MEM_STATIC part      2000 MB
 Discretize the solute cavity surface with Lebedev spheres
	Using 302 Lebedev grid points for each H atom
	Using 302 Lebedev grid points for other atoms
	Atomic van der Waals radii will be scaled by 1.20
 Remove points where switching function is < 1.0e-08
 Keep 1882 surface tesserae and discard 2950 interior tesserae
 Molecular Surface Area = 191.495 Angst**2
 A cutoff of  1.0D-14 yielded  10034 shell pairs
 There are     67004 function pairs (     85681 Cartesian)
 Smallest overlap matrix eigenvalue = 6.49E-07
 Linear dependence detected in AO basis
 Tighter screening thresholds may be required for diffuse basis sets
 Use S2THRESH > 14 and THRESH = 14 in case of SCF convergence issues
 Number of orthogonalized atomic orbitals = 370
 Maximum deviation from orthogonality = 3.539E-10

 Scale SEOQF with 1.000000e-01/1.000000e-01/1.000000e-01

 Standard Electronic Orientation quadrupole field applied
 Nucleus-field energy     =    -0.0000000061 hartrees
 Guess from superposition of atomic densities
 Warning:  Energy on first SCF cycle will be non-variational
 SAD guess density has 57.738434 electrons

 -----------------------------------------------------------------------
  General SCF calculation program by
  Eric Jon Sundstrom, Paul Horn, Yuezhi Mao, Dmitri Zuev, Alec White,
  David Stuck, Shaama M.S., Shane Yost, Joonho Lee, David Small,
  Daniel Levine, Susi Lehtola, Hugh Burton, Evgeny Epifanovsky
 -----------------------------------------------------------------------
 Exchange:     0.1670 Hartree-Fock + 1.0000 wB97X-V + LR-HF
 Correlation:  1.0000 wB97X-V
 Using Euler-Maclaurin-Lebedev (99,590) quadrature formula
 Nonlocal Correlation:  VV10 with C = 0.0100 and b = 6.00 and scale = 1.00000
 Grid used for NLC:  SG-1 standard quadrature
Energy prior to optimization (guess energy) = -346.494128420272
Begin Timing: Total SCF Calculation
begin iterations for algorithm: DIIS         
the SCF tolerance is set to 1.00e-08
    1    -346.4941284203      5.17e-03     00000 
    2    -346.4142955569      5.69e-03     00000 
    3    -346.8094400204      5.32e-04     00000 
    4    -346.8135871908      1.80e-04     00000 
    5    -346.8142023957      2.50e-05     00000 
    6    -346.8142234825      1.14e-05     00000 
    7    -346.8142264188      3.61e-06     00000 
    8    -346.8142268163      1.21e-06     00000 
    9    -346.8142268756      6.03e-07     00000 
   10    -346.8142268885      1.70e-07     00000 
   11    -346.8142268917      8.25e-08     00000 
   12    -346.8142268923      3.88e-08     00000 
   13    -346.8142268924      9.08e-09     00000 Convergence criterion met
Timing for Total SCF: 2086.00s (wall), 4145.55s (cpu)

************** Final PCM Free Energy Summary **************
 G_electrostatic  =      -0.00578190 hartree =      -3.62819407 kcal/mol
 G_cavitation     =       0.00000000 hartree =       0.00000000 kcal/mol
 G_dispersion     =       0.00000000 hartree =       0.00000000 kcal/mol
 G_repulsion      =       0.00000000 hartree =       0.00000000 kcal/mol
 --------------------------------------------------
 Non-electrostatic Free Energy =       0.00000000 hartree =       0.00000000 kcal/mol
 Total                         =      -0.00578190 hartree =      -3.62819407 kcal/mol
 --------------------------------------------------
 SCF Energy (H0 + V/2)                       =    -346.81422689 
 Solute Internal Energy (H0)                 =    -346.80844500 
 Total Free Energy (H0 + V/2 + non-elec)     =    -346.81422689 hartree
                                             = -217629.21205252 kcal/mol
***********************************************************

E_pcm = -0.0057818953
Multipole orders to be included
        2
        3
computing dipole RHS
computing quadrupole RHS
total number of RHS in solve_reponses: 8
RHS batch sizes
        8
Beginning Block Conjugate Gradient Iterations. Batch Number: 0
computing hessian-vector products by finite difference
              1      6.28e-01     00000 Conjugate Gradient Iteration
computing hessian-vector products by finite difference
              2      1.99e-01     00000 Conjugate Gradient Iteration
computing hessian-vector products by finite difference
              3      5.11e-02     00000 Conjugate Gradient Iteration
computing hessian-vector products by finite difference
              4      1.46e-02     00000 Conjugate Gradient Iteration
computing hessian-vector products by finite difference
              5      4.52e-03     00000 Conjugate Gradient Iteration
computing hessian-vector products by finite difference
              6      1.80e-03     00000 Conjugate Gradient Iteration
computing hessian-vector products by finite difference
              7      4.61e-04     00000 Conjugate Gradient Iteration
computing hessian-vector products by finite difference
              8      8.78e-05     00000 Conjugate Gradient Iteration
computing hessian-vector products by finite difference
              9      1.56e-05     00000 Conjugate Gradient Iteration
computing hessian-vector products by finite difference
             10      2.06e-06     00000 Conjugate Gradient Iteration
computing hessian-vector products by finite difference
             11      2.93e-07     00000 Conjugate Gradient Iteration
computing hessian-vector products by finite difference
             12      4.74e-08     00000 Conjugate Gradient Iteration
computing hessian-vector products by finite difference
             13      9.74e-09     00000 CG Converged
batch 0 complete
Done Calculating Responses
TESTING ORTHOGONALIZATION OF MULTIPOLE BASIS
Multipole virts passed orthogonality test
Virts Per Order
           87
          145
 
 --------------------------------------------------------------
 
                    Orbital Energies (a.u.)
 --------------------------------------------------------------
 
 Alpha MOs
 -- Occupied --
-19.2467 -10.3407 -10.2824 -10.2820 -10.2815 -10.2780 -10.2733 -10.2629
 -1.1901  -0.9898  -0.9020  -0.8790  -0.8115  -0.7481  -0.7121  -0.6638
 -0.5975  -0.5817  -0.5537  -0.5380  -0.5309  -0.5193  -0.5113  -0.4788
 -0.4573  -0.4441  -0.4402  -0.3488  -0.3155
 -- Virtual --
  0.0538   0.0577   0.0678   0.0758   0.0832   0.0939   0.1085   0.1098
  0.1135   0.1308   0.1433   0.1505   0.1553   0.1699   0.1803   0.1916
  0.1959   0.2013   0.2143   0.2260   0.2301   0.2354   0.2454   0.2530
  0.2608   0.2675   0.2705   0.2744   0.2761   0.2930   0.2937   0.3009
  0.3031   0.3070   0.3103   0.3232   0.3312   0.3380   0.3393   0.3440
  0.3519   0.3556   0.3602   0.3689   0.3710   0.3768   0.3816   0.3889
  0.3920   0.3954   0.3999   0.4029   0.4070   0.4137   0.4253   0.4290
  0.4301   0.4504   0.4598   0.4639   0.4683   0.4742   0.4758   0.4802
  0.4852   0.4927   0.4941   0.4997   0.5074   0.5113   0.5249   0.5302
  0.5377   0.5436   0.5503   0.5526   0.5569   0.5621   0.5761   0.5875
  0.6006   0.6028   0.6098   0.6163   0.6406   0.6529   0.6606   0.6636
  0.6804   0.6833   0.6865   0.6923   0.6977   0.7122   0.7170   0.7227
  0.7284   0.7386   0.7408   0.7470   0.7557   0.7689   0.7738   0.7812
  0.7873   0.7885   0.7950   0.7990   0.8002   0.8093   0.8223   0.8311
  0.8431   0.8460   0.8550   0.8606   0.8644   0.8685   0.8750   0.8868
  0.8995   0.9132   0.9282   0.9466   0.9510   0.9791   0.9974   1.0034
  1.0140   1.0346   1.0399   1.0424   1.0503   1.0607   1.0725   1.0846
  1.0911   1.1085   1.1298   1.1552   1.1900   1.2329   1.2676   1.2964
  1.3019   1.3097   1.3234   1.3466   1.3626   1.3753   1.3985   1.4315
  1.4421   1.4541   1.4600   1.4766   1.5132   1.5476   1.5956   1.6182
  1.6276   1.6440   1.6653   1.6772   1.6867   1.7277   1.7557   1.7913
  1.8114   1.8220   1.8337   1.8380   1.8556   1.8691   1.9076   1.9162
  1.9336   1.9539   1.9677   1.9752   1.9829   2.0201   2.0462   2.0489
  2.0536   2.0734   2.0782   2.0967   2.1094   2.1695   2.1910   2.1956
  2.2074   2.2437   2.2514   2.2808   2.2858   2.3117   2.3340   2.3682
  2.3858   2.3883   2.4236   2.4519   2.4899   2.5026   2.5098   2.5467
  2.5620   2.6072   2.6185   2.6409   2.6433   2.6630   2.6840   2.7179
  2.7444   2.7548   2.7630   2.7827   2.8073   2.8236   2.8495   2.8653
  2.8875   2.9003   2.9258   2.9346   2.9498   2.9713   2.9789   2.9932
  3.0115   3.0197   3.0387   3.0692   3.0883   3.1198   3.1403   3.1521
  3.1730   3.1883   3.1997   3.2131   3.2408   3.2581   3.2841   3.2924
  3.3132   3.3472   3.3688   3.3759   3.3885   3.3981   3.4240   3.4442
  3.4532   3.4679   3.4732   3.4939   3.5058   3.5067   3.5289   3.5364
  3.5422   3.5606   3.5658   3.5761   3.5954   3.6161   3.6265   3.6687
  3.6783   3.6885   3.7284   3.7376   3.8044   3.8136   3.8361   3.8991
  3.9064   3.9353   3.9542   3.9711   4.0125   4.0666   4.0963   4.1369
  4.2181   4.2541   4.2581   4.2769   4.2898   4.3020   4.3221   4.3319
  4.3502   4.3657   4.4056   4.4418   4.4486   4.5212   4.5677   4.6016
  4.7002   4.7306   4.7573   4.7808   4.8076   4.9244   4.9869   5.0367
  5.0597   5.1299   5.1438   5.2716   5.2848   5.3717   5.4043   5.5216
  5.6044   5.6120   5.6749   5.7660   5.9106   6.1900   6.4118   6.5933
  6.6205   6.8605   6.9728   7.3045   7.4452  22.6713  22.6728  22.8931
 22.9181  22.9499  23.1205  23.4264  44.3929
 --------------------------------------------------------------
 
          Ground-State Mulliken Net Atomic Charges

     Atom                 Charge (a.u.)
  ----------------------------------------
      1 C                    -1.013125
      2 C                     0.685207
      3 C                    -0.431747
      4 C                    -0.666070
      5 C                    -0.550848
      6 C                    -0.412497
      7 C                     0.580173
      8 O                    -0.478263
      9 H                     0.283786
     10 H                     0.301945
     11 H                     0.334364
     12 H                     0.351405
     13 H                     0.281991
     14 H                     0.218855
     15 H                     0.260949
     16 H                     0.253874
  ----------------------------------------
  Sum of atomic charges =     0.000000

 -----------------------------------------------------------------
                    Cartesian Multipole Moments
 -----------------------------------------------------------------
    Charge (ESU x 10^10)
                -0.0000
    Dipole Moment (Debye)
         X      -1.6351      Y      -0.6867      Z      -0.1707
       Tot       1.7817
    Quadrupole Moments (Debye-Ang)
        XX     -40.2884     XY      -3.7096     YY     -43.1614
        XZ      -3.8665     YZ       0.4592     ZZ     -52.1828
    Octopole Moments (Debye-Ang^2)
       XXX      20.6582    XXY      52.5360    XYY      -0.3898
       YYY     139.6056    XXZ     -76.3720    XYZ     -11.5532
       YYZ     -88.1034    XZZ      -0.7429    YZZ      56.8487
       ZZZ    -304.0314
    Hexadecapole Moments (Debye-Ang^3)
      XXXX    -296.3578   XXXY      -7.5435   XXYY    -232.2686
      XYYY     -10.8785   YYYY   -1184.9534   XXXZ      38.6062
      XXYZ      75.7595   XYYZ      -5.4916   YYYZ     177.0940
      XXZZ    -225.2964   XYZZ     -29.8729   YYZZ    -405.2486
      XZZZ      25.1913   YZZZ     209.7115   ZZZZ   -1314.4154
 -----------------------------------------------------------------
Archival summary:
1\1\nid00509\SP\ProcedureUnspecified\BasisUnspecified\178\meili\MonSep2700:52:052021MonSep2700:52:052021\0\\#,ProcedureUnspecified,BasisUnspecified,\\0,1\C\O,1,1.38017\H,2,0.961541,1,112.128\C,1,1.38705,2,117.27,3,-179.965,0\H,4,1.08032,1,119.164,2,1.0178,0\C,4,1.41786,1,120.543,2,179.326,0\H,6,1.08292,4,118.775,1,-178.664,0\C,6,1.394,4,121.184,1,0.241122,0\C,8,1.41235,6,118.449,4,1.71019,0\H,9,1.07957,8,120.076,6,179.503,0\C,9,1.42118,8,120.909,6,-1.04032,0\H,11,1.07975,9,120.259,8,179.899,0\C,8,1.51118,6,119.427,4,-176.99,0\H,13,1.0865,8,108.416,6,-2.93618,0\H,13,1.09141,8,107.254,6,111.857,0\H,13,1.1,8,116.363,6,-126.769,0\\\@

 Total job time:  39749.74s(wall), 78786.10s(cpu) 
 Mon Sep 27 00:52:07 2021

        *************************************************************
        *                                                           *
        *  Thank you very much for using Q-Chem.  Have a nice day.  *
        *                                                           *
        *************************************************************


Done Job For Fragment 0
calling putenv with: QCSCRATCH=/global/cscratch1/sd/meili 
calling putenv with: QCLOCALSCR=/tmp 
calling putenv with: QCTHREADS=32 
Creating input file /tmp/qchem32788/Frg2.input
using default PutDataFrgm: nothing
calling putenv with: QCSCRATCH=/tmp/qchem32788/ 
calling putenv with: QCLOCALSCR=/tmp/qchem32788/ 
Spawning Job For Fragment 1
                  Welcome to Q-Chem
     A Quantum Leap Into The Future Of Chemistry


 Q-Chem 5.2, Q-Chem, Inc., Pleasanton, CA (2019)

 License issued to: National Energy Research Scientific Computing Center

 Yihan Shao,  Zhengting Gan,  E. Epifanovsky,  A. T. B. Gilbert,  M. Wormit,  
 J. Kussmann,  A. W. Lange,  A. Behn,  Jia Deng,  Xintian Feng,  D. Ghosh,  
 M. Goldey,  P. R. Horn,  L. D. Jacobson,  I. Kaliman,  T. Kus,  A. Landau,  
 Jie Liu,  E. I. Proynov,  R. M. Richard,  R. P. Steele,  E. J. Sundstrom,  
 H. L. Woodcock III,  P. M. Zimmerman,  D. Zuev,  B. Albrecht,  E. Alguire,  
 S. A. Baeppler,  D. Barton,  Z. Benda,  Y. A. Bernard,  E. J. Berquist,  
 K. B. Bravaya,  H. Burton,  D. Casanova,  Chun-Min Chang,  Yunqing Chen,  
 A. Chien,  K. D. Closser,  M. P. Coons,  S. Coriani,  S. Dasgupta,  
 A. L. Dempwolff,  M. Diedenhofen,  Hainam Do,  R. G. Edgar,  Po-Tung Fang,  
 S. Faraji,  S. Fatehi,  Qingguo Feng,  K. D. Fenk,  J. Fosso-Tande,  
 J. Gayvert,  Qinghui Ge,  A. Ghysels,  G. Gidofalvi,  J. Gomes,  
 J. Gonthier,  A. Gunina,  D. Hait,  M. W. D. Hanson-Heine,  
 P. H. P. Harbach,  A. W. Hauser,  M. F. Herbst,  J. E. Herr,  
 E. G. Hohenstein,  Z. C. Holden,  Kerwin Hui,  B. C. Huynh,  T.-C. Jagau,  
 Hyunjun Ji,  B. Kaduk,  K. Khistyaev,  Jaehoon Kim,  P. Klunzinger,  K. Koh,  
 D. Kosenkov,  L. Koulias,  T. Kowalczyk,  C. M. Krauter,  A. Kunitsa,  
 Ka Un Lao,  A. Laurent,  K. V. Lawler,  Joonho Lee,  D. Lefrancois,  
 S. Lehtola,  D. S. Levine,  Yi-Pei Li,  You-Sheng Lin,  Fenglai Liu,  
 E. Livshits,  A. Luenser,  P. Manohar,  E. Mansoor,  S. F. Manzer,  
 Shan-Ping Mao,  Yuezhi Mao,  N. Mardirossian,  A. V. Marenich,  
 T. Markovich,  L. A. Martinez-Martinez,  S. A. Maurer,  N. J. Mayhall,  
 S. C. McKenzie,  J.-M. Mewes,  P. Morgante,  A. F. Morrison,  
 J. W. Mullinax,  K. Nanda,  T. S. Nguyen-Beck,  R. Olivares-Amaya,  
 J. A. Parkhill,  Zheng Pei,  T. M. Perrine,  F. Plasser,  P. Pokhilko,  
 S. Prager,  A. Prociuk,  E. Ramos,  D. R. Rehn,  F. Rob,  M. Scheurer,  
 M. Schneider,  N. Sergueev,  S. M. Sharada,  S. Sharma,  D. W. Small,  
 T. Stauch,  T. Stein,  Yu-Chuan Su,  A. J. W. Thom,  A. Tkatchenko,  
 T. Tsuchimochi,  N. M. Tubman,  L. Vogt,  M. L. Vidal,  O. Vydrov,  
 M. A. Watson,  J. Wenzel,  M. de Wergifosse,  T. A. Wesolowski,  A. White,  
 J. Witte,  A. Yamada,  Jun Yang,  K. Yao,  S. Yeganeh,  S. R. Yost,  
 Zhi-Qiang You,  A. Zech,  Igor Ying Zhang,  Xing Zhang,  Yan Zhao,  
 Ying Zhu,  B. R. Brooks,  G. K. L. Chan,  C. J. Cramer,  M. S. Gordon,  
 W. J. Hehre,  A. Klamt,  M. W. Schmidt,  C. D. Sherrill,  D. G. Truhlar,  
 A. Aspuru-Guzik,  R. Baer,  A. T. Bell,  N. A. Besley,  Jeng-Da Chai,  
 A. E. DePrince, III,  R. A. DiStasio Jr.,  A. Dreuw,  B. D. Dunietz,  
 T. R. Furlani,  Chao-Ping Hsu,  Yousung Jung,  Jing Kong,  D. S. Lambrecht,  
 WanZhen Liang,  C. Ochsenfeld,  V. A. Rassolov,  L. V. Slipchenko,  
 J. E. Subotnik,  T. Van Voorhis,  J. M. Herbert,  A. I. Krylov,  
 P. M. W. Gill,  M. Head-Gordon

 Contributors to earlier versions of Q-Chem not listed above: 
 R. D. Adamson,  B. Austin,  J. Baker,  G. J. O. Beran,  K. Brandhorst,  
 S. T. Brown,  E. F. C. Byrd,  A. K. Chakraborty,  C.-L. Cheng,  
 Siu Hung Chien,  D. M. Chipman,  D. L. Crittenden,  H. Dachsel,  
 R. J. Doerksen,  A. D. Dutoi,  L. Fusti-Molnar,  W. A. Goddard III,  
 A. Golubeva-Zadorozhnaya,  S. R. Gwaltney,  G. Hawkins,  A. Heyden,  
 S. Hirata,  G. Kedziora,  F. J. Keil,  C. Kelley,  Jihan Kim,  R. A. King,  
 R. Z. Khaliullin,  P. P. Korambath,  W. Kurlancheek,  A. M. Lee,  M. S. Lee,  
 S. V. Levchenko,  Ching Yeh Lin,  D. Liotard,  R. C. Lochan,  I. Lotan,  
 P. E. Maslen,  N. Nair,  D. P. O'Neill,  D. Neuhauser,  E. Neuscamman,  
 C. M. Oana,  R. Olson,  B. Peters,  R. Peverati,  P. A. Pieniazek,  
 Y. M. Rhee,  J. Ritchie,  M. A. Rohrdanz,  E. Rosta,  N. J. Russ,  
 H. F. Schaefer III,  N. E. Schultz,  N. Shenvi,  A. C. Simmonett,  A. Sodt,  
 D. Stuck,  K. S. Thanthiriwatte,  V. Vanovschi,  Tao Wang,  A. Warshel,  
 C. F. Williams,  Q. Wu,  X. Xu,  W. Zhang

 Please cite Q-Chem as follows:
 Y. Shao et al., Mol. Phys. 113, 184-215 (2015)
 DOI: 10.1080/00268976.2014.952696

 Q-Chem 5.2.0 for Intel X86 EM64T Linux

 Parts of Q-Chem use Armadillo 8.300.2 (Tropical Shenanigans).
 http://arma.sourceforge.net/

 Q-Chem begins on Mon Sep 27 00:52:10 2021  

Host: cori01
0

     Scratch files written to /tmp/qchem32788//Frg2//
 May1019 |scratch|qcdevops|jenkins|workspace|build_RNUM -1
Processing $rem in /global/common/cori/software/qchem/5.2/config/preferences:
	 MEM_TOTAL  96000 
NAlpha2: 48
NElect   48
Mult     1
Symmetry turned off for PCM/SM12/SMD calculation

Checking the input file for inconsistencies... 	...done.

--------------------------------------------------------------
User input:
--------------------------------------------------------------
$molecule
1 1
 6	0.0594533087	2.0034521793	-1.1052392344
 6	1.5044533087	2.0174521793	-0.6392392344
 6	-0.0585466913	0.7384521793	-3.1872392344
 7	-0.2285466913	0.8044521793	-1.8712392344
 7	0.4584533087	1.7464521793	-3.8612392344
 7	-0.3175466913	-0.3815478207	-3.8042392344
 1	-0.5945466913	1.9974521793	-0.2312392344
 1	-0.1815466913	2.9004521793	-1.6782392344
 1	2.1914533087	2.1494521793	-1.4722392344
 1	1.7294533087	1.0714521793	-0.1462392344
 1	-0.6175466913	0.0054521793	-1.3862392344
 1	0.6624533087	2.6254521793	-3.4042392344
 1	0.6284533087	1.6664521793	-4.8582392344
 1	-0.7195466913	-1.1565478207	-3.2892392344
 1	-0.1145466913	-0.4965478207	-4.7852392344
 1	1.5946180087	2.8296521793	0.0971107656
$end
$rem
EDA2		1
METHOD		WB97X-V
BASIS		DEF2-TZVPD
XC_GRID		000099000590
NL_GRID		1
UNRESTRICTED		FALSE
MAX_SCF_CYCLES		200
SYMMETRY		FALSE
SYM_IGNORE		TRUE
BASIS_LIN_DEP_THRESH		6
THRESH		14
SCF_CONVERGENCE		8
SCF_PRINT_FRGM		TRUE
SOLVENT_METHOD		PCM
!required keywords
JOBTYPE		SP
SYM_IGNORE		TRUE
SUBSYSTEM		TRUE
GEN_SCFMAN		TRUE
CHILD_INSTRUCTION		2
SYM_IGNORE		TRUE
SCFMI		0
RI_K 0		
PARI_K 0		
MIN_PARI_K 0		
IARI_K 0		
OCC_RI_K 0		
PURECART		1111
MEM_STATIC		2000
MEM_TOTAL		96000
GUI		0
CHILD_MP		1
CHILD_MP_ORDERS		232
FRZ_RELAX		0
FRZ_RELAX_METHOD		0
EDA_CLS_ELEC		1
EDA_CLS_DISP		0
FRZ_ORTHO_DECOMP		1
EDA2		FALSE
FRGM_METHOD		FALSE
CIS_N_ROOTS  0
LOCAL_CIS    0
CIS_RLX_DNS  1
$end
$pcm
THEORY                  CPCM
METHOD                  SWIG
SOLVER                  INVERSION
RADII                   UFF
HPOINTS                 302
HEAVYPOINTS             302
PRINTLEVEL              0
$end
$solvent
DIELECTRIC              78.390000 ! water
$end
--------------------------------------------------------------
 ----------------------------------------------------------------
             Standard Nuclear Orientation (Angstroms)
    I     Atom           X                Y                Z
 ----------------------------------------------------------------
    1      C       0.0594533087     2.0034521793    -1.1052392344
    2      C       1.5044533087     2.0174521793    -0.6392392344
    3      C      -0.0585466913     0.7384521793    -3.1872392344
    4      N      -0.2285466913     0.8044521793    -1.8712392344
    5      N       0.4584533087     1.7464521793    -3.8612392344
    6      N      -0.3175466913    -0.3815478207    -3.8042392344
    7      H      -0.5945466913     1.9974521793    -0.2312392344
    8      H      -0.1815466913     2.9004521793    -1.6782392344
    9      H       2.1914533087     2.1494521793    -1.4722392344
   10      H       1.7294533087     1.0714521793    -0.1462392344
   11      H      -0.6175466913     0.0054521793    -1.3862392344
   12      H       0.6624533087     2.6254521793    -3.4042392344
   13      H       0.6284533087     1.6664521793    -4.8582392344
   14      H      -0.7195466913    -1.1565478207    -3.2892392344
   15      H      -0.1145466913    -0.4965478207    -4.7852392344
   16      H       1.5946180087     2.8296521793     0.0971107656
 ----------------------------------------------------------------
 Nuclear Repulsion Energy =         261.37214900 hartrees
 There are       24 alpha and       24 beta electrons
 Requested basis set is def2-TZVPD
 There are 128 shells and 312 basis functions

 Total QAlloc Memory Limit  96000 MB
 Mega-Array Size      1956 MB
 MEM_STATIC part      2000 MB
 Discretize the solute cavity surface with Lebedev spheres
	Using 302 Lebedev grid points for each H atom
	Using 302 Lebedev grid points for other atoms
	Atomic van der Waals radii will be scaled by 1.20
 Remove points where switching function is < 1.0e-08
 Keep 1834 surface tesserae and discard 2998 interior tesserae
 Molecular Surface Area = 174.157 Angst**2
 A cutoff of  1.0D-14 yielded   7980 shell pairs
 There are     48236 function pairs (     60184 Cartesian)
 Smallest overlap matrix eigenvalue = 9.49E-06

 Scale SEOQF with 1.000000e-01/1.000000e-01/1.000000e-01

 Standard Electronic Orientation quadrupole field applied
 Nucleus-field energy     =    -0.0000000311 hartrees
 Guess from superposition of atomic densities
 Warning:  Energy on first SCF cycle will be non-variational
 SAD guess density has 48.375862 electrons

 -----------------------------------------------------------------------
  General SCF calculation program by
  Eric Jon Sundstrom, Paul Horn, Yuezhi Mao, Dmitri Zuev, Alec White,
  David Stuck, Shaama M.S., Shane Yost, Joonho Lee, David Small,
  Daniel Levine, Susi Lehtola, Hugh Burton, Evgeny Epifanovsky
 -----------------------------------------------------------------------
 Exchange:     0.1670 Hartree-Fock + 1.0000 wB97X-V + LR-HF
 Correlation:  1.0000 wB97X-V
 Using Euler-Maclaurin-Lebedev (99,590) quadrature formula
 Nonlocal Correlation:  VV10 with C = 0.0100 and b = 6.00 and scale = 1.00000
 Grid used for NLC:  SG-1 standard quadrature
Energy prior to optimization (guess energy) = -284.029861529438
Begin Timing: Total SCF Calculation
begin iterations for algorithm: DIIS         
the SCF tolerance is set to 1.00e-08
    1    -284.0298615294      6.63e-03     00000 
    2    -284.2510488361      5.20e-03     00000 
    3    -284.4973946858      2.80e-04     00000 
    4    -284.4981952768      1.69e-04     00000 
    5    -284.4984886850      3.37e-05     00000 
    6    -284.4985029704      1.27e-05     00000 
    7    -284.4985051704      2.57e-06     00000 
    8    -284.4985053435      7.43e-07     00000 
    9    -284.4985053623      3.37e-07     00000 
   10    -284.4985053648      1.22e-07     00000 
   11    -284.4985053652      3.67e-08     00000 
   12    -284.4985053652      1.31e-08     00000 
   13    -284.4985053652      2.36e-09     00000 Convergence criterion met
Timing for Total SCF: 1321.00s (wall), 2580.50s (cpu)

************** Final PCM Free Energy Summary **************
 G_electrostatic  =      -0.08046408 hartree =     -50.49197182 kcal/mol
 G_cavitation     =       0.00000000 hartree =       0.00000000 kcal/mol
 G_dispersion     =       0.00000000 hartree =       0.00000000 kcal/mol
 G_repulsion      =       0.00000000 hartree =       0.00000000 kcal/mol
 --------------------------------------------------
 Non-electrostatic Free Energy =       0.00000000 hartree =       0.00000000 kcal/mol
 Total                         =      -0.08046408 hartree =     -50.49197182 kcal/mol
 --------------------------------------------------
 SCF Energy (H0 + V/2)                       =    -284.49850537 
 Solute Internal Energy (H0)                 =    -284.41804129 
 Total Free Energy (H0 + V/2 + non-elec)     =    -284.49850537 hartree
                                             = -178525.50660201 kcal/mol
***********************************************************

E_pcm = -0.0804640793
Multipole orders to be included
        2
        3
computing dipole RHS
computing quadrupole RHS
total number of RHS in solve_reponses: 8
RHS batch sizes
        8
Beginning Block Conjugate Gradient Iterations. Batch Number: 0
computing hessian-vector products by finite difference
              1      4.44e-01     00000 Conjugate Gradient Iteration
computing hessian-vector products by finite difference
              2      1.67e-01     00000 Conjugate Gradient Iteration
computing hessian-vector products by finite difference
              3      5.03e-02     00000 Conjugate Gradient Iteration
computing hessian-vector products by finite difference
              4      1.36e-02     00000 Conjugate Gradient Iteration
computing hessian-vector products by finite difference
              5      2.34e-03     00000 Conjugate Gradient Iteration
computing hessian-vector products by finite difference
              6      4.20e-04     00000 Conjugate Gradient Iteration
computing hessian-vector products by finite difference
              7      6.17e-05     00000 Conjugate Gradient Iteration
computing hessian-vector products by finite difference
              8      9.29e-06     00000 Conjugate Gradient Iteration
computing hessian-vector products by finite difference
              9      1.39e-06     00000 Conjugate Gradient Iteration
computing hessian-vector products by finite difference
             10      2.21e-07     00000 Conjugate Gradient Iteration
computing hessian-vector products by finite difference
             11      3.18e-08     00000 Conjugate Gradient Iteration
computing hessian-vector products by finite difference
             12      3.54e-09     00000 CG Converged
batch 0 complete
Done Calculating Responses
TESTING ORTHOGONALIZATION OF MULTIPOLE BASIS
Multipole virts passed orthogonality test
Virts Per Order
           72
          120
 
 --------------------------------------------------------------
 
                    Orbital Energies (a.u.)
 --------------------------------------------------------------
 
 Alpha MOs
 -- Occupied --
-14.4776 -14.4774 -14.4740 -10.4476 -10.3315 -10.2732  -1.2036  -1.0865
 -1.0724  -0.9187  -0.8156  -0.7762  -0.7546  -0.7133  -0.6486  -0.6413
 -0.6224  -0.6011  -0.5731  -0.5241  -0.5006  -0.4782  -0.4256  -0.3975
 -- Virtual --
  0.0489   0.0718   0.0803   0.0837   0.0951   0.1116   0.1149   0.1177
  0.1500   0.1581   0.1623   0.1719   0.1780   0.1913   0.1920   0.2020
  0.2084   0.2113   0.2215   0.2251   0.2481   0.2514   0.2556   0.2619
  0.2700   0.2731   0.2772   0.2923   0.2979   0.2991   0.3111   0.3148
  0.3241   0.3313   0.3417   0.3452   0.3491   0.3550   0.3578   0.3635
  0.3660   0.3797   0.3811   0.3898   0.4010   0.4039   0.4090   0.4206
  0.4288   0.4393   0.4491   0.4549   0.4579   0.4706   0.4731   0.4801
  0.4873   0.4891   0.4987   0.5037   0.5100   0.5138   0.5211   0.5255
  0.5333   0.5408   0.5518   0.5587   0.5649   0.5691   0.5698   0.5856
  0.5956   0.5975   0.6093   0.6239   0.6373   0.6440   0.6546   0.6693
  0.6725   0.6924   0.7018   0.7246   0.7312   0.7359   0.7480   0.7593
  0.7683   0.7771   0.7840   0.7921   0.7995   0.8210   0.8228   0.8325
  0.8375   0.8483   0.8780   0.8876   0.8941   0.9054   0.9223   0.9284
  0.9455   0.9775   0.9909   1.0019   1.0211   1.0370   1.0499   1.0626
  1.0828   1.0983   1.1106   1.1270   1.1332   1.1514   1.1546   1.2017
  1.2058   1.2613   1.2873   1.2955   1.3199   1.3329   1.3679   1.4092
  1.4191   1.4315   1.4557   1.4856   1.4909   1.5383   1.5642   1.5714
  1.6501   1.6659   1.6717   1.7456   1.7656   1.7999   1.8250   1.8457
  1.8776   1.8889   1.9046   1.9180   1.9186   1.9292   1.9531   1.9616
  1.9790   1.9966   2.0091   2.0338   2.0466   2.0667   2.1265   2.1372
  2.1620   2.1888   2.2107   2.2321   2.2597   2.2654   2.2988   2.3140
  2.3539   2.3798   2.4212   2.4520   2.4602   2.4982   2.5222   2.5316
  2.5572   2.5798   2.6091   2.6386   2.6525   2.6603   2.6675   2.6788
  2.7038   2.7125   2.7475   2.7962   2.8302   2.8556   2.8669   2.8778
  2.8983   2.9197   2.9212   2.9459   2.9697   3.0466   3.0801   3.0985
  3.1342   3.1505   3.1696   3.1809   3.2048   3.2572   3.2776   3.2824
  3.2978   3.3099   3.3338   3.3573   3.3876   3.4006   3.4114   3.4455
  3.4698   3.4960   3.5130   3.5421   3.5655   3.5724   3.6138   3.6506
  3.6804   3.7123   3.7334   3.8435   3.8584   3.9292   3.9572   3.9734
  4.0486   4.0666   4.0874   4.1452   4.1870   4.2026   4.2626   4.2649
  4.3104   4.3225   4.3725   4.4165   4.5153   4.5658   4.6142   4.6447
  4.6770   4.7817   4.8288   4.8533   4.8749   4.9288   4.9838   5.0033
  5.0091   5.0760   5.1057   5.1176   5.1387   5.1787   5.2224   5.2540
  5.2982   5.3664   5.3828   5.4171   5.4225   5.4529   5.4962   5.5133
  5.5873   5.6402   5.6843   5.7701   5.8060   5.8828   6.1762   6.1803
  6.3780   6.4610  22.6261  22.8238  23.6747  32.3324  32.4858  32.8835
 --------------------------------------------------------------
 
          Ground-State Mulliken Net Atomic Charges

     Atom                 Charge (a.u.)
  ----------------------------------------
      1 C                    -0.607313
      2 C                    -0.664851
      3 C                     0.554122
      4 N                    -0.056127
      5 N                    -0.239030
      6 N                    -0.256006
      7 H                     0.245941
      8 H                     0.334644
      9 H                     0.237410
     10 H                     0.221863
     11 H                     0.227135
     12 H                     0.162726
     13 H                     0.196247
     14 H                     0.202253
     15 H                     0.199417
     16 H                     0.241569
  ----------------------------------------
  Sum of atomic charges =     1.000000

 -----------------------------------------------------------------
                    Cartesian Multipole Moments
 -----------------------------------------------------------------
    Charge (ESU x 10^10)
                 4.8032
    Dipole Moment (Debye)
         X      -0.0403      Y       3.7828      Z     -14.5879
       Tot      15.0704
    Quadrupole Moments (Debye-Ang)
        XX     -36.4161     XY       4.8226     YY     -21.1510
        XZ      -2.3762     YZ      -9.5396     ZZ      23.6101
    Octopole Moments (Debye-Ang^2)
       XXX     -32.1413    XXY     -44.1824    XYY      -4.1694
       YYY    -100.1610    XXZ      86.1930    XYZ     -16.7176
       YYZ      42.8445    XZZ       5.9849    YZZ      -5.7612
       ZZZ     -19.3131
    Hexadecapole Moments (Debye-Ang^3)
      XXXX    -175.5725   XXXY     -85.1872   XXYY    -117.6831
      XYYY     -61.3813   YYYY    -462.4474   XXXZ      21.0110
      XXYZ      74.4162   XYYZ     -14.8532   YYYZ     145.3713
      XXZZ    -306.1371   XYZZ      36.7065   YYZZ    -211.6110
      XZZZ     -71.1238   YZZZ      57.6203   ZZZZ    -319.7906
 -----------------------------------------------------------------
Archival summary:
1\1\nid00509\SP\ProcedureUnspecified\BasisUnspecified\3310(1+,1)\meili\MonSep2707:18:242021MonSep2707:18:242021\0\\#,ProcedureUnspecified,BasisUnspecified,\\1,1\N\H,1,1.0124\C,1,1.32858,2,118.979\N,3,1.30467,1,119.057,2,-4.30526,0\H,4,1.00836,3,121.2,1,-173.91,0\H,4,1.01363,3,119.657,1,5.32413,0\N,3,1.31819,1,121.243,2,-179.205,0\H,7,1.01149,3,120.838,1,-5.46018,0\H,7,1.01455,3,120.523,1,176.782,0\C,1,1.45165,2,118.379,3,176.98,0\H,10,1.09134,1,110.978,2,-141.756,0\H,10,1.09162,1,107.402,2,-25.1037,0\C,10,1.51835,1,111,2,93.8804,0\H,13,1.08779,10,111.539,1,69.0757,0\H,13,1.09022,10,109.099,1,-51.0661,0\H,13,1.1,10,106.874,1,-168.458,0\\\@

 Total job time:  23176.66s(wall), 45979.81s(cpu) 
 Mon Sep 27 07:18:26 2021

        *************************************************************
        *                                                           *
        *  Thank you very much for using Q-Chem.  Have a nice day.  *
        *                                                           *
        *************************************************************


Done Job For Fragment 1
calling putenv with: QCSCRATCH=/global/cscratch1/sd/meili 
calling putenv with: QCLOCALSCR=/tmp 
calling putenv with: QCTHREADS=32 
Doing General SCFMI
 Exchange:     0.1670 Hartree-Fock + 1.0000 wB97X-V + LR-HF
 Correlation:  1.0000 wB97X-V
 Using Euler-Maclaurin-Lebedev (99,590) quadrature formula
 Nonlocal Correlation:  VV10 with C = 0.0100 and b = 6.00 and scale = 1.00000
 Grid used for NLC:  SG-1 standard quadrature
performing fock build before subrot guess so that all methods have access
Printing subrot_rss_gen Method Specification:
Occupied Subspace Method is 0
Virtual Subspace Method is 0
Energy of the unrelaxed supersystem initial determinant -631.236471979586
performing fock build before subrot guess so that all methods have access
Printing subrot_rss_gen Method Specification:
Occupied Subspace Method is 0
Virtual Subspace Method is 0
Energy of the unrelaxed supersystem initial determinant w/ solvent -631.316720839404
write pseudocanon occs and virts to disk
write pseudocanon orbital energies to disk
Tolerance of ortho_decomp_scf: 1.00e-06
GDM subspace size: 20
Beginning the Orthogonal Decomposition of the Initial Supersystem Wavefunction
    1    -631.2154990595      1.47e-02     ortho_decomp Preconditoned Steepest Descent
    2    -631.2165637741      3.89e-04     ortho_decomp BFGS Step
    3    -631.2165673573      2.72e-05     ortho_decomp BFGS Step
    4    -631.2165673628      1.14e-06     ortho_decomp BFGS Step
    5    -631.2165673628      4.82e-08     ortho_decomp 00000 Convergence criterion met
 Hartree-Fock
 Hartree-Fock
 Hartree-Fock
Doing General SCFMI
 Exchange:     0.1670 Hartree-Fock + 1.0000 wB97X-V + LR-HF
 Correlation:  1.0000 wB97X-V
 Using Euler-Maclaurin-Lebedev (99,590) quadrature formula
 Nonlocal Correlation:  VV10 with C = 0.0100 and b = 6.00 and scale = 1.00000
 Grid used for NLC:  SG-1 standard quadrature
performing fock build at end of subrot_r(subrot) constructor so that all methods have access
<S^2> of initial wavefunction before polarization iterations 0.0000000000
Beginning iterations for the determination of the polarized wavefunction
Energy prior to optimization (guess energy) = -631.316720839404
Begin Timing: Total SCF Calculation
begin iterations for algorithm: DIIS         
the SCF tolerance is set to 1.00e-08
    1    -631.3167208394      4.87e-05     00000 
    2    -631.3170438600      1.99e-05     00000 
    3    -631.3170766153      1.02e-05     00000 
    4    -631.3170855962      4.50e-06     00000 
    5    -631.3170871980      1.42e-06     00000 
    6    -631.3170874570      6.57e-07     00000 
    7    -631.3170874939      2.53e-07     00000 
    8    -631.3170874988      1.25e-07     00000 
    9    -631.3170874996      4.27e-08     00000 
   10    -631.3170874997      1.71e-08     00000 
   11    -631.3170874998      8.59e-09     00000 Convergence criterion met
write pseudocanon occs and virts to disk
write pseudocanon orbital energies to disk
Timing for Total SCF: 9179.00s (wall), 18269.48s (cpu)
<S^2> of polarized wavefunction after polarization iterations 0.0000000000
relaxing scfmi constraint to allow all rotations in the entire AO span
Doing General SCFMI
 Exchange:     0.1670 Hartree-Fock + 1.0000 wB97X-V + LR-HF
 Correlation:  1.0000 wB97X-V
 Using Euler-Maclaurin-Lebedev (99,590) quadrature formula
 Nonlocal Correlation:  VV10 with C = 0.0100 and b = 6.00 and scale = 1.00000
 Grid used for NLC:  SG-1 standard quadrature
performing fock build at end of subrot_r(subrot) constructor so that all methods have access
<S^2> of polarized wavefunction before ct-allowed iterations 0.0000000000
Beginning iterations for the determination of the CT-Allowed wavefunction
Energy prior to optimization (guess energy) = -631.317087499752
Begin Timing: Total SCF Calculation
begin iterations for algorithm: DIIS         
the SCF tolerance is set to 1.00e-08
    1    -631.3170874998      5.76e-05     00000 
    2    -631.3178075834      5.61e-06     00000 
    3    -631.3178289501      1.06e-06     00000 
    4    -631.3178297432      5.63e-07     00000 
    5    -631.3178298213      1.17e-07     00000 
    6    -631.3178298271      6.46e-08     00000 
    7    -631.3178298282      9.81e-09     00000 Convergence criterion met
write pseudocanon occs and virts to disk
write pseudocanon orbital energies to disk
Timing for Total SCF: 6104.00s (wall), 12153.43s (cpu)
<S^2> of ct_allowed wavefunction after ct-allowed iterations 0.0000000000

================================
        Results of EDA2         
================================
Basic EDA Quantities
--------------------
Fragment Energies (Ha):
1 -346.8142268924
2 -284.4985053652
--------------------
  E_prp (kJ/mol) = 0.0000
  E_sol (kJ/mol) = 15.7456
  E_frz (kJ/mol) = -26.2178
  E_pol (kJ/mol) = -0.9627
  E_vct (kJ/mol) = -1.9490
  E_int (kJ/mol) = -13.3838
--------------------


Initial Wavefunction Decomposition
--------------------
  --------------------
  Orthogonal Fragment Subspace Decomposition:
  --------------------
     E_elec   (ELEC)   (kJ/mol) = -29.9224
     E_pauli  (PAULI)  (kJ/mol) = 19.6666
     E_disp   (DISP)   (kJ/mol) = -15.9620
     --------------------
     Terms summing to E_pauli:
     --------------------
        E_kep_pauli       (kJ/mol) = 26.0424
        E_disp_free_pauli (kJ/mol) = -6.3758
  --------------------
  Classical Frozen Decomposition:
  --------------------
     E_cls_elec  (CLS ELEC)  (kJ/mol) = -21.7096
     E_cls_pauli (CLS PAULI) (kJ/mol) = -4.5082
    [E_mod_pauli (MOD PAULI) (kJ/mol) = 11.4538 (CLS PAULI - DISP from orthogonal decomposition) ]
  --------------------
--------------------

Simplified EDA Summary (kJ/mol)
--------------------
 PREPARATION     0.0000
 SOLVATION       15.7456
 FROZEN          -10.2558      (does not include dispersion)
[PAULI           19.6666]     (if this is negligible, then frozen describes electrostatics)
 DISPERSION      -15.9620
 POLARIZATION    -0.9627
 CHARGE TRANSFER -1.9490
 TOTAL           -13.3838     (PRP + SOL + FRZ + DISP + POL + CT)
--------------------
 
 --------------------------------------------------------------
 
                    Orbital Energies (a.u.)
 --------------------------------------------------------------
 
 Alpha MOs
 -- Occupied --
-19.2509 -14.4774 -14.4772 -14.4738 -10.4474 -10.3450 -10.3307 -10.2867
-10.2860 -10.2854 -10.2817 -10.2774 -10.2714 -10.2650  -1.2033  -1.1943
 -1.0861  -1.0722  -0.9939  -0.9177  -0.9055  -0.8831  -0.8150  -0.8146
 -0.7756  -0.7544  -0.7520  -0.7159  -0.7128  -0.6676  -0.6485  -0.6411
 -0.6220  -0.6014  -0.6007  -0.5855  -0.5737  -0.5572  -0.5408  -0.5347
 -0.5242  -0.5209  -0.5146  -0.4990  -0.4818  -0.4777  -0.4606  -0.4478
 -0.4435  -0.4254  -0.3970  -0.3528  -0.3197
 -- Virtual --
  0.0439   0.0486   0.0583   0.0647   0.0669   0.0702   0.0839   0.0850
  0.0900   0.0971   0.0995   0.1028   0.1094   0.1178   0.1192   0.1224
  0.1278   0.1382   0.1484   0.1527   0.1598   0.1617   0.1633   0.1688
  0.1775   0.1835   0.1864   0.1919   0.1940   0.1955   0.2028   0.2047
  0.2057   0.2130   0.2163   0.2179   0.2216   0.2281   0.2356   0.2372
  0.2401   0.2430   0.2525   0.2556   0.2579   0.2629   0.2646   0.2703
  0.2736   0.2753   0.2800   0.2826   0.2907   0.2934   0.2973   0.2991
  0.3040   0.3044   0.3072   0.3107   0.3137   0.3176   0.3199   0.3252
  0.3273   0.3303   0.3326   0.3395   0.3424   0.3447   0.3478   0.3483
  0.3508   0.3578   0.3606   0.3628   0.3652   0.3694   0.3741   0.3773
  0.3809   0.3831   0.3854   0.3878   0.3911   0.3939   0.3985   0.4005
  0.4037   0.4118   0.4144   0.4161   0.4219   0.4221   0.4273   0.4290
  0.4319   0.4357   0.4391   0.4466   0.4514   0.4526   0.4541   0.4608
  0.4642   0.4691   0.4728   0.4765   0.4786   0.4824   0.4833   0.4863
  0.4898   0.4952   0.4972   0.5003   0.5021   0.5048   0.5065   0.5108
  0.5139   0.5162   0.5190   0.5218   0.5298   0.5317   0.5375   0.5399
  0.5406   0.5476   0.5529   0.5551   0.5568   0.5613   0.5659   0.5751
  0.5772   0.5801   0.5868   0.5915   0.5947   0.5958   0.6017   0.6031
  0.6055   0.6104   0.6134   0.6208   0.6291   0.6310   0.6352   0.6378
  0.6425   0.6516   0.6593   0.6657   0.6700   0.6750   0.6765   0.6780
  0.6818   0.6858   0.6897   0.6922   0.6994   0.7056   0.7125   0.7155
  0.7191   0.7246   0.7292   0.7349   0.7387   0.7415   0.7460   0.7475
  0.7510   0.7591   0.7611   0.7665   0.7705   0.7738   0.7762   0.7823
  0.7847   0.7886   0.7922   0.7966   0.8004   0.8039   0.8074   0.8121
  0.8129   0.8176   0.8237   0.8264   0.8287   0.8337   0.8406   0.8458
  0.8539   0.8603   0.8631   0.8661   0.8681   0.8756   0.8773   0.8828
  0.8878   0.8929   0.8996   0.9019   0.9128   0.9149   0.9189   0.9208
  0.9293   0.9325   0.9370   0.9424   0.9485   0.9554   0.9574   0.9734
  0.9741   0.9857   0.9905   1.0035   1.0073   1.0152   1.0186   1.0260
  1.0362   1.0408   1.0449   1.0595   1.0670   1.0697   1.0748   1.0858
  1.0881   1.0938   1.1001   1.1076   1.1084   1.1273   1.1282   1.1372
  1.1460   1.1524   1.1551   1.1724   1.1807   1.1877   1.1959   1.2016
  1.2079   1.2132   1.2457   1.2621   1.2692   1.2761   1.2814   1.2952
  1.3105   1.3224   1.3417   1.3470   1.3596   1.3696   1.3711   1.3763
  1.3845   1.3928   1.4120   1.4161   1.4337   1.4403   1.4487   1.4582
  1.4658   1.4726   1.4807   1.4921   1.4961   1.5037   1.5223   1.5292
  1.5316   1.5562   1.5787   1.5862   1.5923   1.6102   1.6279   1.6434
  1.6513   1.6683   1.6743   1.6903   1.6972   1.7020   1.7255   1.7499
  1.7675   1.7826   1.8083   1.8184   1.8230   1.8441   1.8548   1.8621
  1.8694   1.8744   1.8942   1.8999   1.9093   1.9162   1.9206   1.9261
  1.9337   1.9425   1.9470   1.9476   1.9710   1.9774   1.9804   1.9856
  1.9896   1.9999   2.0061   2.0189   2.0285   2.0375   2.0484   2.0581
  2.0646   2.0695   2.0785   2.0845   2.0943   2.1008   2.1109   2.1215
  2.1298   2.1568   2.1690   2.1710   2.1948   2.2091   2.2142   2.2172
  2.2215   2.2344   2.2490   2.2554   2.2684   2.2760   2.2919   2.2959
  2.3026   2.3140   2.3227   2.3297   2.3355   2.3598   2.3784   2.3907
  2.3979   2.4070   2.4232   2.4316   2.4486   2.4649   2.4742   2.4906
  2.4963   2.5189   2.5281   2.5360   2.5462   2.5659   2.5673   2.5736
  2.5744   2.6091   2.6192   2.6327   2.6374   2.6468   2.6540   2.6622
  2.6662   2.6791   2.6855   2.6895   2.6929   2.7101   2.7149   2.7348
  2.7573   2.7605   2.7655   2.7750   2.7858   2.7892   2.8072   2.8246
  2.8384   2.8419   2.8596   2.8641   2.8790   2.8925   2.9059   2.9188
  2.9206   2.9284   2.9355   2.9466   2.9550   2.9646   2.9700   2.9886
  2.9898   3.0071   3.0142   3.0235   3.0312   3.0421   3.0466   3.0563
  3.0804   3.0866   3.1070   3.1105   3.1279   3.1363   3.1472   3.1661
  3.1676   3.1882   3.1943   3.1960   3.2067   3.2136   3.2305   3.2464
  3.2685   3.2759   3.2855   3.2887   3.3050   3.3140   3.3203   3.3281
  3.3363   3.3454   3.3581   3.3619   3.3758   3.3856   3.3908   3.3987
  3.4127   3.4245   3.4294   3.4413   3.4445   3.4493   3.4567   3.4797
  3.4855   3.4865   3.5037   3.5074   3.5157   3.5206   3.5321   3.5400
  3.5459   3.5531   3.5634   3.5700   3.5769   3.5811   3.5942   3.5964
  3.6049   3.6241   3.6254   3.6336   3.6364   3.6701   3.6773   3.6895
  3.6925   3.6986   3.7106   3.7431   3.7489   3.7510   3.7742   3.8152
  3.8372   3.8442   3.8615   3.8870   3.9056   3.9095   3.9473   3.9550
  3.9666   3.9709   3.9809   3.9873   4.0305   4.0734   4.0863   4.0952
  4.1088   4.1136   4.1469   4.1600   4.2152   4.2228   4.2365   4.2601
  4.2688   4.2729   4.2824   4.2879   4.2995   4.3069   4.3237   4.3285
  4.3324   4.3386   4.3614   4.3722   4.3873   4.4178   4.4430   4.4509
  4.4585   4.5285   4.5467   4.5729   4.5949   4.6116   4.6323   4.6676
  4.6949   4.7164   4.7318   4.7616   4.7860   4.8055   4.8174   4.8435
  4.8630   4.8882   4.9379   4.9491   4.9894   5.0023   5.0281   5.0384
  5.0455   5.0690   5.0999   5.1112   5.1275   5.1378   5.1542   5.1597
  5.1942   5.2374   5.2704   5.2757   5.2864   5.3229   5.3737   5.3780
  5.3957   5.4058   5.4262   5.4328   5.4616   5.5152   5.5261   5.5400
  5.5966   5.6131   5.6202   5.6536   5.6838   5.7197   5.7690   5.7885
  5.8219   5.8972   5.9193   6.1846   6.1919   6.2001   6.4011   6.4103
  6.4758   6.6006   6.6564   6.8747   6.9885   7.3202   7.4594  22.6840
 22.7039  22.7472  22.8726  22.9239  22.9578  22.9757  23.1456  23.4335
 23.7162  32.3465  32.5411  32.9413  44.4968
 --------------------------------------------------------------
 
          Ground-State Mulliken Net Atomic Charges

     Atom                 Charge (a.u.)
  ----------------------------------------
      1 C                    -1.130224
      2 C                     0.553198
      3 C                    -0.389681
      4 C                    -0.652694
      5 C                    -0.605153
      6 C                    -0.397120
      7 C                     0.710985
      8 O                    -0.491253
      9 H                     0.289463
     10 H                     0.342283
     11 H                     0.363551
     12 H                     0.346176
     13 H                     0.288733
     14 H                     0.244709
     15 H                     0.276084
     16 H                     0.250884
     17 C                    -0.671334
     18 C                    -0.477124
     19 C                     0.561270
     20 N                     0.039845
     21 N                    -0.228926
     22 N                    -0.241784
     23 H                     0.207450
     24 H                     0.331672
     25 H                     0.264550
     26 H                     0.100407
     27 H                     0.141355
     28 H                     0.160785
     29 H                     0.187592
     30 H                     0.185683
     31 H                     0.200259
     32 H                     0.238362
  ----------------------------------------
  Sum of atomic charges =     1.000000

 -----------------------------------------------------------------
                    Cartesian Multipole Moments
 -----------------------------------------------------------------
    Charge (ESU x 10^10)
                 4.8032
    Dipole Moment (Debye)
         X      -1.6503      Y       2.9185      Z     -14.5121
       Tot      14.8944
    Quadrupole Moments (Debye-Ang)
        XX     -76.5381     XY       1.0921     YY     -63.8847
        XZ      -6.2611     YZ      -9.2838     ZZ     -27.9347
    Octopole Moments (Debye-Ang^2)
       XXX     -11.7189    XXY       7.7895    XYY      -4.7567
       YYY      37.0059    XXZ      10.6800    XYZ     -28.1383
       YYZ     -43.9029    XZZ       4.9953    YZZ      50.4973
       ZZZ    -320.4508
    Hexadecapole Moments (Debye-Ang^3)
      XXXX    -470.4559   XXXY     -92.9105   XXYY    -349.2797
      XYYY     -72.7178   YYYY   -1639.7536   XXXZ      59.3093
      XXYZ     149.6963   XYYZ     -20.3467   YYYZ     319.9967
      XXZZ    -529.7089   XYZZ       6.6884   YYZZ    -614.2886
      XZZZ     -46.4815   YZZZ     266.9210   ZZZZ   -1627.2948
 -----------------------------------------------------------------
Archival summary:
1\1\nid00509\SP\ProcedureUnspecified\BasisUnspecified\131018(1+,1)\meili\MonSep2715:36:362021MonSep2715:36:362021\0\\#,ProcedureUnspecified,BasisUnspecified,\\1,1\N\H,1,1.0124\C,1,1.32858,2,118.979\N,3,1.30467,1,119.057,2,-4.30526,0\H,4,1.00836,3,121.2,1,-173.91,0\H,4,1.01363,3,119.657,1,5.32413,0\N,3,1.31819,1,121.243,2,-179.205,0\H,7,1.01149,3,120.838,1,-5.46018,0\H,7,1.01455,3,120.523,1,176.782,0\C,1,1.45165,2,118.379,3,176.98,0\H,10,1.09134,1,110.978,2,-141.756,0\H,10,1.09162,1,107.402,2,-25.1037,0\C,10,1.51835,1,111,2,93.8804,0\H,13,1.08779,10,111.539,1,69.0757,0\H,13,1.09022,10,109.099,1,-51.0661,0\H,13,1.1,10,106.874,1,-168.458,0\H,15,2.71843,13,131.499,10,-98.5598,0\C,17,1.08032,15,84.2884,13,110.74,0\C,18,1.38705,17,119.164,15,-88.8988,0\O,19,1.38017,18,117.27,17,1.0178,0\H,20,0.961541,19,112.128,18,-179.965,0\C,18,1.41786,17,120.271,15,92.7887,0\H,22,1.08292,18,118.775,17,-0.374967,0\C,22,1.394,18,121.184,17,178.53,0\C,24,1.41235,22,118.449,18,1.71019,0\H,25,1.07957,24,120.076,22,179.503,0\C,25,1.42118,24,120.909,22,-1.04032,0\H,27,1.07975,25,120.259,24,179.899,0\C,24,1.51118,22,119.427,18,-176.99,0\H,29,1.0865,24,108.416,22,-2.93618,0\H,29,1.09141,24,107.254,22,111.857,0\H,29,1.1,24,116.363,22,-126.769,0\\\@

 Total job time:  92827.31s(wall), 59558.51s(cpu) 
 Mon Sep 27 15:36:37 2021

        *************************************************************
        *                                                           *
        *  Thank you very much for using Q-Chem.  Have a nice day.  *
        *                                                           *
        *************************************************************


