                  Welcome to Q-Chem
     A Quantum Leap Into The Future Of Chemistry


 Q-Chem 5.2 (devel), Q-Chem, Inc., Pleasanton, CA (2019)

 Yihan Shao,  Zhengting Gan,  E. Epifanovsky,  A. T. B. Gilbert,  M. Wormit,  
 J. Kussmann,  A. W. Lange,  A. Behn,  Jia Deng,  Xintian Feng,  D. Ghosh,  
 M. Goldey,  P. R. Horn,  L. D. Jacobson,  I. Kaliman,  T. Kus,  A. Landau,  
 Jie Liu,  E. I. Proynov,  R. M. Richard,  R. P. Steele,  E. J. Sundstrom,  
 H. L. Woodcock III,  P. M. Zimmerman,  D. Zuev,  B. Albrecht,  E. Alguire,  
 S. A. Baeppler,  D. Barton,  Z. Benda,  Y. A. Bernard,  E. J. Berquist,  
 K. B. Bravaya,  H. Burton,  D. Casanova,  Chun-Min Chang,  Yunqing Chen,  
 A. Chien,  K. D. Closser,  M. P. Coons,  S. Coriani,  S. Dasgupta,  
 A. L. Dempwolff,  M. Diedenhofen,  Hainam Do,  R. G. Edgar,  Po-Tung Fang,  
 S. Faraji,  S. Fatehi,  Qingguo Feng,  K. D. Fenk,  J. Fosso-Tande,  
 J. Gayvert,  Qinghui Ge,  A. Ghysels,  G. Gidofalvi,  J. Gomes,  
 J. Gonthier,  A. Gunina,  D. Hait,  M. W. D. Hanson-Heine,  
 P. H. P. Harbach,  A. W. Hauser,  M. F. Herbst,  J. E. Herr,  
 E. G. Hohenstein,  Z. C. Holden,  Kerwin Hui,  B. C. Huynh,  T.-C. Jagau,  
 Hyunjun Ji,  B. Kaduk,  K. Khistyaev,  Jaehoon Kim,  P. Klunzinger,  K. Koh,  
 D. Kosenkov,  L. Koulias,  T. Kowalczyk,  C. M. Krauter,  A. Kunitsa,  
 Ka Un Lao,  A. Laurent,  K. V. Lawler,  Joonho Lee,  D. Lefrancois,  
 S. Lehtola,  D. S. Levine,  Yi-Pei Li,  You-Sheng Lin,  Fenglai Liu,  
 E. Livshits,  A. Luenser,  P. Manohar,  E. Mansoor,  S. F. Manzer,  
 Shan-Ping Mao,  Yuezhi Mao,  N. Mardirossian,  A. V. Marenich,  
 T. Markovich,  L. A. Martinez-Martinez,  S. A. Maurer,  N. J. Mayhall,  
 S. C. McKenzie,  J.-M. Mewes,  P. Morgante,  A. F. Morrison,  
 J. W. Mullinax,  K. Nanda,  T. S. Nguyen-Beck,  R. Olivares-Amaya,  
 J. A. Parkhill,  Zheng Pei,  T. M. Perrine,  F. Plasser,  P. Pokhilko,  
 S. Prager,  A. Prociuk,  E. Ramos,  D. R. Rehn,  F. Rob,  M. Scheurer,  
 M. Schneider,  N. Sergueev,  S. M. Sharada,  S. Sharma,  D. W. Small,  
 T. Stauch,  T. Stein,  Yu-Chuan Su,  A. J. W. Thom,  A. Tkatchenko,  
 T. Tsuchimochi,  N. M. Tubman,  L. Vogt,  M. L. Vidal,  O. Vydrov,  
 M. A. Watson,  J. Wenzel,  M. de Wergifosse,  T. A. Wesolowski,  A. White,  
 J. Witte,  A. Yamada,  Jun Yang,  K. Yao,  S. Yeganeh,  S. R. Yost,  
 Zhi-Qiang You,  A. Zech,  Igor Ying Zhang,  Xing Zhang,  Yan Zhao,  
 Ying Zhu,  B. R. Brooks,  G. K. L. Chan,  C. J. Cramer,  M. S. Gordon,  
 W. J. Hehre,  A. Klamt,  M. W. Schmidt,  C. D. Sherrill,  D. G. Truhlar,  
 A. Aspuru-Guzik,  R. Baer,  A. T. Bell,  N. A. Besley,  Jeng-Da Chai,  
 A. E. DePrince, III,  R. A. DiStasio Jr.,  A. Dreuw,  B. D. Dunietz,  
 T. R. Furlani,  Chao-Ping Hsu,  Yousung Jung,  Jing Kong,  D. S. Lambrecht,  
 WanZhen Liang,  C. Ochsenfeld,  V. A. Rassolov,  L. V. Slipchenko,  
 J. E. Subotnik,  T. Van Voorhis,  J. M. Herbert,  A. I. Krylov,  
 P. M. W. Gill,  M. Head-Gordon

 Contributors to earlier versions of Q-Chem not listed above: 
 R. D. Adamson,  B. Austin,  J. Baker,  G. J. O. Beran,  K. Brandhorst,  
 S. T. Brown,  E. F. C. Byrd,  A. K. Chakraborty,  C.-L. Cheng,  
 Siu Hung Chien,  D. M. Chipman,  D. L. Crittenden,  H. Dachsel,  
 R. J. Doerksen,  A. D. Dutoi,  L. Fusti-Molnar,  W. A. Goddard III,  
 A. Golubeva-Zadorozhnaya,  S. R. Gwaltney,  G. Hawkins,  A. Heyden,  
 S. Hirata,  G. Kedziora,  F. J. Keil,  C. Kelley,  Jihan Kim,  R. A. King,  
 R. Z. Khaliullin,  P. P. Korambath,  W. Kurlancheek,  A. M. Lee,  M. S. Lee,  
 S. V. Levchenko,  Ching Yeh Lin,  D. Liotard,  R. C. Lochan,  I. Lotan,  
 P. E. Maslen,  N. Nair,  D. P. O'Neill,  D. Neuhauser,  E. Neuscamman,  
 C. M. Oana,  R. Olson,  B. Peters,  R. Peverati,  P. A. Pieniazek,  
 Y. M. Rhee,  J. Ritchie,  M. A. Rohrdanz,  E. Rosta,  N. J. Russ,  
 H. F. Schaefer III,  N. E. Schultz,  N. Shenvi,  A. C. Simmonett,  A. Sodt,  
 D. Stuck,  K. S. Thanthiriwatte,  V. Vanovschi,  Tao Wang,  A. Warshel,  
 C. F. Williams,  Q. Wu,  X. Xu,  W. Zhang

 Please cite Q-Chem as follows:
 Y. Shao et al., Mol. Phys. 113, 184-215 (2015)
 DOI: 10.1080/00268976.2014.952696

 Q-Chem 5.2.1 for Intel X86 EM64T Linux

 Parts of Q-Chem use Armadillo 8.300.2 (Tropical Shenanigans).
 http://arma.sourceforge.net/

 Q-Chem begins on Wed Sep 29 06:45:00 2021  

compute-0-10.local
Host: 0

     Scratch files written to /home/meili/scratch/qchem38564//
NAlpha2: 128
NElect   128
Mult     1
Symmetry turned off for PCM/SM12/SMD calculation

 Q-Chem warning in module libgen/rem_setup.C, line 2813:

 Neither GIA nor STOLL is specified by user. Use STOLL as the default


Checking the input file for inconsistencies... 	...done.

--------------------------------------------------------------
User input:
--------------------------------------------------------------
$comment
SSI-047TRP-083TYR-1.pdb
$end

$molecule
0 1
--
0 1
C   -0.245181464028    1.905552236001   -4.476196890058
C    0.607818535972    1.864552236001   -2.019196890058
C    0.048818535972    2.520552236001   -3.167196890058
C    0.709818535972    2.841552236001   -0.994196890058
C   -0.149181464028    3.817552236001   -2.815196890058
C    1.563818535972    0.270552236001   -0.482196890058
C    1.641818535972    1.261552236001    0.507803109942
C    1.045818535972    0.557552236001   -1.751196890058
C    1.216818535972    2.553552236001    0.259803109942
N    0.245818535972    4.019552236001   -1.515196890058
H    1.889818535972   -0.730447763999   -0.254196890058
H    2.046818535972    1.014552236001    1.478803109942
H    1.000818535972   -0.202447763999   -2.516196890058
H    1.275818535972    3.317552236001    1.018803109942
H   -1.034181464028    2.471552236001   -4.975196890058
H   -0.628181464028    0.902552236001   -4.289196890058
H   -0.558181464028    4.583552236001   -3.468196890058
H    0.225818535972    4.915552236001   -1.040196890058
H    0.633627635972    1.837008036001   -5.134216890058
--
0 1
C    0.888818535972   -2.272447763999    4.416803109942
C   -0.934181464028   -1.585447763999    1.133803109942
C   -1.582181464028   -2.801447763999    0.916803109942
C   -0.134181464028   -1.419447763999    2.270803109942
C    0.044818535972   -2.464447763999    3.179803109942
C   -1.414181464028   -3.850447763999    1.820803109942
C   -0.615181464028   -3.672447763999    2.949803109942
O   -2.374181464028   -2.979447763999   -0.179196890058
H   -1.061181464028   -0.776447763999    0.428803109942
H    0.359818535972   -0.472447763999    2.434803109942
H   -1.885181464028   -4.803447763999    1.639803109942
H   -2.805181464028   -3.840447763999   -0.181196890058
H    0.382818535972   -2.774447763999    5.237803109942
H    0.943818535972   -1.216447763999    4.663803109942
H   -0.514181464028   -4.487447763999    3.652803109942
H    1.913441835972   -2.667474763999    4.352763109942
$end

$rem
JOBTYPE			EDA
EDA2			1
method			wB97X-V
BASIS			def2-TZVPD
XC_GRID			000099000590
NL_GRID			1
UNRESTRICTED		FALSE
MAX_SCF_CYCLES		200
SYMMETRY		FALSE
SYM_IGNORE		TRUE
MEM_STATIC		2000
BASIS_LIN_DEP_THRESH 	6
THRESH 			14
SCF_CONVERGENCE 	8
SCF_PRINT_FRGM 		TRUE
SOLVENT_METHOD          SMD
$end

$SMX
SOLVENT			WATER
$END
--------------------------------------------------------------
 ----------------------------------------------------------------
             Standard Nuclear Orientation (Angstroms)
    I     Atom           X                Y                Z
 ----------------------------------------------------------------
    1      C      -0.2451814640     1.9055522360    -4.4761968901
    2      C       0.6078185360     1.8645522360    -2.0191968901
    3      C       0.0488185360     2.5205522360    -3.1671968901
    4      C       0.7098185360     2.8415522360    -0.9941968901
    5      C      -0.1491814640     3.8175522360    -2.8151968901
    6      C       1.5638185360     0.2705522360    -0.4821968901
    7      C       1.6418185360     1.2615522360     0.5078031099
    8      C       1.0458185360     0.5575522360    -1.7511968901
    9      C       1.2168185360     2.5535522360     0.2598031099
   10      N       0.2458185360     4.0195522360    -1.5151968901
   11      H       1.8898185360    -0.7304477640    -0.2541968901
   12      H       2.0468185360     1.0145522360     1.4788031099
   13      H       1.0008185360    -0.2024477640    -2.5161968901
   14      H       1.2758185360     3.3175522360     1.0188031099
   15      H      -1.0341814640     2.4715522360    -4.9751968901
   16      H      -0.6281814640     0.9025522360    -4.2891968901
   17      H      -0.5581814640     4.5835522360    -3.4681968901
   18      H       0.2258185360     4.9155522360    -1.0401968901
   19      H       0.6336276360     1.8370080360    -5.1342168901
   20      C       0.8888185360    -2.2724477640     4.4168031099
   21      C      -0.9341814640    -1.5854477640     1.1338031099
   22      C      -1.5821814640    -2.8014477640     0.9168031099
   23      C      -0.1341814640    -1.4194477640     2.2708031099
   24      C       0.0448185360    -2.4644477640     3.1798031099
   25      C      -1.4141814640    -3.8504477640     1.8208031099
   26      C      -0.6151814640    -3.6724477640     2.9498031099
   27      O      -2.3741814640    -2.9794477640    -0.1791968901
   28      H      -1.0611814640    -0.7764477640     0.4288031099
   29      H       0.3598185360    -0.4724477640     2.4348031099
   30      H      -1.8851814640    -4.8034477640     1.6398031099
   31      H      -2.8051814640    -3.8404477640    -0.1811968901
   32      H       0.3828185360    -2.7744477640     5.2378031099
   33      H       0.9438185360    -1.2164477640     4.6638031099
   34      H      -0.5141814640    -4.4874477640     3.6528031099
   35      H       1.9134418360    -2.6674747640     4.3527631099
 ----------------------------------------------------------------
 Nuclear Repulsion Energy =        1167.01030749 hartrees
 There are       64 alpha and       64 beta electrons
 Requested basis set is def2-TZVPD
 There are 320 shells and 822 basis functions

 Total QAlloc Memory Limit   2000 MB
 Mega-Array Size      1956 MB
 MEM_STATIC part      2000 MB

 Citation of the SMD model:
 Marenich, A.V.; Cramer, C.J.; Truhlar, D.G.
 J. Phys. Chem. B 2009, 113, 6378-6396.
 iSolventCode=           1
 Solvent: water                                                           

 vradii
            1           2           3           4           5           6
    1   1.8500000   1.8500000   1.8500000   1.8500000   1.8500000   1.8500000
            7           8           9          10          11          12
    1   1.8500000   1.8500000   1.8500000   1.8900000   1.2000000   1.2000000
           13          14          15          16          17          18
    1   1.2000000   1.2000000   1.2000000   1.2000000   1.2000000   1.2000000
           19          20          21          22          23          24
    1   1.2000000   1.8500000   1.8500000   1.8500000   1.8500000   1.8500000
           25          26          27          28          29          30
    1   1.8500000   1.8500000   1.5200000   1.2000000   1.2000000   1.2000000
           31          32          33          34          35
    1   1.2000000   1.2000000   1.2000000   1.2000000   1.2000000
 Changing PCM_VDW_RADII to SMD_RADIUS
 Discretize the solute cavity surface with Lebedev spheres
	Using 110 Lebedev grid points for each H atom
	Using 194 Lebedev grid points for other atoms
	Atomic van der Waals radii will be scaled by 1.20
 Remove points where switching function is < 1.0e-08
 Keep 2561 surface tesserae and discard 2801 interior tesserae
 Molecular Surface Area = 301.288 Angst**2
 A cutoff of  1.0D-14 yielded  40809 shell pairs
 There are    268835 function pairs (    340672 Cartesian)
 Smallest overlap matrix eigenvalue = 4.25E-07
 Linear dependence detected in AO basis
 Tighter screening thresholds may be required for diffuse basis sets
 Use S2THRESH > 14 and THRESH = 14 in case of SCF convergence issues
 Number of orthogonalized atomic orbitals = 816
 Maximum deviation from orthogonality = 1.732E-10

 Scale SEOQF with 1.000000e-01/1.000000e-01/1.000000e-02

 Standard Electronic Orientation quadrupole field applied
 Nucleus-field energy     =     0.0000000624 hartrees

 -----------------------------------------------------------------------
  General SCF calculation program by
  Eric Jon Sundstrom, Paul Horn, Yuezhi Mao, Dmitri Zuev, Alec White,
  David Stuck, Shaama M.S., Shane Yost, Joonho Lee, David Small,
  Daniel Levine, Susi Lehtola, Hugh Burton, Evgeny Epifanovsky,
  Bang C. Huynh
 -----------------------------------------------------------------------
================================================================
                 ALMO-EDA with the EDA2 driver                  
================================================================
 The second-generation ALMO-EDA (for DFT):                      
 P. R. Horn, Y. Mao and M. Head-Gordon, PCCP, 18, 23067 (2016)  
 Decomposition of the frozen energy:                            
 P. R. Horn, Y. Mao and M. Head-Gordon, JCP, 144, 114107 (2016) 
 FERF model for polarization:                                   
 P. R. Horn and M. Head-Gordon, JCP, 143, 114111 (2015)         
Using eda2 option set 1
Option set summary: Frozen orbital wavefunction, initial wavefunction decomposition, and nDQ polarization.
--------------------------------
Printing EDA Options
--------------------------------
eda_child_super_basis      0
fragmo_guess_mode          0
child_mp                   1
child_mp_orders            232
cls_elec                   1
cls_disp                   0
scfmi_mode                 1
scfmi_occs                 0
scfmi_virts                0
frz_relax                  0
frz_relax_method           0
dc_pen_start               0
dc_pen_conv                0
dc_pen_increment           0
dc_pen_steps               0
dc_pen_thresh_factor       0
dc_pen_pre_newton_thresh   0
frz_ortho_decomp           1
frz_ortho_decomp_conv      6
frgm_method                2
scfmi_freeze_ss            0
separate_rehyb             0
plot_diff_den              0
eda_nocv                   0
eda_vct_relax              1
disp_free_x                0
disp_free_c                0
eda_bsse                   0
eda_pct_a                  0
eda_covp                   0
--------------------------------
Attempting to make child job directory: /home/meili/scratch/qchem38564//Frg1/
Attempting to make child job directory: /home/meili/scratch/qchem38564//Frg2/
Creating input file /home/meili/scratch/qchem38564/Frg1.input
using default PutDataFrgm: nothing
calling putenv with: QCSCRATCH=/home/meili/scratch/qchem38564/ 
Spawning Job For Fragment 0
                  Welcome to Q-Chem
     A Quantum Leap Into The Future Of Chemistry


 Q-Chem 5.2 (devel), Q-Chem, Inc., Pleasanton, CA (2019)

 Yihan Shao,  Zhengting Gan,  E. Epifanovsky,  A. T. B. Gilbert,  M. Wormit,  
 J. Kussmann,  A. W. Lange,  A. Behn,  Jia Deng,  Xintian Feng,  D. Ghosh,  
 M. Goldey,  P. R. Horn,  L. D. Jacobson,  I. Kaliman,  T. Kus,  A. Landau,  
 Jie Liu,  E. I. Proynov,  R. M. Richard,  R. P. Steele,  E. J. Sundstrom,  
 H. L. Woodcock III,  P. M. Zimmerman,  D. Zuev,  B. Albrecht,  E. Alguire,  
 S. A. Baeppler,  D. Barton,  Z. Benda,  Y. A. Bernard,  E. J. Berquist,  
 K. B. Bravaya,  H. Burton,  D. Casanova,  Chun-Min Chang,  Yunqing Chen,  
 A. Chien,  K. D. Closser,  M. P. Coons,  S. Coriani,  S. Dasgupta,  
 A. L. Dempwolff,  M. Diedenhofen,  Hainam Do,  R. G. Edgar,  Po-Tung Fang,  
 S. Faraji,  S. Fatehi,  Qingguo Feng,  K. D. Fenk,  J. Fosso-Tande,  
 J. Gayvert,  Qinghui Ge,  A. Ghysels,  G. Gidofalvi,  J. Gomes,  
 J. Gonthier,  A. Gunina,  D. Hait,  M. W. D. Hanson-Heine,  
 P. H. P. Harbach,  A. W. Hauser,  M. F. Herbst,  J. E. Herr,  
 E. G. Hohenstein,  Z. C. Holden,  Kerwin Hui,  B. C. Huynh,  T.-C. Jagau,  
 Hyunjun Ji,  B. Kaduk,  K. Khistyaev,  Jaehoon Kim,  P. Klunzinger,  K. Koh,  
 D. Kosenkov,  L. Koulias,  T. Kowalczyk,  C. M. Krauter,  A. Kunitsa,  
 Ka Un Lao,  A. Laurent,  K. V. Lawler,  Joonho Lee,  D. Lefrancois,  
 S. Lehtola,  D. S. Levine,  Yi-Pei Li,  You-Sheng Lin,  Fenglai Liu,  
 E. Livshits,  A. Luenser,  P. Manohar,  E. Mansoor,  S. F. Manzer,  
 Shan-Ping Mao,  Yuezhi Mao,  N. Mardirossian,  A. V. Marenich,  
 T. Markovich,  L. A. Martinez-Martinez,  S. A. Maurer,  N. J. Mayhall,  
 S. C. McKenzie,  J.-M. Mewes,  P. Morgante,  A. F. Morrison,  
 J. W. Mullinax,  K. Nanda,  T. S. Nguyen-Beck,  R. Olivares-Amaya,  
 J. A. Parkhill,  Zheng Pei,  T. M. Perrine,  F. Plasser,  P. Pokhilko,  
 S. Prager,  A. Prociuk,  E. Ramos,  D. R. Rehn,  F. Rob,  M. Scheurer,  
 M. Schneider,  N. Sergueev,  S. M. Sharada,  S. Sharma,  D. W. Small,  
 T. Stauch,  T. Stein,  Yu-Chuan Su,  A. J. W. Thom,  A. Tkatchenko,  
 T. Tsuchimochi,  N. M. Tubman,  L. Vogt,  M. L. Vidal,  O. Vydrov,  
 M. A. Watson,  J. Wenzel,  M. de Wergifosse,  T. A. Wesolowski,  A. White,  
 J. Witte,  A. Yamada,  Jun Yang,  K. Yao,  S. Yeganeh,  S. R. Yost,  
 Zhi-Qiang You,  A. Zech,  Igor Ying Zhang,  Xing Zhang,  Yan Zhao,  
 Ying Zhu,  B. R. Brooks,  G. K. L. Chan,  C. J. Cramer,  M. S. Gordon,  
 W. J. Hehre,  A. Klamt,  M. W. Schmidt,  C. D. Sherrill,  D. G. Truhlar,  
 A. Aspuru-Guzik,  R. Baer,  A. T. Bell,  N. A. Besley,  Jeng-Da Chai,  
 A. E. DePrince, III,  R. A. DiStasio Jr.,  A. Dreuw,  B. D. Dunietz,  
 T. R. Furlani,  Chao-Ping Hsu,  Yousung Jung,  Jing Kong,  D. S. Lambrecht,  
 WanZhen Liang,  C. Ochsenfeld,  V. A. Rassolov,  L. V. Slipchenko,  
 J. E. Subotnik,  T. Van Voorhis,  J. M. Herbert,  A. I. Krylov,  
 P. M. W. Gill,  M. Head-Gordon

 Contributors to earlier versions of Q-Chem not listed above: 
 R. D. Adamson,  B. Austin,  J. Baker,  G. J. O. Beran,  K. Brandhorst,  
 S. T. Brown,  E. F. C. Byrd,  A. K. Chakraborty,  C.-L. Cheng,  
 Siu Hung Chien,  D. M. Chipman,  D. L. Crittenden,  H. Dachsel,  
 R. J. Doerksen,  A. D. Dutoi,  L. Fusti-Molnar,  W. A. Goddard III,  
 A. Golubeva-Zadorozhnaya,  S. R. Gwaltney,  G. Hawkins,  A. Heyden,  
 S. Hirata,  G. Kedziora,  F. J. Keil,  C. Kelley,  Jihan Kim,  R. A. King,  
 R. Z. Khaliullin,  P. P. Korambath,  W. Kurlancheek,  A. M. Lee,  M. S. Lee,  
 S. V. Levchenko,  Ching Yeh Lin,  D. Liotard,  R. C. Lochan,  I. Lotan,  
 P. E. Maslen,  N. Nair,  D. P. O'Neill,  D. Neuhauser,  E. Neuscamman,  
 C. M. Oana,  R. Olson,  B. Peters,  R. Peverati,  P. A. Pieniazek,  
 Y. M. Rhee,  J. Ritchie,  M. A. Rohrdanz,  E. Rosta,  N. J. Russ,  
 H. F. Schaefer III,  N. E. Schultz,  N. Shenvi,  A. C. Simmonett,  A. Sodt,  
 D. Stuck,  K. S. Thanthiriwatte,  V. Vanovschi,  Tao Wang,  A. Warshel,  
 C. F. Williams,  Q. Wu,  X. Xu,  W. Zhang

 Please cite Q-Chem as follows:
 Y. Shao et al., Mol. Phys. 113, 184-215 (2015)
 DOI: 10.1080/00268976.2014.952696

 Q-Chem 5.2.1 for Intel X86 EM64T Linux

 Parts of Q-Chem use Armadillo 8.300.2 (Tropical Shenanigans).
 http://arma.sourceforge.net/

 Q-Chem begins on Wed Sep 29 06:45:10 2021  

compute-0-10.local
Host: 0

     Scratch files written to /home/meili/scratch/qchem38564//Frg1//
NAlpha2: 70
NElect   70
Mult     1
Symmetry turned off for PCM/SM12/SMD calculation

Checking the input file for inconsistencies... 	...done.

--------------------------------------------------------------
User input:
--------------------------------------------------------------
$molecule
0 1
 6	-0.2451814640	1.9055522360	-4.4761968901
 6	0.6078185360	1.8645522360	-2.0191968901
 6	0.0488185360	2.5205522360	-3.1671968901
 6	0.7098185360	2.8415522360	-0.9941968901
 6	-0.1491814640	3.8175522360	-2.8151968901
 6	1.5638185360	0.2705522360	-0.4821968901
 6	1.6418185360	1.2615522360	0.5078031099
 6	1.0458185360	0.5575522360	-1.7511968901
 6	1.2168185360	2.5535522360	0.2598031099
 7	0.2458185360	4.0195522360	-1.5151968901
 1	1.8898185360	-0.7304477640	-0.2541968901
 1	2.0468185360	1.0145522360	1.4788031099
 1	1.0008185360	-0.2024477640	-2.5161968901
 1	1.2758185360	3.3175522360	1.0188031099
 1	-1.0341814640	2.4715522360	-4.9751968901
 1	-0.6281814640	0.9025522360	-4.2891968901
 1	-0.5581814640	4.5835522360	-3.4681968901
 1	0.2258185360	4.9155522360	-1.0401968901
 1	0.6336276360	1.8370080360	-5.1342168901
$end
$rem
EDA2		1
METHOD		WB97X-V
BASIS		DEF2-TZVPD
XC_GRID		000099000590
NL_GRID		1
UNRESTRICTED		FALSE
MAX_SCF_CYCLES		200
SYMMETRY		FALSE
SYM_IGNORE		TRUE
BASIS_LIN_DEP_THRESH		6
THRESH		14
SCF_CONVERGENCE		8
SCF_PRINT_FRGM		TRUE
SOLVENT_METHOD		SMD
!required keywords
JOBTYPE		SP
SYM_IGNORE		TRUE
SUBSYSTEM		TRUE
GEN_SCFMAN		TRUE
CHILD_INSTRUCTION		2
SYM_IGNORE		TRUE
SCFMI		0
RI_K 0		
PARI_K 0		
MIN_PARI_K 0		
IARI_K 0		
OCC_RI_K 0		
PURECART		1111
MEM_STATIC		2000
MEM_TOTAL		2000
GUI		0
CHILD_MP		1
CHILD_MP_ORDERS		232
FRZ_RELAX		0
FRZ_RELAX_METHOD		0
EDA_CLS_ELEC		1
EDA_CLS_DISP		0
FRZ_ORTHO_DECOMP		1
EDA2		FALSE
FRGM_METHOD		FALSE
CIS_N_ROOTS  0
LOCAL_CIS    0
CIS_RLX_DNS  1
$end
$smx
SOLVENT			WATER
$end
--------------------------------------------------------------
 ----------------------------------------------------------------
             Standard Nuclear Orientation (Angstroms)
    I     Atom           X                Y                Z
 ----------------------------------------------------------------
    1      C      -0.2451814640     1.9055522360    -4.4761968901
    2      C       0.6078185360     1.8645522360    -2.0191968901
    3      C       0.0488185360     2.5205522360    -3.1671968901
    4      C       0.7098185360     2.8415522360    -0.9941968901
    5      C      -0.1491814640     3.8175522360    -2.8151968901
    6      C       1.5638185360     0.2705522360    -0.4821968901
    7      C       1.6418185360     1.2615522360     0.5078031099
    8      C       1.0458185360     0.5575522360    -1.7511968901
    9      C       1.2168185360     2.5535522360     0.2598031099
   10      N       0.2458185360     4.0195522360    -1.5151968901
   11      H       1.8898185360    -0.7304477640    -0.2541968901
   12      H       2.0468185360     1.0145522360     1.4788031099
   13      H       1.0008185360    -0.2024477640    -2.5161968901
   14      H       1.2758185360     3.3175522360     1.0188031099
   15      H      -1.0341814640     2.4715522360    -4.9751968901
   16      H      -0.6281814640     0.9025522360    -4.2891968901
   17      H      -0.5581814640     4.5835522360    -3.4681968901
   18      H       0.2258185360     4.9155522360    -1.0401968901
   19      H       0.6336276360     1.8370080360    -5.1342168901
 ----------------------------------------------------------------
 Nuclear Repulsion Energy =         485.66934070 hartrees
 There are       35 alpha and       35 beta electrons
 Requested basis set is def2-TZVPD
 There are 175 shells and 451 basis functions

 Total QAlloc Memory Limit   2000 MB
 Mega-Array Size      1956 MB
 MEM_STATIC part      2000 MB

 Citation of the SMD model:
 Marenich, A.V.; Cramer, C.J.; Truhlar, D.G.
 J. Phys. Chem. B 2009, 113, 6378-6396.
 iSolventCode=           1
 Solvent: water                                                           

 vradii
            1           2           3           4           5           6
    1   1.8500000   1.8500000   1.8500000   1.8500000   1.8500000   1.8500000
            7           8           9          10          11          12
    1   1.8500000   1.8500000   1.8500000   1.8900000   1.2000000   1.2000000
           13          14          15          16          17          18
    1   1.2000000   1.2000000   1.2000000   1.2000000   1.2000000   1.2000000
           19
    1   1.2000000
 Changing PCM_VDW_RADII to SMD_RADIUS
 Discretize the solute cavity surface with Lebedev spheres
	Using 110 Lebedev grid points for each H atom
	Using 194 Lebedev grid points for other atoms
	Atomic van der Waals radii will be scaled by 1.20
 Remove points where switching function is < 1.0e-08
 Keep 1372 surface tesserae and discard 1558 interior tesserae
 Molecular Surface Area = 164.296 Angst**2
 A cutoff of  1.0D-14 yielded  14472 shell pairs
 There are     98260 function pairs (    126436 Cartesian)
 Smallest overlap matrix eigenvalue = 5.08E-07
 Linear dependence detected in AO basis
 Tighter screening thresholds may be required for diffuse basis sets
 Use S2THRESH > 14 and THRESH = 14 in case of SCF convergence issues
 Number of orthogonalized atomic orbitals = 448
 Maximum deviation from orthogonality = 2.249E-10

 Scale SEOQF with 1.000000e-01/1.000000e-01/1.000000e-02

 Standard Electronic Orientation quadrupole field applied
 Nucleus-field energy     =     0.0000000302 hartrees
 Guess from superposition of atomic densities
 Warning:  Energy on first SCF cycle will be non-variational
 SAD guess density has 70.000000 electrons

 -----------------------------------------------------------------------
  General SCF calculation program by
  Eric Jon Sundstrom, Paul Horn, Yuezhi Mao, Dmitri Zuev, Alec White,
  David Stuck, Shaama M.S., Shane Yost, Joonho Lee, David Small,
  Daniel Levine, Susi Lehtola, Hugh Burton, Evgeny Epifanovsky,
  Bang C. Huynh
 -----------------------------------------------------------------------
 Exchange:     0.1670 Hartree-Fock + 1.0000 wB97X-V + LR-HF
 Correlation:  1.0000 wB97X-V
 Using Euler-Maclaurin-Lebedev (99,590) quadrature formula
 Nonlocal Correlation:  VV10 with C = 0.0100 and b = 6.00 and scale = 1.00000
 Grid used for NLC:  SG-1 standard quadrature
Energy prior to optimization (guess energy) = -403.080475943592
Begin Timing: Total SCF Calculation
begin iterations for algorithm: DIIS         
the SCF tolerance is set to 1.00e-08
    1    -403.0804759436      1.68e-03     00000 
    2    -403.1336516427      1.22e-03     00000 
    3    -403.1744197532      2.51e-04     00000 
    4    -403.1763122056      1.19e-04     00000 
    5    -403.1767693360      3.86e-05     00000 
    6    -403.1768168243      1.22e-05     00000 
    7    -403.1768212795      4.27e-06     00000 
    8    -403.1768221966      9.39e-07     00000 
    9    -403.1768222917      4.20e-07     00000 
   10    -403.1768223112      2.18e-07     00000 
   11    -403.1768223170      7.01e-08     00000 
   12    -403.1768223179      2.97e-08     00000 
   13    -403.1768223179      1.10e-08     00000 
   14    -403.1768223180      3.53e-09     00000 Convergence criterion met
Timing for Total SCF: 1526.00s (wall), 11102.16s (cpu)
(3)  G-ENP(liq) elect-nuc-pol free energy of system     -403.176822318 a.u.
(4)  G-CDS(liq) cavity-dispersion-solvent structure 
     free energy                                                3.7931 kcal/mol
(6)  G-S(liq) free energy of system                     -403.170777699 a.u.
E_pcm = -0.0162001015
E_cds = 0.0060446191
Multipole orders to be included
        2
        3
computing dipole RHS
computing quadrupole RHS
total number of RHS in solve_reponses: 8
RHS batch sizes
        8
Beginning Block Conjugate Gradient Iterations. Batch Number: 0
computing hessian-vector products by finite difference
              1      6.85e-01     00000 Conjugate Gradient Iteration
computing hessian-vector products by finite difference
              2      2.21e-01     00000 Conjugate Gradient Iteration
computing hessian-vector products by finite difference
              3      6.72e-02     00000 Conjugate Gradient Iteration
computing hessian-vector products by finite difference
              4      2.92e-02     00000 Conjugate Gradient Iteration
computing hessian-vector products by finite difference
              5      9.52e-03     00000 Conjugate Gradient Iteration
computing hessian-vector products by finite difference
              6      2.48e-03     00000 Conjugate Gradient Iteration
computing hessian-vector products by finite difference
              7      5.04e-04     00000 Conjugate Gradient Iteration
computing hessian-vector products by finite difference
              8      9.47e-05     00000 Conjugate Gradient Iteration
computing hessian-vector products by finite difference
              9      1.78e-05     00000 Conjugate Gradient Iteration
computing hessian-vector products by finite difference
             10      2.97e-06     00000 Conjugate Gradient Iteration
computing hessian-vector products by finite difference
             11      4.79e-07     00000 Conjugate Gradient Iteration
computing hessian-vector products by finite difference
             12      9.43e-08     00000 Conjugate Gradient Iteration
computing hessian-vector products by finite difference
             13      1.68e-08     00000 Conjugate Gradient Iteration
computing hessian-vector products by finite difference
             14      4.20e-09     00000 CG Converged
batch 0 complete
Done Calculating Responses
TESTING ORTHOGONALIZATION OF MULTIPOLE BASIS
Multipole virts passed orthogonality test
Virts Per Order
          105
          175

 --------------------------------------------------------------

                    Orbital Energies (a.u.)
 --------------------------------------------------------------

 Alpha MOs
 -- Occupied --
-14.4422 -10.2974 -10.2892 -10.2688 -10.2661 -10.2642 -10.2637 -10.2616
-10.2547 -10.2521  -1.1115  -0.9759  -0.9295  -0.8656  -0.8580  -0.8119
 -0.7418  -0.7102  -0.6718  -0.6455  -0.5951  -0.5788  -0.5526  -0.5460
 -0.5344  -0.5112  -0.5077  -0.4900  -0.4751  -0.4506  -0.4475  -0.4281
 -0.3758  -0.3139  -0.2883
 -- Virtual --
  0.0561   0.0645   0.0799   0.0824   0.0928   0.1023   0.1039   0.1109
  0.1322   0.1367   0.1402   0.1516   0.1611   0.1683   0.1784   0.1824
  0.1907   0.1985   0.2056   0.2121   0.2154   0.2251   0.2308   0.2496
  0.2531   0.2579   0.2644   0.2656   0.2700   0.2773   0.2800   0.2819
  0.2852   0.2889   0.2940   0.2947   0.3068   0.3136   0.3171   0.3243
  0.3326   0.3352   0.3387   0.3406   0.3458   0.3484   0.3527   0.3560
  0.3584   0.3663   0.3755   0.3812   0.3828   0.3908   0.3942   0.3987
  0.4038   0.4111   0.4147   0.4192   0.4224   0.4256   0.4309   0.4419
  0.4425   0.4535   0.4552   0.4572   0.4604   0.4656   0.4670   0.4760
  0.4864   0.4961   0.5001   0.5016   0.5046   0.5219   0.5246   0.5278
  0.5328   0.5399   0.5439   0.5506   0.5527   0.5561   0.5638   0.5673
  0.5722   0.5827   0.5882   0.5942   0.6087   0.6157   0.6159   0.6303
  0.6366   0.6448   0.6484   0.6519   0.6581   0.6715   0.6794   0.6874
  0.6918   0.6984   0.7037   0.7051   0.7137   0.7185   0.7260   0.7348
  0.7428   0.7500   0.7514   0.7606   0.7652   0.7723   0.7750   0.7803
  0.7837   0.7871   0.7912   0.7950   0.8031   0.8043   0.8138   0.8160
  0.8248   0.8334   0.8358   0.8407   0.8428   0.8532   0.8558   0.8664
  0.8697   0.8715   0.8823   0.8961   0.9051   0.9119   0.9188   0.9429
  0.9500   0.9528   0.9640   0.9895   0.9941   1.0127   1.0137   1.0203
  1.0407   1.0483   1.0570   1.0645   1.0772   1.0867   1.0958   1.0995
  1.1179   1.1348   1.1425   1.1539   1.1759   1.1872   1.2022   1.2196
  1.2417   1.2595   1.2681   1.2690   1.2997   1.3158   1.3445   1.3484
  1.3845   1.3998   1.4010   1.4168   1.4315   1.4486   1.4586   1.4752
  1.5186   1.5508   1.5635   1.5715   1.5849   1.6037   1.6176   1.6252
  1.6463   1.6631   1.6983   1.7033   1.7270   1.7336   1.7512   1.7714
  1.7935   1.8316   1.8510   1.8564   1.8671   1.8747   1.8845   1.8963
  1.9065   1.9223   1.9382   1.9448   1.9603   1.9734   1.9830   1.9915
  2.0015   2.0045   2.0060   2.0284   2.0374   2.0641   2.0671   2.0775
  2.0933   2.1260   2.1395   2.1764   2.1872   2.2017   2.2139   2.2307
  2.2632   2.2985   2.3069   2.3202   2.3358   2.3594   2.3706   2.3921
  2.4046   2.4316   2.4490   2.4617   2.4952   2.5113   2.5172   2.5475
  2.5696   2.5803   2.6050   2.6111   2.6283   2.6551   2.6655   2.6871
  2.6949   2.7292   2.7592   2.7631   2.7755   2.7892   2.7922   2.8080
  2.8225   2.8378   2.8530   2.8687   2.8844   2.8980   2.9069   2.9197
  2.9280   2.9444   2.9666   2.9748   2.9954   3.0099   3.0357   3.0409
  3.0483   3.0724   3.0881   3.1063   3.1280   3.1349   3.1540   3.1656
  3.1734   3.1964   3.2145   3.2264   3.2413   3.2532   3.2671   3.2742
  3.2907   3.3053   3.3096   3.3248   3.3563   3.3670   3.3844   3.3959
  3.4053   3.4177   3.4262   3.4450   3.4502   3.4581   3.4770   3.4852
  3.4961   3.5142   3.5202   3.5225   3.5281   3.5469   3.5579   3.5804
  3.5892   3.5999   3.6147   3.6360   3.6444   3.6635   3.6696   3.6749
  3.7109   3.7171   3.7212   3.7345   3.7603   3.7696   3.7844   3.7991
  3.8206   3.8647   3.8814   3.9201   3.9411   3.9577   3.9829   4.0358
  4.0514   4.0691   4.1219   4.1515   4.1883   4.2035   4.2236   4.2350
  4.2598   4.2745   4.2842   4.2987   4.3180   4.3498   4.3647   4.3697
  4.4082   4.4217   4.4414   4.4674   4.4868   4.5232   4.5629   4.6112
  4.6474   4.6544   4.6878   4.7548   4.7990   4.8243   4.8520   4.9338
  4.9443   4.9656   4.9843   4.9967   5.0164   5.0725   5.0796   5.1197
  5.1321   5.1589   5.2081   5.2265   5.2730   5.3906   5.4162   5.4593
  5.5095   5.5626   5.5988   5.6421   5.7191   5.8156   5.8324   5.9611
  5.9797   6.2838   6.3590  22.6751  22.7575  22.9317  22.9510  22.9753
 23.1963  23.2733  23.4995  23.7983  32.8452
 --------------------------------------------------------------

          Ground-State Mulliken Net Atomic Charges

     Atom                 Charge (a.u.)
  ----------------------------------------
      1 C                    -1.066315
      2 C                     0.351163
      3 C                     0.718923
      4 C                    -0.073818
      5 C                    -0.737121
      6 C                    -0.666984
      7 C                    -0.476831
      8 C                    -0.511109
      9 C                    -0.691527
     10 N                     0.130735
     11 H                     0.420932
     12 H                     0.405741
     13 H                     0.417344
     14 H                     0.419744
     15 H                     0.304510
     16 H                     0.288807
     17 H                     0.312889
     18 H                     0.217341
     19 H                     0.235574
  ----------------------------------------
  Sum of atomic charges =     0.000000

 -----------------------------------------------------------------
                    Cartesian Multipole Moments
 -----------------------------------------------------------------
    Charge (ESU x 10^10)
                 0.0000
    Dipole Moment (Debye)
         X      -0.7051      Y       2.9701      Z      -0.1489
       Tot       3.0563
    Quadrupole Moments (Debye-Ang)
        XX     -63.8329     XY      -3.0418     YY     -34.1511
        XZ       4.3275     YZ      -2.8420     ZZ     -53.2396
    Octopole Moments (Debye-Ang^2)
       XXX    -128.9790    XXY    -137.8122    XYY     -44.7417
       YYY    -233.5765    XXZ     109.7341    XYZ      13.8610
       YYZ      72.0627    XZZ     -44.8665    YZZ    -107.2279
       ZZZ     277.8802
    Hexadecapole Moments (Debye-Ang^3)
      XXXX    -441.5689   XXXY    -174.6081   XXYY    -467.6446
      XYYY    -174.8096   YYYY   -1457.3144   XXXZ      37.6166
      XXYZ     253.9735   XYYZ      58.8276   YYYZ     535.8930
      XXZZ    -405.9361   XYZZ     -87.8014   YYZZ    -608.4441
      XZZZ      52.0052   YZZZ     634.8217   ZZZZ   -1904.1085
 -----------------------------------------------------------------
Archival summary:
1\1\compute-0-10.local\SP\ProcedureUnspecified\BasisUnspecified\199\meili\WedSep2914:32:272021WedSep2914:32:272021\0\\#,ProcedureUnspecified,BasisUnspecified,\\0,1\C\C,1,1.40425\H,2,1.07928,1,120.473\C,2,1.40038,1,118.625,3,178.799,0\H,4,1.07715,2,119.618,1,179.025,0\C,4,1.40295,2,121.014,1,0.253751,0\H,6,1.08068,4,119.566,2,-179.928,0\C,6,1.38253,4,121.094,2,-0.353877,0\H,8,1.07854,6,121.26,4,-179.982,0\C,8,1.38293,6,118.032,4,0.0838303,0\N,10,1.36909,8,130.428,6,-178.743,0\H,11,1.01432,10,126.053,8,1.83796,0\C,11,1.37362,10,109.334,8,179.562,0\H,13,1.08648,11,124.986,10,-179.997,0\C,13,1.35842,11,110.104,10,-0.136732,0\C,15,1.47585,13,126.774,11,-179.88,0\H,16,1.0898,15,107.538,13,-142.096,0\H,16,1.09173,15,109.471,13,-25.5316,0\H,16,1.1,15,113.415,13,97.2728,0\\\@

 Total job time:  28037.10s(wall), 205122.17s(cpu) 
 Wed Sep 29 14:32:27 2021

        *************************************************************
        *                                                           *
        *  Thank you very much for using Q-Chem.  Have a nice day.  *
        *                                                           *
        *************************************************************


Done Job For Fragment 0
calling putenv with: QCSCRATCH=/home/meili/scratch 
calling putenv with: QCTHREADS=8 
Creating input file /home/meili/scratch/qchem38564/Frg2.input
using default PutDataFrgm: nothing
calling putenv with: QCSCRATCH=/home/meili/scratch/qchem38564/ 
Spawning Job For Fragment 1
                  Welcome to Q-Chem
     A Quantum Leap Into The Future Of Chemistry


 Q-Chem 5.2 (devel), Q-Chem, Inc., Pleasanton, CA (2019)

 Yihan Shao,  Zhengting Gan,  E. Epifanovsky,  A. T. B. Gilbert,  M. Wormit,  
 J. Kussmann,  A. W. Lange,  A. Behn,  Jia Deng,  Xintian Feng,  D. Ghosh,  
 M. Goldey,  P. R. Horn,  L. D. Jacobson,  I. Kaliman,  T. Kus,  A. Landau,  
 Jie Liu,  E. I. Proynov,  R. M. Richard,  R. P. Steele,  E. J. Sundstrom,  
 H. L. Woodcock III,  P. M. Zimmerman,  D. Zuev,  B. Albrecht,  E. Alguire,  
 S. A. Baeppler,  D. Barton,  Z. Benda,  Y. A. Bernard,  E. J. Berquist,  
 K. B. Bravaya,  H. Burton,  D. Casanova,  Chun-Min Chang,  Yunqing Chen,  
 A. Chien,  K. D. Closser,  M. P. Coons,  S. Coriani,  S. Dasgupta,  
 A. L. Dempwolff,  M. Diedenhofen,  Hainam Do,  R. G. Edgar,  Po-Tung Fang,  
 S. Faraji,  S. Fatehi,  Qingguo Feng,  K. D. Fenk,  J. Fosso-Tande,  
 J. Gayvert,  Qinghui Ge,  A. Ghysels,  G. Gidofalvi,  J. Gomes,  
 J. Gonthier,  A. Gunina,  D. Hait,  M. W. D. Hanson-Heine,  
 P. H. P. Harbach,  A. W. Hauser,  M. F. Herbst,  J. E. Herr,  
 E. G. Hohenstein,  Z. C. Holden,  Kerwin Hui,  B. C. Huynh,  T.-C. Jagau,  
 Hyunjun Ji,  B. Kaduk,  K. Khistyaev,  Jaehoon Kim,  P. Klunzinger,  K. Koh,  
 D. Kosenkov,  L. Koulias,  T. Kowalczyk,  C. M. Krauter,  A. Kunitsa,  
 Ka Un Lao,  A. Laurent,  K. V. Lawler,  Joonho Lee,  D. Lefrancois,  
 S. Lehtola,  D. S. Levine,  Yi-Pei Li,  You-Sheng Lin,  Fenglai Liu,  
 E. Livshits,  A. Luenser,  P. Manohar,  E. Mansoor,  S. F. Manzer,  
 Shan-Ping Mao,  Yuezhi Mao,  N. Mardirossian,  A. V. Marenich,  
 T. Markovich,  L. A. Martinez-Martinez,  S. A. Maurer,  N. J. Mayhall,  
 S. C. McKenzie,  J.-M. Mewes,  P. Morgante,  A. F. Morrison,  
 J. W. Mullinax,  K. Nanda,  T. S. Nguyen-Beck,  R. Olivares-Amaya,  
 J. A. Parkhill,  Zheng Pei,  T. M. Perrine,  F. Plasser,  P. Pokhilko,  
 S. Prager,  A. Prociuk,  E. Ramos,  D. R. Rehn,  F. Rob,  M. Scheurer,  
 M. Schneider,  N. Sergueev,  S. M. Sharada,  S. Sharma,  D. W. Small,  
 T. Stauch,  T. Stein,  Yu-Chuan Su,  A. J. W. Thom,  A. Tkatchenko,  
 T. Tsuchimochi,  N. M. Tubman,  L. Vogt,  M. L. Vidal,  O. Vydrov,  
 M. A. Watson,  J. Wenzel,  M. de Wergifosse,  T. A. Wesolowski,  A. White,  
 J. Witte,  A. Yamada,  Jun Yang,  K. Yao,  S. Yeganeh,  S. R. Yost,  
 Zhi-Qiang You,  A. Zech,  Igor Ying Zhang,  Xing Zhang,  Yan Zhao,  
 Ying Zhu,  B. R. Brooks,  G. K. L. Chan,  C. J. Cramer,  M. S. Gordon,  
 W. J. Hehre,  A. Klamt,  M. W. Schmidt,  C. D. Sherrill,  D. G. Truhlar,  
 A. Aspuru-Guzik,  R. Baer,  A. T. Bell,  N. A. Besley,  Jeng-Da Chai,  
 A. E. DePrince, III,  R. A. DiStasio Jr.,  A. Dreuw,  B. D. Dunietz,  
 T. R. Furlani,  Chao-Ping Hsu,  Yousung Jung,  Jing Kong,  D. S. Lambrecht,  
 WanZhen Liang,  C. Ochsenfeld,  V. A. Rassolov,  L. V. Slipchenko,  
 J. E. Subotnik,  T. Van Voorhis,  J. M. Herbert,  A. I. Krylov,  
 P. M. W. Gill,  M. Head-Gordon

 Contributors to earlier versions of Q-Chem not listed above: 
 R. D. Adamson,  B. Austin,  J. Baker,  G. J. O. Beran,  K. Brandhorst,  
 S. T. Brown,  E. F. C. Byrd,  A. K. Chakraborty,  C.-L. Cheng,  
 Siu Hung Chien,  D. M. Chipman,  D. L. Crittenden,  H. Dachsel,  
 R. J. Doerksen,  A. D. Dutoi,  L. Fusti-Molnar,  W. A. Goddard III,  
 A. Golubeva-Zadorozhnaya,  S. R. Gwaltney,  G. Hawkins,  A. Heyden,  
 S. Hirata,  G. Kedziora,  F. J. Keil,  C. Kelley,  Jihan Kim,  R. A. King,  
 R. Z. Khaliullin,  P. P. Korambath,  W. Kurlancheek,  A. M. Lee,  M. S. Lee,  
 S. V. Levchenko,  Ching Yeh Lin,  D. Liotard,  R. C. Lochan,  I. Lotan,  
 P. E. Maslen,  N. Nair,  D. P. O'Neill,  D. Neuhauser,  E. Neuscamman,  
 C. M. Oana,  R. Olson,  B. Peters,  R. Peverati,  P. A. Pieniazek,  
 Y. M. Rhee,  J. Ritchie,  M. A. Rohrdanz,  E. Rosta,  N. J. Russ,  
 H. F. Schaefer III,  N. E. Schultz,  N. Shenvi,  A. C. Simmonett,  A. Sodt,  
 D. Stuck,  K. S. Thanthiriwatte,  V. Vanovschi,  Tao Wang,  A. Warshel,  
 C. F. Williams,  Q. Wu,  X. Xu,  W. Zhang

 Please cite Q-Chem as follows:
 Y. Shao et al., Mol. Phys. 113, 184-215 (2015)
 DOI: 10.1080/00268976.2014.952696

 Q-Chem 5.2.1 for Intel X86 EM64T Linux

 Parts of Q-Chem use Armadillo 8.300.2 (Tropical Shenanigans).
 http://arma.sourceforge.net/

 Q-Chem begins on Wed Sep 29 14:32:28 2021  

compute-0-10.local
Host: 0

     Scratch files written to /home/meili/scratch/qchem38564//Frg2//
NAlpha2: 58
NElect   58
Mult     1
Symmetry turned off for PCM/SM12/SMD calculation

Checking the input file for inconsistencies... 	...done.

--------------------------------------------------------------
User input:
--------------------------------------------------------------
$molecule
0 1
 6	0.8888185360	-2.2724477640	4.4168031099
 6	-0.9341814640	-1.5854477640	1.1338031099
 6	-1.5821814640	-2.8014477640	0.9168031099
 6	-0.1341814640	-1.4194477640	2.2708031099
 6	0.0448185360	-2.4644477640	3.1798031099
 6	-1.4141814640	-3.8504477640	1.8208031099
 6	-0.6151814640	-3.6724477640	2.9498031099
 8	-2.3741814640	-2.9794477640	-0.1791968901
 1	-1.0611814640	-0.7764477640	0.4288031099
 1	0.3598185360	-0.4724477640	2.4348031099
 1	-1.8851814640	-4.8034477640	1.6398031099
 1	-2.8051814640	-3.8404477640	-0.1811968901
 1	0.3828185360	-2.7744477640	5.2378031099
 1	0.9438185360	-1.2164477640	4.6638031099
 1	-0.5141814640	-4.4874477640	3.6528031099
 1	1.9134418360	-2.6674747640	4.3527631099
$end
$rem
EDA2		1
METHOD		WB97X-V
BASIS		DEF2-TZVPD
XC_GRID		000099000590
NL_GRID		1
UNRESTRICTED		FALSE
MAX_SCF_CYCLES		200
SYMMETRY		FALSE
SYM_IGNORE		TRUE
BASIS_LIN_DEP_THRESH		6
THRESH		14
SCF_CONVERGENCE		8
SCF_PRINT_FRGM		TRUE
SOLVENT_METHOD		SMD
!required keywords
JOBTYPE		SP
SYM_IGNORE		TRUE
SUBSYSTEM		TRUE
GEN_SCFMAN		TRUE
CHILD_INSTRUCTION		2
SYM_IGNORE		TRUE
SCFMI		0
RI_K 0		
PARI_K 0		
MIN_PARI_K 0		
IARI_K 0		
OCC_RI_K 0		
PURECART		1111
MEM_STATIC		2000
MEM_TOTAL		2000
GUI		0
CHILD_MP		1
CHILD_MP_ORDERS		232
FRZ_RELAX		0
FRZ_RELAX_METHOD		0
EDA_CLS_ELEC		1
EDA_CLS_DISP		0
FRZ_ORTHO_DECOMP		1
EDA2		FALSE
FRGM_METHOD		FALSE
CIS_N_ROOTS  0
LOCAL_CIS    0
CIS_RLX_DNS  1
$end
$smx
SOLVENT			WATER
$end
--------------------------------------------------------------
 ----------------------------------------------------------------
             Standard Nuclear Orientation (Angstroms)
    I     Atom           X                Y                Z
 ----------------------------------------------------------------
    1      C       0.8888185360    -2.2724477640     4.4168031099
    2      C      -0.9341814640    -1.5854477640     1.1338031099
    3      C      -1.5821814640    -2.8014477640     0.9168031099
    4      C      -0.1341814640    -1.4194477640     2.2708031099
    5      C       0.0448185360    -2.4644477640     3.1798031099
    6      C      -1.4141814640    -3.8504477640     1.8208031099
    7      C      -0.6151814640    -3.6724477640     2.9498031099
    8      O      -2.3741814640    -2.9794477640    -0.1791968901
    9      H      -1.0611814640    -0.7764477640     0.4288031099
   10      H       0.3598185360    -0.4724477640     2.4348031099
   11      H      -1.8851814640    -4.8034477640     1.6398031099
   12      H      -2.8051814640    -3.8404477640    -0.1811968901
   13      H       0.3828185360    -2.7744477640     5.2378031099
   14      H       0.9438185360    -1.2164477640     4.6638031099
   15      H      -0.5141814640    -4.4874477640     3.6528031099
   16      H       1.9134418360    -2.6674747640     4.3527631099
 ----------------------------------------------------------------
 Nuclear Repulsion Energy =         342.53115869 hartrees
 There are       29 alpha and       29 beta electrons
 Requested basis set is def2-TZVPD
 There are 145 shells and 371 basis functions

 Total QAlloc Memory Limit   2000 MB
 Mega-Array Size      1956 MB
 MEM_STATIC part      2000 MB

 Citation of the SMD model:
 Marenich, A.V.; Cramer, C.J.; Truhlar, D.G.
 J. Phys. Chem. B 2009, 113, 6378-6396.
 iSolventCode=           1
 Solvent: water                                                           

 vradii
            1           2           3           4           5           6
    1   1.8500000   1.8500000   1.8500000   1.8500000   1.8500000   1.8500000
            7           8           9          10          11          12
    1   1.8500000   1.5200000   1.2000000   1.2000000   1.2000000   1.2000000
           13          14          15          16
    1   1.2000000   1.2000000   1.2000000   1.2000000
 Changing PCM_VDW_RADII to SMD_RADIUS
 Discretize the solute cavity surface with Lebedev spheres
	Using 110 Lebedev grid points for each H atom
	Using 194 Lebedev grid points for other atoms
	Atomic van der Waals radii will be scaled by 1.20
 Remove points where switching function is < 1.0e-08
 Keep 1189 surface tesserae and discard 1243 interior tesserae
 Molecular Surface Area = 141.692 Angst**2
 A cutoff of  1.0D-14 yielded  10043 shell pairs
 There are     67085 function pairs (     85784 Cartesian)
 Smallest overlap matrix eigenvalue = 5.81E-07
 Linear dependence detected in AO basis
 Tighter screening thresholds may be required for diffuse basis sets
 Use S2THRESH > 14 and THRESH = 14 in case of SCF convergence issues
 Number of orthogonalized atomic orbitals = 370
 Maximum deviation from orthogonality = 2.059E-10

 Scale SEOQF with 1.000000e-01/1.000000e-01/1.000000e-02

 Standard Electronic Orientation quadrupole field applied
 Nucleus-field energy     =     0.0000000322 hartrees
 Guess from superposition of atomic densities
 Warning:  Energy on first SCF cycle will be non-variational
 SAD guess density has 58.000000 electrons

 -----------------------------------------------------------------------
  General SCF calculation program by
  Eric Jon Sundstrom, Paul Horn, Yuezhi Mao, Dmitri Zuev, Alec White,
  David Stuck, Shaama M.S., Shane Yost, Joonho Lee, David Small,
  Daniel Levine, Susi Lehtola, Hugh Burton, Evgeny Epifanovsky,
  Bang C. Huynh
 -----------------------------------------------------------------------
 Exchange:     0.1670 Hartree-Fock + 1.0000 wB97X-V + LR-HF
 Correlation:  1.0000 wB97X-V
 Using Euler-Maclaurin-Lebedev (99,590) quadrature formula
 Nonlocal Correlation:  VV10 with C = 0.0100 and b = 6.00 and scale = 1.00000
 Grid used for NLC:  SG-1 standard quadrature
Energy prior to optimization (guess energy) = -346.732485286154
Begin Timing: Total SCF Calculation
begin iterations for algorithm: DIIS         
the SCF tolerance is set to 1.00e-08
    1    -346.7324852862      2.19e-03     00000 
    2    -346.7837835380      1.73e-03     00000 
    3    -346.8235891569      3.10e-04     00000 
    4    -346.8254312304      1.33e-04     00000 
    5    -346.8258452405      3.87e-05     00000 
    6    -346.8258785823      1.25e-05     00000 
    7    -346.8258822330      5.57e-06     00000 
    8    -346.8258829964      1.24e-06     00000 
    9    -346.8258830783      5.38e-07     00000 
   10    -346.8258830933      2.68e-07     00000 
   11    -346.8258830974      7.13e-08     00000 
   12    -346.8258830979      2.75e-08     00000 
   13    -346.8258830979      1.06e-08     00000 
   14    -346.8258830979      3.15e-09     00000 Convergence criterion met
Timing for Total SCF: 822.00s (wall), 5891.47s (cpu)
(3)  G-ENP(liq) elect-nuc-pol free energy of system     -346.825883098 a.u.
(4)  G-CDS(liq) cavity-dispersion-solvent structure 
     free energy                                                3.7946 kcal/mol
(6)  G-S(liq) free energy of system                     -346.819836087 a.u.
E_pcm = -0.0174565656
E_cds = 0.0060470105
Multipole orders to be included
        2
        3
computing dipole RHS
computing quadrupole RHS
total number of RHS in solve_reponses: 8
RHS batch sizes
        8
Beginning Block Conjugate Gradient Iterations. Batch Number: 0
computing hessian-vector products by finite difference
              1      6.30e-01     00000 Conjugate Gradient Iteration
computing hessian-vector products by finite difference
              2      1.96e-01     00000 Conjugate Gradient Iteration
computing hessian-vector products by finite difference
              3      5.23e-02     00000 Conjugate Gradient Iteration
computing hessian-vector products by finite difference
              4      1.70e-02     00000 Conjugate Gradient Iteration
computing hessian-vector products by finite difference
              5      4.81e-03     00000 Conjugate Gradient Iteration
computing hessian-vector products by finite difference
              6      1.89e-03     00000 Conjugate Gradient Iteration
computing hessian-vector products by finite difference
              7      4.46e-04     00000 Conjugate Gradient Iteration
computing hessian-vector products by finite difference
              8      8.91e-05     00000 Conjugate Gradient Iteration
computing hessian-vector products by finite difference
              9      1.70e-05     00000 Conjugate Gradient Iteration
computing hessian-vector products by finite difference
             10      2.54e-06     00000 Conjugate Gradient Iteration
computing hessian-vector products by finite difference
             11      3.39e-07     00000 Conjugate Gradient Iteration
computing hessian-vector products by finite difference
             12      5.83e-08     00000 Conjugate Gradient Iteration
computing hessian-vector products by finite difference
             13      9.66e-09     00000 CG Converged
batch 0 complete
Done Calculating Responses
TESTING ORTHOGONALIZATION OF MULTIPOLE BASIS
Multipole virts passed orthogonality test
Virts Per Order
           87
          145

 --------------------------------------------------------------

                    Orbital Energies (a.u.)
 --------------------------------------------------------------

 Alpha MOs
 -- Occupied --
-19.2399 -10.3320 -10.2722 -10.2700 -10.2687 -10.2677 -10.2661 -10.2522
 -1.1896  -0.9897  -0.8956  -0.8780  -0.8044  -0.7419  -0.7091  -0.6600
 -0.5973  -0.5744  -0.5447  -0.5352  -0.5266  -0.5153  -0.5059  -0.4706
 -0.4503  -0.4398  -0.4339  -0.3486  -0.3099
 -- Virtual --
  0.0628   0.0637   0.0744   0.0815   0.0889   0.0995   0.1143   0.1159
  0.1184   0.1368   0.1509   0.1553   0.1642   0.1780   0.1801   0.1979
  0.2071   0.2093   0.2195   0.2287   0.2424   0.2472   0.2563   0.2590
  0.2648   0.2740   0.2774   0.2837   0.2863   0.2993   0.3015   0.3084
  0.3103   0.3127   0.3173   0.3304   0.3378   0.3458   0.3497   0.3530
  0.3583   0.3621   0.3669   0.3789   0.3810   0.3841   0.3867   0.3964
  0.4003   0.4021   0.4039   0.4116   0.4190   0.4233   0.4298   0.4377
  0.4417   0.4537   0.4597   0.4652   0.4767   0.4771   0.4814   0.4885
  0.4904   0.4957   0.5038   0.5077   0.5180   0.5194   0.5296   0.5437
  0.5463   0.5510   0.5525   0.5577   0.5678   0.5717   0.5885   0.5982
  0.6083   0.6094   0.6224   0.6367   0.6445   0.6605   0.6652   0.6779
  0.6824   0.6855   0.6879   0.6949   0.7051   0.7064   0.7244   0.7323
  0.7341   0.7453   0.7510   0.7545   0.7634   0.7749   0.7845   0.7883
  0.7928   0.7955   0.8013   0.8024   0.8109   0.8209   0.8325   0.8412
  0.8428   0.8518   0.8560   0.8587   0.8693   0.8802   0.8855   0.8978
  0.9089   0.9136   0.9322   0.9497   0.9655   0.9807   0.9916   1.0182
  1.0257   1.0384   1.0432   1.0516   1.0595   1.0749   1.0787   1.0926
  1.1028   1.1220   1.1387   1.1772   1.1967   1.2392   1.2728   1.3015
  1.3117   1.3134   1.3350   1.3575   1.3709   1.3866   1.3959   1.4383
  1.4601   1.4703   1.4803   1.4901   1.5345   1.5665   1.6091   1.6250
  1.6317   1.6344   1.6881   1.6974   1.7076   1.7308   1.7887   1.8100
  1.8177   1.8347   1.8364   1.8675   1.8789   1.8833   1.9245   1.9261
  1.9460   1.9529   1.9742   1.9872   2.0086   2.0332   2.0414   2.0564
  2.0610   2.0824   2.0956   2.1106   2.1248   2.1597   2.2025   2.2066
  2.2228   2.2407   2.2762   2.2896   2.3048   2.3253   2.3464   2.3734
  2.3999   2.4063   2.4313   2.4702   2.4961   2.5011   2.5291   2.5574
  2.5792   2.5996   2.6364   2.6476   2.6583   2.6755   2.6910   2.7508
  2.7593   2.7624   2.7804   2.7988   2.8217   2.8338   2.8717   2.8785
  2.9127   2.9226   2.9409   2.9548   2.9683   2.9770   2.9804   3.0096
  3.0215   3.0488   3.0765   3.0812   3.1023   3.1265   3.1507   3.1666
  3.1939   3.2095   3.2162   3.2307   3.2523   3.2594   3.2862   3.2962
  3.3245   3.3444   3.3825   3.3932   3.3979   3.4170   3.4567   3.4601
  3.4680   3.4752   3.4946   3.5142   3.5255   3.5284   3.5426   3.5470
  3.5551   3.5733   3.5882   3.5940   3.6036   3.6276   3.6479   3.6629
  3.6901   3.7092   3.7406   3.7621   3.8060   3.8247   3.8454   3.8934
  3.9283   3.9591   3.9786   3.9996   4.0400   4.0846   4.1376   4.1644
  4.2503   4.2758   4.2883   4.3144   4.3229   4.3328   4.3468   4.3624
  4.3764   4.3872   4.4338   4.4540   4.4926   4.5343   4.5883   4.6324
  4.7227   4.7312   4.7879   4.8151   4.8806   4.9223   5.0255   5.0584
  5.0934   5.1266   5.1624   5.3009   5.3284   5.3963   5.4460   5.5358
  5.6157   5.6474   5.7096   5.7677   5.9469   6.2136   6.4869   6.5955
  6.6371   6.8752   7.0119   7.3046   7.4569  22.6704  22.6824  22.9361
 22.9829  23.0269  23.1754  23.4950  44.4206
 --------------------------------------------------------------

          Ground-State Mulliken Net Atomic Charges

     Atom                 Charge (a.u.)
  ----------------------------------------
      1 C                    -1.091543
      2 C                    -0.803283
      3 C                     0.659070
      4 C                    -0.468753
      5 C                     0.534231
      6 C                    -0.387098
      7 C                    -0.612035
      8 O                    -0.542464
      9 H                     0.399467
     10 H                     0.383501
     11 H                     0.369859
     12 H                     0.327775
     13 H                     0.289155
     14 H                     0.305801
     15 H                     0.389315
     16 H                     0.247002
  ----------------------------------------
  Sum of atomic charges =     0.000000

 -----------------------------------------------------------------
                    Cartesian Multipole Moments
 -----------------------------------------------------------------
    Charge (ESU x 10^10)
                 0.0000
    Dipole Moment (Debye)
         X      -0.1566      Y      -1.7139      Z       1.1391
       Tot       2.0639
    Quadrupole Moments (Debye-Ang)
        XX     -46.5940     XY       8.1102     YY     -31.2921
        XZ       2.0340     YZ      -4.2731     ZZ     -44.0637
    Octopole Moments (Debye-Ang^2)
       XXX      96.6914    XXY     102.0261    XYY     -19.3467
       YYY     278.3218    XXZ    -105.8970    XYZ      -0.0071
       YYZ     -78.6210    XZZ      46.6289    YZZ     109.2481
       ZZZ    -285.5785
    Hexadecapole Moments (Debye-Ang^3)
      XXXX    -484.4658   XXXY    -257.7057   XXYY    -320.7915
      XYYY     -43.4033   YYYY   -1773.6496   XXXZ      33.4002
      XXYZ     270.7394   XYYZ      -7.6418   YYYZ     670.6285
      XXZZ    -434.1763   XYZZ    -125.8804   YYZZ    -620.4340
      XZZZ      55.3246   YZZZ     708.6732   ZZZZ   -1886.8580
 -----------------------------------------------------------------
Archival summary:
1\1\compute-0-10.local\SP\ProcedureUnspecified\BasisUnspecified\178\meili\WedSep2918:34:172021WedSep2918:34:172021\0\\#,ProcedureUnspecified,BasisUnspecified,\\0,1\C\O,1,1.36388\H,2,0.962853,1,112.229\C,1,1.39487,2,120.568,3,-176.365,0\H,4,1.08057,1,119.774,2,0.0829407,0\C,1,1.39493,2,119.509,3,4.08946,0\H,6,1.07834,1,120.213,2,1.68368,0\C,6,1.39453,1,119.847,2,-179.45,0\H,8,1.08103,6,118.933,1,178.554,0\C,8,1.39562,6,120.988,1,-1.27139,0\C,10,1.39655,8,118.672,6,1.48159,0\H,11,1.08062,10,119.892,8,179.408,0\C,10,1.50976,8,120.629,6,178.946,0\H,13,1.0859,10,109.777,8,-154.489,0\H,13,1.08724,10,107.446,8,-37.8683,0\H,13,1.1,10,115.3,8,82.7888,0\\\@

 Total job time:  14509.55s(wall), 104221.68s(cpu) 
 Wed Sep 29 18:34:17 2021

        *************************************************************
        *                                                           *
        *  Thank you very much for using Q-Chem.  Have a nice day.  *
        *                                                           *
        *************************************************************


Done Job For Fragment 1
calling putenv with: QCSCRATCH=/home/meili/scratch 
calling putenv with: QCTHREADS=8 
Doing General SCFMI
 Exchange:     0.1670 Hartree-Fock + 1.0000 wB97X-V + LR-HF
 Correlation:  1.0000 wB97X-V
 Using Euler-Maclaurin-Lebedev (99,590) quadrature formula
 Nonlocal Correlation:  VV10 with C = 0.0100 and b = 6.00 and scale = 1.00000
 Grid used for NLC:  SG-1 standard quadrature
performing fock build before subrot guess so that all methods have access
Printing subrot_rss_gen Method Specification:
Occupied Subspace Method is 0
Virtual Subspace Method is 0
Energy of the unrelaxed supersystem initial determinant -749.971002529678
performing fock build before subrot guess so that all methods have access
Printing subrot_rss_gen Method Specification:
Occupied Subspace Method is 0
Virtual Subspace Method is 0
Energy of the unrelaxed supersystem initial determinant w/ solvent -750.004167924825
write pseudocanon occs and virts to disk
write pseudocanon orbital energies to disk
Tolerance of ortho_decomp_scf: 1.00e-06
GDM subspace size: 20
Beginning the Orthogonal Decomposition of the Initial Supersystem Wavefunction
    1    -749.9538851027      1.48e-02     ortho_decomp Preconditoned Steepest Descent
    2    -749.9554849472      3.77e-04     ortho_decomp BFGS Step
    3    -749.9554901910      2.97e-05     ortho_decomp BFGS Step
    4    -749.9554902023      1.30e-06     ortho_decomp BFGS Step
    5    -749.9554902023      4.71e-08     ortho_decomp 00000 Convergence criterion met
 Hartree-Fock
 Hartree-Fock
 Hartree-Fock
Doing General SCFMI
 Exchange:     0.1670 Hartree-Fock + 1.0000 wB97X-V + LR-HF
 Correlation:  1.0000 wB97X-V
 Using Euler-Maclaurin-Lebedev (99,590) quadrature formula
 Nonlocal Correlation:  VV10 with C = 0.0100 and b = 6.00 and scale = 1.00000
 Grid used for NLC:  SG-1 standard quadrature
performing fock build at end of subrot_r(subrot) constructor so that all methods have access
<S^2> of initial wavefunction before polarization iterations 0.0000000000
Beginning iterations for the determination of the polarized wavefunction
Energy prior to optimization (guess energy) = -750.004167924825
Begin Timing: Total SCF Calculation
begin iterations for algorithm: DIIS         
the SCF tolerance is set to 1.00e-08
    1    -750.0041679248      2.83e-05     00000 
    2    -750.0042889352      1.39e-05     00000 
    3    -750.0043074298      6.69e-06     00000 
    4    -750.0043132508      1.89e-06     00000 
    5    -750.0043138527      9.68e-07     00000 
    6    -750.0043139899      3.66e-07     00000 
    7    -750.0043140041      1.57e-07     00000 
    8    -750.0043140068      5.59e-08     00000 
    9    -750.0043140071      2.24e-08     00000 
   10    -750.0043140072      9.60e-09     00000 Convergence criterion met
write pseudocanon occs and virts to disk
write pseudocanon orbital energies to disk
Timing for Total SCF: 6101.00s (wall), 41493.87s (cpu)
<S^2> of polarized wavefunction after polarization iterations 0.0000000000
relaxing scfmi constraint to allow all rotations in the entire AO span
Doing General SCFMI
 Exchange:     0.1670 Hartree-Fock + 1.0000 wB97X-V + LR-HF
 Correlation:  1.0000 wB97X-V
 Using Euler-Maclaurin-Lebedev (99,590) quadrature formula
 Nonlocal Correlation:  VV10 with C = 0.0100 and b = 6.00 and scale = 1.00000
 Grid used for NLC:  SG-1 standard quadrature
performing fock build at end of subrot_r(subrot) constructor so that all methods have access
<S^2> of polarized wavefunction before ct-allowed iterations 0.0000000000
Beginning iterations for the determination of the CT-Allowed wavefunction
Energy prior to optimization (guess energy) = -750.004314007170
Begin Timing: Total SCF Calculation
begin iterations for algorithm: DIIS         
the SCF tolerance is set to 1.00e-08
    1    -750.0043140072      4.34e-05     00000 
    2    -750.0049733378      4.52e-06     00000 
    3    -750.0049947726      7.60e-07     00000 
    4    -750.0049955918      2.14e-07     00000 
    5    -750.0049956193      1.24e-07     00000 
    6    -750.0049956272      2.62e-08     00000 
    7    -750.0049956277      1.25e-08     00000 
    8    -750.0049956278      4.13e-09     00000 Convergence criterion met
write pseudocanon occs and virts to disk
write pseudocanon orbital energies to disk
Timing for Total SCF: 4914.00s (wall), 33144.24s (cpu)
<S^2> of ct_allowed wavefunction after ct-allowed iterations 0.0000000000

================================
        Results of EDA2         
================================
Basic EDA Quantities
--------------------
Fragment Energies (Ha):
1 -403.1707776989
2 -346.8198360874
--------------------
  E_prp (kJ/mol) = 0.0000
  E_sol (kJ/mol) = -0.6487
  E_frz (kJ/mol) = -5.1297
  E_pol (kJ/mol) = -0.3835
  E_vct (kJ/mol) = -1.7896
  E_int (kJ/mol) = -7.9515
--------------------


Initial Wavefunction Decomposition
--------------------
  --------------------
  Orthogonal Fragment Subspace Decomposition:
  --------------------
     E_elec   (ELEC)   (kJ/mol) = -17.5113
     E_pauli  (PAULI)  (kJ/mol) = 27.6597
     E_disp   (DISP)   (kJ/mol) = -15.2781
     --------------------
     Terms summing to E_pauli:
     --------------------
        E_kep_pauli       (kJ/mol) = 35.5984
        E_disp_free_pauli (kJ/mol) = -7.9386
  --------------------
  Classical Frozen Decomposition:
  --------------------
     E_cls_elec  (CLS ELEC)  (kJ/mol) = -6.2319
     E_cls_pauli (CLS PAULI) (kJ/mol) = 1.1022
    [E_mod_pauli (MOD PAULI) (kJ/mol) = 16.3803 (CLS PAULI - DISP from orthogonal decomposition) ]
  --------------------
--------------------

Simplified EDA Summary (kJ/mol)
--------------------
 PREPARATION     0.0000
 SOLVATION       -0.6487
 FROZEN          10.1484      (does not include dispersion)
[PAULI           27.6597]     (if this is negligible, then frozen describes electrostatics)
 DISPERSION      -15.2781
 POLARIZATION    -0.3835
 CHARGE TRANSFER -1.7896
 TOTAL           -7.9515     (PRP + SOL + FRZ + DISP + POL + CT)
--------------------

 --------------------------------------------------------------

                    Orbital Energies (a.u.)
 --------------------------------------------------------------

 Alpha MOs
 -- Occupied --
-19.2396 -14.4421 -10.3315 -10.2971 -10.2890 -10.2718 -10.2689 -10.2683
-10.2682 -10.2668 -10.2660 -10.2657 -10.2637 -10.2635 -10.2610 -10.2545
-10.2520 -10.2520  -1.1894  -1.1113  -0.9892  -0.9756  -0.9293  -0.8952
 -0.8777  -0.8653  -0.8578  -0.8117  -0.8041  -0.7423  -0.7408  -0.7101
 -0.7086  -0.6717  -0.6597  -0.6453  -0.5971  -0.5950  -0.5789  -0.5737
 -0.5525  -0.5458  -0.5442  -0.5353  -0.5338  -0.5266  -0.5151  -0.5111
 -0.5075  -0.5056  -0.4898  -0.4750  -0.4702  -0.4514  -0.4492  -0.4467
 -0.4392  -0.4332  -0.4277  -0.3755  -0.3483  -0.3129  -0.3093  -0.2880
 -- Virtual --
  0.0538   0.0596   0.0624   0.0697   0.0704   0.0771   0.0849   0.0859
  0.0939   0.0952   0.0992   0.1027   0.1066   0.1089   0.1226   0.1243
  0.1296   0.1354   0.1367   0.1411   0.1437   0.1484   0.1588   0.1614
  0.1656   0.1693   0.1776   0.1799   0.1819   0.1863   0.1936   0.1994
  0.2023   0.2029   0.2074   0.2105   0.2167   0.2206   0.2277   0.2346
  0.2349   0.2386   0.2443   0.2450   0.2487   0.2560   0.2606   0.2624
  0.2653   0.2678   0.2696   0.2720   0.2766   0.2801   0.2824   0.2840
  0.2862   0.2918   0.2941   0.2961   0.2982   0.3017   0.3039   0.3065
  0.3103   0.3123   0.3159   0.3201   0.3234   0.3251   0.3261   0.3317
  0.3341   0.3371   0.3381   0.3425   0.3447   0.3485   0.3517   0.3534
  0.3560   0.3578   0.3591   0.3645   0.3668   0.3677   0.3693   0.3730
  0.3783   0.3803   0.3834   0.3839   0.3892   0.3920   0.3922   0.3964
  0.3977   0.3993   0.4014   0.4061   0.4096   0.4106   0.4142   0.4167
  0.4190   0.4230   0.4272   0.4287   0.4319   0.4320   0.4356   0.4383
  0.4434   0.4443   0.4478   0.4504   0.4555   0.4593   0.4600   0.4624
  0.4659   0.4688   0.4710   0.4772   0.4786   0.4815   0.4838   0.4887
  0.4914   0.4938   0.4958   0.5002   0.5032   0.5046   0.5082   0.5123
  0.5164   0.5182   0.5198   0.5228   0.5281   0.5335   0.5349   0.5389
  0.5409   0.5449   0.5483   0.5514   0.5518   0.5569   0.5594   0.5653
  0.5683   0.5696   0.5728   0.5735   0.5823   0.5882   0.5886   0.5925
  0.6011   0.6038   0.6057   0.6077   0.6140   0.6201   0.6219   0.6232
  0.6306   0.6340   0.6374   0.6419   0.6483   0.6507   0.6568   0.6581
  0.6635   0.6674   0.6682   0.6737   0.6777   0.6807   0.6848   0.6888
  0.6896   0.6933   0.6985   0.7039   0.7090   0.7096   0.7145   0.7191
  0.7230   0.7258   0.7282   0.7322   0.7345   0.7384   0.7401   0.7430
  0.7471   0.7485   0.7533   0.7585   0.7597   0.7601   0.7640   0.7666
  0.7693   0.7730   0.7776   0.7800   0.7857   0.7870   0.7904   0.7921
  0.7941   0.7977   0.8014   0.8022   0.8062   0.8082   0.8162   0.8187
  0.8199   0.8224   0.8252   0.8291   0.8311   0.8351   0.8358   0.8400
  0.8412   0.8442   0.8470   0.8515   0.8557   0.8580   0.8667   0.8688
  0.8724   0.8769   0.8841   0.8892   0.8943   0.8977   0.8999   0.9020
  0.9080   0.9131   0.9162   0.9218   0.9231   0.9311   0.9354   0.9401
  0.9441   0.9517   0.9522   0.9584   0.9599   0.9643   0.9697   0.9792
  0.9848   0.9903   0.9942   0.9993   1.0042   1.0124   1.0129   1.0206
  1.0259   1.0277   1.0357   1.0393   1.0503   1.0540   1.0562   1.0719
  1.0736   1.0748   1.0843   1.0894   1.0948   1.1039   1.1109   1.1166
  1.1209   1.1256   1.1305   1.1373   1.1458   1.1496   1.1548   1.1611
  1.1699   1.1748   1.1802   1.1956   1.1974   1.2059   1.2126   1.2222
  1.2385   1.2515   1.2531   1.2576   1.2732   1.2799   1.2883   1.3070
  1.3128   1.3156   1.3262   1.3464   1.3492   1.3605   1.3653   1.3671
  1.3841   1.3881   1.3986   1.4092   1.4118   1.4156   1.4277   1.4346
  1.4384   1.4580   1.4687   1.4722   1.4815   1.4841   1.4992   1.5083
  1.5184   1.5340   1.5402   1.5521   1.5699   1.5769   1.5816   1.5950
  1.6131   1.6240   1.6255   1.6358   1.6381   1.6405   1.6566   1.6624
  1.6717   1.6828   1.6928   1.7106   1.7208   1.7297   1.7385   1.7416
  1.7565   1.7696   1.7830   1.7994   1.8073   1.8180   1.8404   1.8446
  1.8527   1.8556   1.8669   1.8781   1.8879   1.8911   1.8978   1.8989
  1.9099   1.9168   1.9291   1.9323   1.9390   1.9439   1.9531   1.9558
  1.9595   1.9699   1.9770   1.9795   1.9877   1.9917   2.0031   2.0108
  2.0175   2.0278   2.0317   2.0338   2.0471   2.0520   2.0596   2.0633
  2.0713   2.0749   2.0804   2.0843   2.0997   2.1096   2.1147   2.1294
  2.1349   2.1470   2.1506   2.1571   2.1785   2.1854   2.2035   2.2076
  2.2128   2.2189   2.2335   2.2391   2.2485   2.2639   2.2692   2.2755
  2.2909   2.2963   2.3113   2.3199   2.3238   2.3356   2.3379   2.3424
  2.3525   2.3659   2.3710   2.3873   2.3986   2.4089   2.4150   2.4201
  2.4409   2.4505   2.4566   2.4595   2.4796   2.4995   2.5075   2.5216
  2.5228   2.5254   2.5401   2.5503   2.5556   2.5748   2.5834   2.5948
  2.6034   2.6178   2.6237   2.6408   2.6483   2.6588   2.6664   2.6686
  2.6715   2.6794   2.6951   2.7050   2.7191   2.7246   2.7383   2.7598
  2.7699   2.7753   2.7770   2.7833   2.7905   2.7970   2.7975   2.8039
  2.8106   2.8230   2.8285   2.8418   2.8519   2.8604   2.8668   2.8786
  2.8866   2.8948   2.9002   2.9056   2.9151   2.9256   2.9307   2.9374
  2.9539   2.9616   2.9670   2.9786   2.9827   2.9873   2.9901   2.9951
  3.0060   3.0124   3.0203   3.0316   3.0399   3.0505   3.0603   3.0634
  3.0728   3.0829   3.0919   3.1063   3.1139   3.1180   3.1282   3.1377
  3.1430   3.1449   3.1659   3.1716   3.1755   3.1866   3.2020   3.2109
  3.2141   3.2244   3.2256   3.2408   3.2446   3.2604   3.2650   3.2667
  3.2682   3.2770   3.2926   3.2963   3.3051   3.3144   3.3219   3.3330
  3.3432   3.3527   3.3574   3.3682   3.3799   3.3827   3.3941   3.3986
  3.4039   3.4119   3.4191   3.4274   3.4330   3.4396   3.4442   3.4604
  3.4638   3.4722   3.4729   3.4755   3.4874   3.4969   3.5037   3.5070
  3.5108   3.5162   3.5269   3.5290   3.5355   3.5360   3.5461   3.5500
  3.5525   3.5591   3.5615   3.5714   3.5753   3.5840   3.5927   3.5978
  3.6016   3.6024   3.6130   3.6189   3.6228   3.6333   3.6410   3.6455
  3.6602   3.6620   3.6714   3.6775   3.6788   3.6916   3.6982   3.7158
  3.7218   3.7311   3.7361   3.7411   3.7458   3.7697   3.7760   3.7822
  3.7947   3.8128   3.8242   3.8283   3.8363   3.8543   3.8709   3.8867
  3.9051   3.9257   3.9396   3.9399   3.9597   3.9691   3.9935   3.9957
  4.0123   4.0483   4.0514   4.0570   4.0842   4.1040   4.1294   4.1492
  4.1596   4.1730   4.1942   4.2137   4.2314   4.2391   4.2619   4.2666
  4.2825   4.2895   4.2911   4.3075   4.3151   4.3224   4.3280   4.3319
  4.3458   4.3567   4.3680   4.3709   4.3752   4.3792   4.3893   4.4042
  4.4177   4.4271   4.4497   4.4501   4.4652   4.4841   4.5053   4.5070
  4.5350   4.5438   4.5749   4.6029   4.6199   4.6412   4.6558   4.6626
  4.6918   4.7262   4.7421   4.7653   4.7976   4.8045   4.8237   4.8337
  4.8582   4.8877   4.9457   4.9473   4.9628   4.9682   4.9971   5.0045
  5.0267   5.0428   5.0648   5.0758   5.0881   5.1065   5.1248   5.1371
  5.1441   5.1662   5.1814   5.2111   5.2344   5.2817   5.3090   5.3323
  5.3991   5.4031   5.4211   5.4501   5.4712   5.5136   5.5399   5.5611
  5.6051   5.6187   5.6511   5.6526   5.7172   5.7288   5.7640   5.8099
  5.8379   5.9503   5.9651   5.9814   6.2172   6.2881   6.3567   6.4842
  6.6052   6.6501   6.8827   7.0173   7.3128   7.4662  22.6831  22.6896
 22.7320  22.7933  22.9585  22.9652  22.9787  23.0000  23.0064  23.0445
 23.1968  23.2123  23.2837  23.5041  23.5119  23.8039  32.8587  44.4435
 --------------------------------------------------------------

          Ground-State Mulliken Net Atomic Charges

     Atom                 Charge (a.u.)
  ----------------------------------------
      1 C                    -1.095110
      2 C                     0.378950
      3 C                     0.613027
      4 C                    -0.135221
      5 C                    -0.576261
      6 C                    -0.746857
      7 C                    -0.413701
      8 C                    -0.583464
      9 C                    -0.670702
     10 N                     0.108705
     11 H                     0.448535
     12 H                     0.436929
     13 H                     0.440276
     14 H                     0.435298
     15 H                     0.305117
     16 H                     0.284497
     17 H                     0.318348
     18 H                     0.218602
     19 H                     0.245614
     20 C                    -1.161886
     21 C                    -0.651745
     22 C                     0.595900
     23 C                    -0.602936
     24 C                     0.485070
     25 C                    -0.476106
     26 C                    -0.580262
     27 O                    -0.546561
     28 H                     0.503309
     29 H                     0.417224
     30 H                     0.380752
     31 H                     0.336283
     32 H                     0.312364
     33 H                     0.298116
     34 H                     0.420815
     35 H                     0.257080
  ----------------------------------------
  Sum of atomic charges =     0.000000

 -----------------------------------------------------------------
                    Cartesian Multipole Moments
 -----------------------------------------------------------------
    Charge (ESU x 10^10)
                -0.0000
    Dipole Moment (Debye)
         X      -0.8438      Y       1.2537      Z       0.9985
       Tot       1.8113
    Quadrupole Moments (Debye-Ang)
        XX    -110.6181     XY       4.9532     YY     -65.8347
        XZ       6.4456     YZ      -6.9100     ZZ     -97.5748
    Octopole Moments (Debye-Ang^2)
       XXX     -32.5042    XXY     -35.7240    XYY     -63.8774
       YYY      45.3016    XXZ       3.8457    XYZ      13.7814
       YYZ      -6.9274    XZZ       1.7589    YZZ       2.3509
       ZZZ      -8.0761
    Hexadecapole Moments (Debye-Ang^3)
      XXXX    -928.3428   XXXY    -433.1222   XXYY    -789.5262
      XYYY    -219.5444   YYYY   -3238.0404   XXXZ      71.4862
      XXYZ     525.0638   XYYZ      51.5264   YYYZ    1209.8314
      XXZZ    -840.9020   XYZZ    -213.9248   YYZZ   -1231.5850
      XZZZ     107.6599   YZZZ    1346.0436   ZZZZ   -3795.2406
 -----------------------------------------------------------------
Archival summary:
1\1\compute-0-10.local\SP\ProcedureUnspecified\BasisUnspecified\111617\meili\ThuSep3000:14:552021ThuSep3000:14:552021\0\\#,ProcedureUnspecified,BasisUnspecified,\\0,1\C\C,1,1.40425\H,2,1.07928,1,120.473\C,2,1.40038,1,118.625,3,178.799,0\H,4,1.07715,2,119.618,1,179.025,0\C,4,1.40295,2,121.014,1,0.253751,0\H,6,1.08068,4,119.566,2,-179.928,0\C,6,1.38253,4,121.094,2,-0.353877,0\H,8,1.07854,6,121.26,4,-179.982,0\C,8,1.38293,6,118.032,4,0.0838303,0\N,10,1.36909,8,130.428,6,-178.743,0\H,11,1.01432,10,126.053,8,1.83796,0\C,11,1.37362,10,109.334,8,179.562,0\H,13,1.08648,11,124.986,10,-179.997,0\C,13,1.35842,11,110.104,10,-0.136732,0\C,15,1.47585,13,126.774,11,-179.88,0\H,16,1.0898,15,107.538,13,-142.096,0\H,16,1.09173,15,109.471,13,-25.5316,0\H,16,1.1,15,113.415,13,97.2728,0\H,7,2.44358,6,103.408,4,-68.7557,0\C,20,1.08062,7,142.14,6,60.8875,0\C,21,1.39655,20,119.892,7,115.377,0\C,22,1.39562,21,118.672,20,179.408,0\H,23,1.08103,22,120.079,21,-178.342,0\C,23,1.39453,22,120.988,21,1.48159,0\H,25,1.07834,23,119.931,22,177.598,0\C,25,1.39493,23,119.847,22,-1.27139,0\O,27,1.36388,25,119.509,23,-179.45,0\H,28,0.962853,27,112.229,25,4.08946,0\C,27,1.39487,25,119.921,23,1.00204,0\H,30,1.08057,27,119.774,25,179.626,0\C,22,1.50976,21,120.65,20,1.94462,0\H,32,1.0859,22,109.777,21,22.9244,0\H,32,1.08724,22,107.446,21,139.545,0\H,32,1.1,22,115.3,21,-99.7975,0\\\@

 Total job time:  62994.42s(wall), 146601.58s(cpu) 
 Thu Sep 30 00:14:55 2021

        *************************************************************
        *                                                           *
        *  Thank you very much for using Q-Chem.  Have a nice day.  *
        *                                                           *
        *************************************************************


