
Running Job 1 of 1 SSI-022ARG-073GLU-1_PCM_TZVPD.in
qchem SSI-022ARG-073GLU-1_PCM_TZVPD.in_62833.0 /tmp/qchem62833/ 0
/global/common/cori/software/qchem/5.2/exe/qcprog.exe_s SSI-022ARG-073GLU-1_PCM_TZVPD.in_62833.0 /tmp/qchem62833/
                  Welcome to Q-Chem
     A Quantum Leap Into The Future Of Chemistry


 Q-Chem 5.2, Q-Chem, Inc., Pleasanton, CA (2019)

 License issued to: National Energy Research Scientific Computing Center

 Yihan Shao,  Zhengting Gan,  E. Epifanovsky,  A. T. B. Gilbert,  M. Wormit,  
 J. Kussmann,  A. W. Lange,  A. Behn,  Jia Deng,  Xintian Feng,  D. Ghosh,  
 M. Goldey,  P. R. Horn,  L. D. Jacobson,  I. Kaliman,  T. Kus,  A. Landau,  
 Jie Liu,  E. I. Proynov,  R. M. Richard,  R. P. Steele,  E. J. Sundstrom,  
 H. L. Woodcock III,  P. M. Zimmerman,  D. Zuev,  B. Albrecht,  E. Alguire,  
 S. A. Baeppler,  D. Barton,  Z. Benda,  Y. A. Bernard,  E. J. Berquist,  
 K. B. Bravaya,  H. Burton,  D. Casanova,  Chun-Min Chang,  Yunqing Chen,  
 A. Chien,  K. D. Closser,  M. P. Coons,  S. Coriani,  S. Dasgupta,  
 A. L. Dempwolff,  M. Diedenhofen,  Hainam Do,  R. G. Edgar,  Po-Tung Fang,  
 S. Faraji,  S. Fatehi,  Qingguo Feng,  K. D. Fenk,  J. Fosso-Tande,  
 J. Gayvert,  Qinghui Ge,  A. Ghysels,  G. Gidofalvi,  J. Gomes,  
 J. Gonthier,  A. Gunina,  D. Hait,  M. W. D. Hanson-Heine,  
 P. H. P. Harbach,  A. W. Hauser,  M. F. Herbst,  J. E. Herr,  
 E. G. Hohenstein,  Z. C. Holden,  Kerwin Hui,  B. C. Huynh,  T.-C. Jagau,  
 Hyunjun Ji,  B. Kaduk,  K. Khistyaev,  Jaehoon Kim,  P. Klunzinger,  K. Koh,  
 D. Kosenkov,  L. Koulias,  T. Kowalczyk,  C. M. Krauter,  A. Kunitsa,  
 Ka Un Lao,  A. Laurent,  K. V. Lawler,  Joonho Lee,  D. Lefrancois,  
 S. Lehtola,  D. S. Levine,  Yi-Pei Li,  You-Sheng Lin,  Fenglai Liu,  
 E. Livshits,  A. Luenser,  P. Manohar,  E. Mansoor,  S. F. Manzer,  
 Shan-Ping Mao,  Yuezhi Mao,  N. Mardirossian,  A. V. Marenich,  
 T. Markovich,  L. A. Martinez-Martinez,  S. A. Maurer,  N. J. Mayhall,  
 S. C. McKenzie,  J.-M. Mewes,  P. Morgante,  A. F. Morrison,  
 J. W. Mullinax,  K. Nanda,  T. S. Nguyen-Beck,  R. Olivares-Amaya,  
 J. A. Parkhill,  Zheng Pei,  T. M. Perrine,  F. Plasser,  P. Pokhilko,  
 S. Prager,  A. Prociuk,  E. Ramos,  D. R. Rehn,  F. Rob,  M. Scheurer,  
 M. Schneider,  N. Sergueev,  S. M. Sharada,  S. Sharma,  D. W. Small,  
 T. Stauch,  T. Stein,  Yu-Chuan Su,  A. J. W. Thom,  A. Tkatchenko,  
 T. Tsuchimochi,  N. M. Tubman,  L. Vogt,  M. L. Vidal,  O. Vydrov,  
 M. A. Watson,  J. Wenzel,  M. de Wergifosse,  T. A. Wesolowski,  A. White,  
 J. Witte,  A. Yamada,  Jun Yang,  K. Yao,  S. Yeganeh,  S. R. Yost,  
 Zhi-Qiang You,  A. Zech,  Igor Ying Zhang,  Xing Zhang,  Yan Zhao,  
 Ying Zhu,  B. R. Brooks,  G. K. L. Chan,  C. J. Cramer,  M. S. Gordon,  
 W. J. Hehre,  A. Klamt,  M. W. Schmidt,  C. D. Sherrill,  D. G. Truhlar,  
 A. Aspuru-Guzik,  R. Baer,  A. T. Bell,  N. A. Besley,  Jeng-Da Chai,  
 A. E. DePrince, III,  R. A. DiStasio Jr.,  A. Dreuw,  B. D. Dunietz,  
 T. R. Furlani,  Chao-Ping Hsu,  Yousung Jung,  Jing Kong,  D. S. Lambrecht,  
 WanZhen Liang,  C. Ochsenfeld,  V. A. Rassolov,  L. V. Slipchenko,  
 J. E. Subotnik,  T. Van Voorhis,  J. M. Herbert,  A. I. Krylov,  
 P. M. W. Gill,  M. Head-Gordon

 Contributors to earlier versions of Q-Chem not listed above: 
 R. D. Adamson,  B. Austin,  J. Baker,  G. J. O. Beran,  K. Brandhorst,  
 S. T. Brown,  E. F. C. Byrd,  A. K. Chakraborty,  C.-L. Cheng,  
 Siu Hung Chien,  D. M. Chipman,  D. L. Crittenden,  H. Dachsel,  
 R. J. Doerksen,  A. D. Dutoi,  L. Fusti-Molnar,  W. A. Goddard III,  
 A. Golubeva-Zadorozhnaya,  S. R. Gwaltney,  G. Hawkins,  A. Heyden,  
 S. Hirata,  G. Kedziora,  F. J. Keil,  C. Kelley,  Jihan Kim,  R. A. King,  
 R. Z. Khaliullin,  P. P. Korambath,  W. Kurlancheek,  A. M. Lee,  M. S. Lee,  
 S. V. Levchenko,  Ching Yeh Lin,  D. Liotard,  R. C. Lochan,  I. Lotan,  
 P. E. Maslen,  N. Nair,  D. P. O'Neill,  D. Neuhauser,  E. Neuscamman,  
 C. M. Oana,  R. Olson,  B. Peters,  R. Peverati,  P. A. Pieniazek,  
 Y. M. Rhee,  J. Ritchie,  M. A. Rohrdanz,  E. Rosta,  N. J. Russ,  
 H. F. Schaefer III,  N. E. Schultz,  N. Shenvi,  A. C. Simmonett,  A. Sodt,  
 D. Stuck,  K. S. Thanthiriwatte,  V. Vanovschi,  Tao Wang,  A. Warshel,  
 C. F. Williams,  Q. Wu,  X. Xu,  W. Zhang

 Please cite Q-Chem as follows:
 Y. Shao et al., Mol. Phys. 113, 184-215 (2015)
 DOI: 10.1080/00268976.2014.952696

 Q-Chem 5.2.0 for Intel X86 EM64T Linux

 Parts of Q-Chem use Armadillo 8.300.2 (Tropical Shenanigans).
 http://arma.sourceforge.net/

 Q-Chem begins on Sun Sep 26 03:55:08 2021  

Host: cori01
0

     Scratch files written to /tmp/qchem62833//
 May1019 |scratch|qcdevops|jenkins|workspace|build_RNUM -1
Processing $rem in /global/common/cori/software/qchem/5.2/config/preferences:
	 MEM_TOTAL  96000 
NAlpha2: 72
NElect   72
Mult     1
Symmetry turned off for PCM/SM12/SMD calculation

 Q-Chem warning in module libgen/rem_setup.C, line 2803:

 Neither GIA nor STOLL is specified by user. Use STOLL as the default


Checking the input file for inconsistencies... 	...done.

--------------------------------------------------------------
User input:
--------------------------------------------------------------
$comment
SSI-022ARG-073GLU-1.pdb
$end

$molecule
0 1
--
1 1
C    1.998369466469   -0.721033494241   -1.384394122451
C   -0.295630533531   -1.659033494241   -1.589394122451
N   -0.764630533531   -0.961033494241   -0.567394122451
N    0.971369466469   -1.570033494241   -1.991394122451
N   -1.115630533531   -2.474033494241   -2.223394122451
H   -0.163630533531   -0.383033494241    0.017605877549
H   -1.743630533531   -1.108033494241   -0.333394122451
H    1.258369466469   -2.169033494241   -2.752394122451
H   -0.806630533531   -3.054033494241   -2.986394122451
H   -2.071630533531   -2.522033494241   -1.869394122451
H    2.989369466469   -1.125033494241   -1.600394122451
H    1.877369466469   -0.685033494241   -0.300394122451
H    1.916059466469    0.293666505759   -1.801055122451
--
-1 1
C   -1.183630533531    2.549966505759    1.155605877549
C   -0.126630533531    1.821966505759    1.983605877549
O    0.345369466469    0.747966505759    1.535605877549
O    0.220369466469    2.301966505759    3.086605877549
H   -1.939630533531    1.834966505759    0.832605877549
H   -0.698630533531    2.924966505759    0.250605877549
H   -1.640780533531    3.413796505759    1.660394877549
$end

$rem
JOBTYPE			EDA
EDA2			1
method			wB97X-V
BASIS			def2-TZVPD
XC_GRID			000099000590
NL_GRID			1
UNRESTRICTED		FALSE
MAX_SCF_CYCLES		200
SYMMETRY		FALSE
SYM_IGNORE		TRUE
MEM_STATIC		2000
BASIS_LIN_DEP_THRESH 	6
THRESH 			14
SCF_CONVERGENCE 	8
SCF_PRINT_FRGM 		TRUE
SOLVENT_METHOD          PCM
$end

$PCM
THEORY                  CPCM
METHOD                  SWIG
SOLVER                  INVERSION
RADII                   UFF
HPOINTS                 302
HEAVYPOINTS             302
PRINTLEVEL              0
$END

$SOLVENT
DIELECTRIC              78.390000 ! water
$END
--------------------------------------------------------------
 ----------------------------------------------------------------
             Standard Nuclear Orientation (Angstroms)
    I     Atom           X                Y                Z
 ----------------------------------------------------------------
    1      C       1.9983694665    -0.7210334942    -1.3843941225
    2      C      -0.2956305335    -1.6590334942    -1.5893941225
    3      N      -0.7646305335    -0.9610334942    -0.5673941225
    4      N       0.9713694665    -1.5700334942    -1.9913941225
    5      N      -1.1156305335    -2.4740334942    -2.2233941225
    6      H      -0.1636305335    -0.3830334942     0.0176058775
    7      H      -1.7436305335    -1.1080334942    -0.3333941225
    8      H       1.2583694665    -2.1690334942    -2.7523941225
    9      H      -0.8066305335    -3.0540334942    -2.9863941225
   10      H      -2.0716305335    -2.5220334942    -1.8693941225
   11      H       2.9893694665    -1.1250334942    -1.6003941225
   12      H       1.8773694665    -0.6850334942    -0.3003941225
   13      H       1.9160594665     0.2936665058    -1.8010551225
   14      C      -1.1836305335     2.5499665058     1.1556058775
   15      C      -0.1266305335     1.8219665058     1.9836058775
   16      O       0.3453694665     0.7479665058     1.5356058775
   17      O       0.2203694665     2.3019665058     3.0866058775
   18      H      -1.9396305335     1.8349665058     0.8326058775
   19      H      -0.6986305335     2.9249665058     0.2506058775
   20      H      -1.6407805335     3.4137965058     1.6603948775
 ----------------------------------------------------------------
 Nuclear Repulsion Energy =         445.77592542 hartrees
 There are       36 alpha and       36 beta electrons
 Requested basis set is def2-TZVPD
 There are 174 shells and 438 basis functions

 Total QAlloc Memory Limit  96000 MB
 Mega-Array Size      1956 MB
 MEM_STATIC part      2000 MB
 Discretize the solute cavity surface with Lebedev spheres
	Using 302 Lebedev grid points for each H atom
	Using 302 Lebedev grid points for other atoms
	Atomic van der Waals radii will be scaled by 1.20
 Remove points where switching function is < 1.0e-08
 Keep 2364 surface tesserae and discard 3676 interior tesserae
 Molecular Surface Area = 241.428 Angst**2
 A cutoff of  1.0D-14 yielded  13424 shell pairs
 There are     84914 function pairs (    106349 Cartesian)
 Smallest overlap matrix eigenvalue = 1.03E-05

 Scale SEOQF with 1.000000e-01/1.000000e-01/1.000000e-01

 Standard Electronic Orientation quadrupole field applied
 Nucleus-field energy     =    -0.0000000063 hartrees

 -----------------------------------------------------------------------
  General SCF calculation program by
  Eric Jon Sundstrom, Paul Horn, Yuezhi Mao, Dmitri Zuev, Alec White,
  David Stuck, Shaama M.S., Shane Yost, Joonho Lee, David Small,
  Daniel Levine, Susi Lehtola, Hugh Burton, Evgeny Epifanovsky
 -----------------------------------------------------------------------
================================================================
                 ALMO-EDA with the EDA2 driver                  
================================================================
 The second-generation ALMO-EDA (for DFT):                      
 P. R. Horn, Y. Mao and M. Head-Gordon, PCCP, 18, 23067 (2016)  
 Decomposition of the frozen energy:                            
 P. R. Horn, Y. Mao and M. Head-Gordon, JCP, 144, 114107 (2016) 
 FERF model for polarization:                                   
 P. R. Horn and M. Head-Gordon, JCP, 143, 114111 (2015)         
Using eda2 option set 1
Option set summary: Frozen orbital wavefunction, initial wavefunction decomposition, and nDQ polarization.
--------------------------------
Printing EDA Options
--------------------------------
eda_child_super_basis      0
fragmo_guess_mode          0
child_mp                   1
child_mp_orders            232
cls_elec                   1
cls_disp                   0
scfmi_mode                 1
scfmi_occs                 0
scfmi_virts                0
frz_relax                  0
frz_relax_method           0
dc_pen_start               0
dc_pen_conv                0
dc_pen_increment           0
dc_pen_steps               0
dc_pen_thresh_factor       0
dc_pen_pre_newton_thresh   0
frz_ortho_decomp           1
frz_ortho_decomp_conv      6
frgm_method                2
scfmi_freeze_ss            0
separate_rehyb             0
plot_diff_den              0
eda_nocv                   0
eda_vct_relax              1
disp_free_x                0
disp_free_c                0
eda_bsse                   0
eda_pct_a                  0
eda_covp                   0
--------------------------------
Attempting to make child job directory: /tmp/qchem62833//Frg1/
Attempting to make child job directory: /tmp/qchem62833//Frg2/
Creating input file /tmp/qchem62833/Frg1.input
using default PutDataFrgm: nothing
calling putenv with: QCSCRATCH=/tmp/qchem62833/ 
calling putenv with: QCLOCALSCR=/tmp/qchem62833/ 
Spawning Job For Fragment 0
                  Welcome to Q-Chem
     A Quantum Leap Into The Future Of Chemistry


 Q-Chem 5.2, Q-Chem, Inc., Pleasanton, CA (2019)

 License issued to: National Energy Research Scientific Computing Center

 Yihan Shao,  Zhengting Gan,  E. Epifanovsky,  A. T. B. Gilbert,  M. Wormit,  
 J. Kussmann,  A. W. Lange,  A. Behn,  Jia Deng,  Xintian Feng,  D. Ghosh,  
 M. Goldey,  P. R. Horn,  L. D. Jacobson,  I. Kaliman,  T. Kus,  A. Landau,  
 Jie Liu,  E. I. Proynov,  R. M. Richard,  R. P. Steele,  E. J. Sundstrom,  
 H. L. Woodcock III,  P. M. Zimmerman,  D. Zuev,  B. Albrecht,  E. Alguire,  
 S. A. Baeppler,  D. Barton,  Z. Benda,  Y. A. Bernard,  E. J. Berquist,  
 K. B. Bravaya,  H. Burton,  D. Casanova,  Chun-Min Chang,  Yunqing Chen,  
 A. Chien,  K. D. Closser,  M. P. Coons,  S. Coriani,  S. Dasgupta,  
 A. L. Dempwolff,  M. Diedenhofen,  Hainam Do,  R. G. Edgar,  Po-Tung Fang,  
 S. Faraji,  S. Fatehi,  Qingguo Feng,  K. D. Fenk,  J. Fosso-Tande,  
 J. Gayvert,  Qinghui Ge,  A. Ghysels,  G. Gidofalvi,  J. Gomes,  
 J. Gonthier,  A. Gunina,  D. Hait,  M. W. D. Hanson-Heine,  
 P. H. P. Harbach,  A. W. Hauser,  M. F. Herbst,  J. E. Herr,  
 E. G. Hohenstein,  Z. C. Holden,  Kerwin Hui,  B. C. Huynh,  T.-C. Jagau,  
 Hyunjun Ji,  B. Kaduk,  K. Khistyaev,  Jaehoon Kim,  P. Klunzinger,  K. Koh,  
 D. Kosenkov,  L. Koulias,  T. Kowalczyk,  C. M. Krauter,  A. Kunitsa,  
 Ka Un Lao,  A. Laurent,  K. V. Lawler,  Joonho Lee,  D. Lefrancois,  
 S. Lehtola,  D. S. Levine,  Yi-Pei Li,  You-Sheng Lin,  Fenglai Liu,  
 E. Livshits,  A. Luenser,  P. Manohar,  E. Mansoor,  S. F. Manzer,  
 Shan-Ping Mao,  Yuezhi Mao,  N. Mardirossian,  A. V. Marenich,  
 T. Markovich,  L. A. Martinez-Martinez,  S. A. Maurer,  N. J. Mayhall,  
 S. C. McKenzie,  J.-M. Mewes,  P. Morgante,  A. F. Morrison,  
 J. W. Mullinax,  K. Nanda,  T. S. Nguyen-Beck,  R. Olivares-Amaya,  
 J. A. Parkhill,  Zheng Pei,  T. M. Perrine,  F. Plasser,  P. Pokhilko,  
 S. Prager,  A. Prociuk,  E. Ramos,  D. R. Rehn,  F. Rob,  M. Scheurer,  
 M. Schneider,  N. Sergueev,  S. M. Sharada,  S. Sharma,  D. W. Small,  
 T. Stauch,  T. Stein,  Yu-Chuan Su,  A. J. W. Thom,  A. Tkatchenko,  
 T. Tsuchimochi,  N. M. Tubman,  L. Vogt,  M. L. Vidal,  O. Vydrov,  
 M. A. Watson,  J. Wenzel,  M. de Wergifosse,  T. A. Wesolowski,  A. White,  
 J. Witte,  A. Yamada,  Jun Yang,  K. Yao,  S. Yeganeh,  S. R. Yost,  
 Zhi-Qiang You,  A. Zech,  Igor Ying Zhang,  Xing Zhang,  Yan Zhao,  
 Ying Zhu,  B. R. Brooks,  G. K. L. Chan,  C. J. Cramer,  M. S. Gordon,  
 W. J. Hehre,  A. Klamt,  M. W. Schmidt,  C. D. Sherrill,  D. G. Truhlar,  
 A. Aspuru-Guzik,  R. Baer,  A. T. Bell,  N. A. Besley,  Jeng-Da Chai,  
 A. E. DePrince, III,  R. A. DiStasio Jr.,  A. Dreuw,  B. D. Dunietz,  
 T. R. Furlani,  Chao-Ping Hsu,  Yousung Jung,  Jing Kong,  D. S. Lambrecht,  
 WanZhen Liang,  C. Ochsenfeld,  V. A. Rassolov,  L. V. Slipchenko,  
 J. E. Subotnik,  T. Van Voorhis,  J. M. Herbert,  A. I. Krylov,  
 P. M. W. Gill,  M. Head-Gordon

 Contributors to earlier versions of Q-Chem not listed above: 
 R. D. Adamson,  B. Austin,  J. Baker,  G. J. O. Beran,  K. Brandhorst,  
 S. T. Brown,  E. F. C. Byrd,  A. K. Chakraborty,  C.-L. Cheng,  
 Siu Hung Chien,  D. M. Chipman,  D. L. Crittenden,  H. Dachsel,  
 R. J. Doerksen,  A. D. Dutoi,  L. Fusti-Molnar,  W. A. Goddard III,  
 A. Golubeva-Zadorozhnaya,  S. R. Gwaltney,  G. Hawkins,  A. Heyden,  
 S. Hirata,  G. Kedziora,  F. J. Keil,  C. Kelley,  Jihan Kim,  R. A. King,  
 R. Z. Khaliullin,  P. P. Korambath,  W. Kurlancheek,  A. M. Lee,  M. S. Lee,  
 S. V. Levchenko,  Ching Yeh Lin,  D. Liotard,  R. C. Lochan,  I. Lotan,  
 P. E. Maslen,  N. Nair,  D. P. O'Neill,  D. Neuhauser,  E. Neuscamman,  
 C. M. Oana,  R. Olson,  B. Peters,  R. Peverati,  P. A. Pieniazek,  
 Y. M. Rhee,  J. Ritchie,  M. A. Rohrdanz,  E. Rosta,  N. J. Russ,  
 H. F. Schaefer III,  N. E. Schultz,  N. Shenvi,  A. C. Simmonett,  A. Sodt,  
 D. Stuck,  K. S. Thanthiriwatte,  V. Vanovschi,  Tao Wang,  A. Warshel,  
 C. F. Williams,  Q. Wu,  X. Xu,  W. Zhang

 Please cite Q-Chem as follows:
 Y. Shao et al., Mol. Phys. 113, 184-215 (2015)
 DOI: 10.1080/00268976.2014.952696

 Q-Chem 5.2.0 for Intel X86 EM64T Linux

 Parts of Q-Chem use Armadillo 8.300.2 (Tropical Shenanigans).
 http://arma.sourceforge.net/

 Q-Chem begins on Sun Sep 26 03:55:11 2021  

Host: cori01
0

     Scratch files written to /tmp/qchem62833//Frg1//
 May1019 |scratch|qcdevops|jenkins|workspace|build_RNUM -1
Processing $rem in /global/common/cori/software/qchem/5.2/config/preferences:
	 MEM_TOTAL  96000 
NAlpha2: 40
NElect   40
Mult     1
Symmetry turned off for PCM/SM12/SMD calculation

Checking the input file for inconsistencies... 	...done.

--------------------------------------------------------------
User input:
--------------------------------------------------------------
$molecule
1 1
 6	1.9983694665	-0.7210334942	-1.3843941225
 6	-0.2956305335	-1.6590334942	-1.5893941225
 7	-0.7646305335	-0.9610334942	-0.5673941225
 7	0.9713694665	-1.5700334942	-1.9913941225
 7	-1.1156305335	-2.4740334942	-2.2233941225
 1	-0.1636305335	-0.3830334942	0.0176058775
 1	-1.7436305335	-1.1080334942	-0.3333941225
 1	1.2583694665	-2.1690334942	-2.7523941225
 1	-0.8066305335	-3.0540334942	-2.9863941225
 1	-2.0716305335	-2.5220334942	-1.8693941225
 1	2.9893694665	-1.1250334942	-1.6003941225
 1	1.8773694665	-0.6850334942	-0.3003941225
 1	1.9160594665	0.2936665058	-1.8010551225
$end
$rem
EDA2		1
METHOD		WB97X-V
BASIS		DEF2-TZVPD
XC_GRID		000099000590
NL_GRID		1
UNRESTRICTED		FALSE
MAX_SCF_CYCLES		200
SYMMETRY		FALSE
SYM_IGNORE		TRUE
BASIS_LIN_DEP_THRESH		6
THRESH		14
SCF_CONVERGENCE		8
SCF_PRINT_FRGM		TRUE
SOLVENT_METHOD		PCM
!required keywords
JOBTYPE		SP
SYM_IGNORE		TRUE
SUBSYSTEM		TRUE
GEN_SCFMAN		TRUE
CHILD_INSTRUCTION		2
SYM_IGNORE		TRUE
SCFMI		0
RI_K 0		
PARI_K 0		
MIN_PARI_K 0		
IARI_K 0		
OCC_RI_K 0		
PURECART		1111
MEM_STATIC		2000
MEM_TOTAL		96000
GUI		0
CHILD_MP		1
CHILD_MP_ORDERS		232
FRZ_RELAX		0
FRZ_RELAX_METHOD		0
EDA_CLS_ELEC		1
EDA_CLS_DISP		0
FRZ_ORTHO_DECOMP		1
EDA2		FALSE
FRGM_METHOD		FALSE
CIS_N_ROOTS  0
LOCAL_CIS    0
CIS_RLX_DNS  1
$end
$pcm
THEORY                  CPCM
METHOD                  SWIG
SOLVER                  INVERSION
RADII                   UFF
HPOINTS                 302
HEAVYPOINTS             302
PRINTLEVEL              0
$end
$solvent
DIELECTRIC              78.390000 ! water
$end
--------------------------------------------------------------
 ----------------------------------------------------------------
             Standard Nuclear Orientation (Angstroms)
    I     Atom           X                Y                Z
 ----------------------------------------------------------------
    1      C       1.9983694665    -0.7210334942    -1.3843941225
    2      C      -0.2956305335    -1.6590334942    -1.5893941225
    3      N      -0.7646305335    -0.9610334942    -0.5673941225
    4      N       0.9713694665    -1.5700334942    -1.9913941225
    5      N      -1.1156305335    -2.4740334942    -2.2233941225
    6      H      -0.1636305335    -0.3830334942     0.0176058775
    7      H      -1.7436305335    -1.1080334942    -0.3333941225
    8      H       1.2583694665    -2.1690334942    -2.7523941225
    9      H      -0.8066305335    -3.0540334942    -2.9863941225
   10      H      -2.0716305335    -2.5220334942    -1.8693941225
   11      H       2.9893694665    -1.1250334942    -1.6003941225
   12      H       1.8773694665    -0.6850334942    -0.3003941225
   13      H       1.9160594665     0.2936665058    -1.8010551225
 ----------------------------------------------------------------
 Nuclear Repulsion Energy =         193.67320167 hartrees
 There are       20 alpha and       20 beta electrons
 Requested basis set is def2-TZVPD
 There are 105 shells and 257 basis functions

 Total QAlloc Memory Limit  96000 MB
 Mega-Array Size      1956 MB
 MEM_STATIC part      2000 MB
 Discretize the solute cavity surface with Lebedev spheres
	Using 302 Lebedev grid points for each H atom
	Using 302 Lebedev grid points for other atoms
	Atomic van der Waals radii will be scaled by 1.20
 Remove points where switching function is < 1.0e-08
 Keep 1553 surface tesserae and discard 2373 interior tesserae
 Molecular Surface Area = 152.463 Angst**2

                       Distance Matrix (Angstroms)
             C (  1)   C (  2)   N (  3)   N (  4)   N (  5)   H (  6)
   C (  2)  2.486826
   N (  3)  2.891238  1.323499
   N (  4)  1.464233  1.332221  2.326446
   N (  5)  3.670685  1.318553  2.270398  2.286178
   H (  6)  2.598864  2.056222  1.018582  2.594855  3.209465
   H (  7)  3.906013  1.994453  1.017254  3.214597  2.415045  1.773479
   H (  8)  2.125024  2.006884  3.213412  1.010095  2.451274  3.589538
   H (  9)  3.984635  2.039303  3.199058  2.520628  1.007000  4.070836
   H ( 10)  4.477022  1.994328  2.416645  3.190774  1.020567  3.431698
   H ( 11)  1.091766  3.328138  3.896986  2.103148  4.365656  3.620759
   H ( 12)  1.091326  2.707790  2.669762  2.112710  3.982022  2.087584
   H ( 13)  1.099999  2.957940  3.206601  2.098105  4.126703  2.844391
             H (  7)   H (  8)   H (  9)   H ( 10)   H ( 11)   H ( 12)
   H (  8)  3.998661
   H (  9)  3.421008  2.258806
   H ( 10)  2.113357  3.463120  1.769446
   H ( 11)  4.899680  2.326672  4.477907  5.257156
   H ( 12)  3.645773  2.932187  4.475557  4.629355  1.766393
   H ( 13)  4.184749  2.720752  4.474949  4.882060  1.790243  1.792020

 
 A cutoff of  1.0D-14 yielded   5440 shell pairs
 There are     33176 function pairs (     41512 Cartesian)
 Smallest overlap matrix eigenvalue = 1.69E-05

 Scale SEOQF with 1.000000e-01/1.000000e-01/1.000000e-01

 Standard Electronic Orientation quadrupole field applied
 Nucleus-field energy     =    -0.0000000022 hartrees
 Guess from superposition of atomic densities
 Warning:  Energy on first SCF cycle will be non-variational
 SAD guess density has 40.388232 electrons

 -----------------------------------------------------------------------
  General SCF calculation program by
  Eric Jon Sundstrom, Paul Horn, Yuezhi Mao, Dmitri Zuev, Alec White,
  David Stuck, Shaama M.S., Shane Yost, Joonho Lee, David Small,
  Daniel Levine, Susi Lehtola, Hugh Burton, Evgeny Epifanovsky
 -----------------------------------------------------------------------
 Exchange:     0.1670 Hartree-Fock + 1.0000 wB97X-V + LR-HF
 Correlation:  1.0000 wB97X-V
 Using Euler-Maclaurin-Lebedev (99,590) quadrature formula
 Nonlocal Correlation:  VV10 with C = 0.0100 and b = 6.00 and scale = 1.00000
 Grid used for NLC:  SG-1 standard quadrature
Energy prior to optimization (guess energy) = -244.724809742355
Begin Timing: Total SCF Calculation
begin iterations for algorithm: DIIS         
the SCF tolerance is set to 1.00e-08
    1    -244.7248097424      7.92e-03     00000 
    2    -244.9383705795      6.24e-03     00000 
    3    -245.1786059556      3.15e-04     00000 
    4    -245.1792373582      1.81e-04     00000 
    5    -245.1794595230      3.55e-05     00000 
    6    -245.1794688298      1.41e-05     00000 
    7    -245.1794705269      2.26e-06     00000 
    8    -245.1794706094      8.25e-07     00000 
    9    -245.1794706213      3.20e-07     00000 
   10    -245.1794706232      9.00e-08     00000 
   11    -245.1794706229      3.84e-08     00000 
   12    -245.1794706229      1.15e-08     00000 
   13    -245.1794706229      1.56e-09     00000 Convergence criterion met
Timing for Total SCF: 767.00s (wall), 1522.64s (cpu)

************** Final PCM Free Energy Summary **************
 G_electrostatic  =      -0.08161054 hartree =     -51.21138988 kcal/mol
 G_cavitation     =       0.00000000 hartree =       0.00000000 kcal/mol
 G_dispersion     =       0.00000000 hartree =       0.00000000 kcal/mol
 G_repulsion      =       0.00000000 hartree =       0.00000000 kcal/mol
 --------------------------------------------------
 Non-electrostatic Free Energy =       0.00000000 hartree =       0.00000000 kcal/mol
 Total                         =      -0.08161054 hartree =     -51.21138988 kcal/mol
 --------------------------------------------------
 SCF Energy (H0 + V/2)                       =    -245.17947062 
 Solute Internal Energy (H0)                 =    -245.09786008 
 Total Free Energy (H0 + V/2 + non-elec)     =    -245.17947062 hartree
                                             = -153852.43991065 kcal/mol
***********************************************************

E_pcm = -0.0816105449
Multipole orders to be included
        2
        3
computing dipole RHS
computing quadrupole RHS
total number of RHS in solve_reponses: 8
RHS batch sizes
        8
Beginning Block Conjugate Gradient Iterations. Batch Number: 0
computing hessian-vector products by finite difference
              1      4.50e-01     00000 Conjugate Gradient Iteration
computing hessian-vector products by finite difference
              2      1.73e-01     00000 Conjugate Gradient Iteration
computing hessian-vector products by finite difference
              3      4.99e-02     00000 Conjugate Gradient Iteration
computing hessian-vector products by finite difference
              4      1.40e-02     00000 Conjugate Gradient Iteration
computing hessian-vector products by finite difference
              5      2.17e-03     00000 Conjugate Gradient Iteration
computing hessian-vector products by finite difference
              6      3.40e-04     00000 Conjugate Gradient Iteration
computing hessian-vector products by finite difference
              7      4.14e-05     00000 Conjugate Gradient Iteration
computing hessian-vector products by finite difference
              8      5.72e-06     00000 Conjugate Gradient Iteration
computing hessian-vector products by finite difference
              9      1.33e-06     00000 Conjugate Gradient Iteration
computing hessian-vector products by finite difference
             10      2.17e-07     00000 Conjugate Gradient Iteration
computing hessian-vector products by finite difference
             11      3.29e-08     00000 Conjugate Gradient Iteration
computing hessian-vector products by finite difference
             12      3.99e-09     00000 CG Converged
batch 0 complete
Done Calculating Responses
TESTING ORTHOGONALIZATION OF MULTIPOLE BASIS
Multipole virts passed orthogonality test
Virts Per Order
           60
          100
 
 --------------------------------------------------------------
 
                    Orbital Energies (a.u.)
 --------------------------------------------------------------
 
 Alpha MOs
 -- Occupied --
-14.4817 -14.4801 -14.4756 -10.4503 -10.3302  -1.1997  -1.0836  -1.0683
 -0.8777  -0.7926  -0.7529  -0.7110  -0.6472  -0.6446  -0.6196  -0.5940
 -0.5519  -0.5336  -0.4259  -0.4010
 -- Virtual --
  0.0476   0.0749   0.0795   0.0861   0.1133   0.1149   0.1211   0.1423
  0.1575   0.1665   0.1762   0.1863   0.1925   0.1969   0.2086   0.2215
  0.2321   0.2328   0.2390   0.2553   0.2655   0.2739   0.2835   0.2898
  0.2946   0.3025   0.3104   0.3120   0.3244   0.3312   0.3400   0.3496
  0.3522   0.3620   0.3653   0.3811   0.3967   0.3988   0.4031   0.4149
  0.4257   0.4401   0.4468   0.4484   0.4615   0.4641   0.4763   0.4853
  0.4887   0.4947   0.5004   0.5046   0.5123   0.5207   0.5342   0.5353
  0.5398   0.5609   0.5701   0.5715   0.5957   0.6057   0.6228   0.6341
  0.6464   0.6587   0.6688   0.6883   0.7063   0.7148   0.7319   0.7464
  0.7750   0.7823   0.7965   0.8097   0.8189   0.8242   0.8408   0.8476
  0.8601   0.8688   0.8839   0.9041   0.9162   0.9527   0.9711   0.9825
  1.0197   1.0508   1.0571   1.0728   1.0825   1.0937   1.1054   1.1151
  1.1336   1.1566   1.1864   1.2337   1.2503   1.3128   1.3290   1.3924
  1.4016   1.4292   1.4498   1.4666   1.5329   1.5517   1.6183   1.6463
  1.6495   1.6837   1.7296   1.7770   1.8169   1.8360   1.8490   1.8618
  1.8914   1.9020   1.9193   1.9395   1.9648   1.9744   2.0015   2.0428
  2.0892   2.1067   2.1584   2.1698   2.1900   2.2071   2.2400   2.2844
  2.3024   2.3238   2.3410   2.3762   2.4176   2.4566   2.4579   2.4907
  2.5315   2.5548   2.5913   2.5995   2.6180   2.6512   2.6812   2.7202
  2.7716   2.7925   2.8187   2.8388   2.8737   2.9030   2.9094   2.9200
  3.0198   3.0978   3.1097   3.1294   3.1494   3.1706   3.1788   3.2204
  3.2509   3.2730   3.2837   3.2965   3.3467   3.3582   3.3872   3.4169
  3.4258   3.4674   3.4990   3.5441   3.5781   3.6375   3.6699   3.7127
  3.7999   3.8602   3.8986   3.9354   4.0688   4.1205   4.1565   4.1893
  4.2540   4.2972   4.3163   4.3293   4.3539   4.4448   4.5351   4.5958
  4.6528   4.8102   4.8389   4.8453   4.9074   4.9532   4.9945   5.0238
  5.0930   5.1031   5.1107   5.1201   5.1642   5.2002   5.2610   5.3032
  5.3398   5.3852   5.3950   5.4325   5.4651   5.4785   5.5525   5.6048
  5.6707   5.7580   5.7824   5.8571   6.1048   6.1542   6.3386   6.4460
 22.6327  23.6029  32.3041  32.4230  32.7903
 --------------------------------------------------------------
 
          Ground-State Mulliken Net Atomic Charges

     Atom                 Charge (a.u.)
  ----------------------------------------
      1 C                    -0.793422
      2 C                     0.577286
      3 N                    -0.251703
      4 N                    -0.077044
      5 N                    -0.275481
      6 H                     0.178464
      7 H                     0.196418
      8 H                     0.237422
      9 H                     0.196165
     10 H                     0.198261
     11 H                     0.260695
     12 H                     0.279838
     13 H                     0.273100
  ----------------------------------------
  Sum of atomic charges =     1.000000

 -----------------------------------------------------------------
                    Cartesian Multipole Moments
 -----------------------------------------------------------------
    Charge (ESU x 10^10)
                 4.8032
    Dipole Moment (Debye)
         X      -0.7247      Y      -8.0422      Z      -7.3922
       Tot      10.9475
    Quadrupole Moments (Debye-Ang)
        XX     -14.8223     XY       4.7031     YY     -11.7821
        XZ      -1.3901     YZ      19.5143     ZZ     -11.1615
    Octopole Moments (Debye-Ang^2)
       XXX     -22.5334    XXY      17.5208    XYY     -19.6758
       YYY      84.2566    XXZ      24.3789    XYZ      -4.8758
       YYZ      -7.5660    XZZ      -1.2454    YZZ     -10.4773
       ZZZ      86.6103
    Hexadecapole Moments (Debye-Ang^3)
      XXXX    -245.6813   XXXY       0.4088   XXYY     -85.1605
      XYYY      18.4554   YYYY    -372.6228   XXXZ      23.4934
      XXYZ     -31.9437   XYYZ      31.8102   YYYZ     -81.5303
      XXZZ    -103.2782   XYZZ      -1.4837   YYZZ     -12.6900
      XZZZ      15.9565   YZZZ     -72.0770   ZZZZ    -384.5143
 -----------------------------------------------------------------
Archival summary:
1\1\nid00511\SP\ProcedureUnspecified\BasisUnspecified\328(1+,1)\meili\SunSep2607:52:032021SunSep2607:52:032021\0\\#,ProcedureUnspecified,BasisUnspecified,\\1,1\C\N,1,1.31855\H,2,1.007,1,121.972\H,2,1.02057,1,116.413,3,176.993,0\N,1,1.3235,2,118.483,3,-177.778,0\H,5,1.01725,1,116.261,2,0.330737,0\H,5,1.01858,1,122.254,2,174.057,0\N,1,1.33222,2,119.186,3,1.90597,0\H,8,1.01009,1,117.254,2,-2.43751,0\C,8,1.46423,1,125.5,2,-179.528,0\H,10,1.09133,8,110.679,1,37.0334,0\H,10,1.09177,8,109.882,1,156.251,0\H,10,1.1,8,108.987,1,-83.7227,0\\\@

 Total job time:  14213.84s(wall), 28175.40s(cpu) 
 Sun Sep 26 07:52:05 2021

        *************************************************************
        *                                                           *
        *  Thank you very much for using Q-Chem.  Have a nice day.  *
        *                                                           *
        *************************************************************


Done Job For Fragment 0
calling putenv with: QCSCRATCH=/global/cscratch1/sd/meili 
calling putenv with: QCLOCALSCR=/tmp 
calling putenv with: QCTHREADS=32 
Creating input file /tmp/qchem62833/Frg2.input
using default PutDataFrgm: nothing
calling putenv with: QCSCRATCH=/tmp/qchem62833/ 
calling putenv with: QCLOCALSCR=/tmp/qchem62833/ 
Spawning Job For Fragment 1
                  Welcome to Q-Chem
     A Quantum Leap Into The Future Of Chemistry


 Q-Chem 5.2, Q-Chem, Inc., Pleasanton, CA (2019)

 License issued to: National Energy Research Scientific Computing Center

 Yihan Shao,  Zhengting Gan,  E. Epifanovsky,  A. T. B. Gilbert,  M. Wormit,  
 J. Kussmann,  A. W. Lange,  A. Behn,  Jia Deng,  Xintian Feng,  D. Ghosh,  
 M. Goldey,  P. R. Horn,  L. D. Jacobson,  I. Kaliman,  T. Kus,  A. Landau,  
 Jie Liu,  E. I. Proynov,  R. M. Richard,  R. P. Steele,  E. J. Sundstrom,  
 H. L. Woodcock III,  P. M. Zimmerman,  D. Zuev,  B. Albrecht,  E. Alguire,  
 S. A. Baeppler,  D. Barton,  Z. Benda,  Y. A. Bernard,  E. J. Berquist,  
 K. B. Bravaya,  H. Burton,  D. Casanova,  Chun-Min Chang,  Yunqing Chen,  
 A. Chien,  K. D. Closser,  M. P. Coons,  S. Coriani,  S. Dasgupta,  
 A. L. Dempwolff,  M. Diedenhofen,  Hainam Do,  R. G. Edgar,  Po-Tung Fang,  
 S. Faraji,  S. Fatehi,  Qingguo Feng,  K. D. Fenk,  J. Fosso-Tande,  
 J. Gayvert,  Qinghui Ge,  A. Ghysels,  G. Gidofalvi,  J. Gomes,  
 J. Gonthier,  A. Gunina,  D. Hait,  M. W. D. Hanson-Heine,  
 P. H. P. Harbach,  A. W. Hauser,  M. F. Herbst,  J. E. Herr,  
 E. G. Hohenstein,  Z. C. Holden,  Kerwin Hui,  B. C. Huynh,  T.-C. Jagau,  
 Hyunjun Ji,  B. Kaduk,  K. Khistyaev,  Jaehoon Kim,  P. Klunzinger,  K. Koh,  
 D. Kosenkov,  L. Koulias,  T. Kowalczyk,  C. M. Krauter,  A. Kunitsa,  
 Ka Un Lao,  A. Laurent,  K. V. Lawler,  Joonho Lee,  D. Lefrancois,  
 S. Lehtola,  D. S. Levine,  Yi-Pei Li,  You-Sheng Lin,  Fenglai Liu,  
 E. Livshits,  A. Luenser,  P. Manohar,  E. Mansoor,  S. F. Manzer,  
 Shan-Ping Mao,  Yuezhi Mao,  N. Mardirossian,  A. V. Marenich,  
 T. Markovich,  L. A. Martinez-Martinez,  S. A. Maurer,  N. J. Mayhall,  
 S. C. McKenzie,  J.-M. Mewes,  P. Morgante,  A. F. Morrison,  
 J. W. Mullinax,  K. Nanda,  T. S. Nguyen-Beck,  R. Olivares-Amaya,  
 J. A. Parkhill,  Zheng Pei,  T. M. Perrine,  F. Plasser,  P. Pokhilko,  
 S. Prager,  A. Prociuk,  E. Ramos,  D. R. Rehn,  F. Rob,  M. Scheurer,  
 M. Schneider,  N. Sergueev,  S. M. Sharada,  S. Sharma,  D. W. Small,  
 T. Stauch,  T. Stein,  Yu-Chuan Su,  A. J. W. Thom,  A. Tkatchenko,  
 T. Tsuchimochi,  N. M. Tubman,  L. Vogt,  M. L. Vidal,  O. Vydrov,  
 M. A. Watson,  J. Wenzel,  M. de Wergifosse,  T. A. Wesolowski,  A. White,  
 J. Witte,  A. Yamada,  Jun Yang,  K. Yao,  S. Yeganeh,  S. R. Yost,  
 Zhi-Qiang You,  A. Zech,  Igor Ying Zhang,  Xing Zhang,  Yan Zhao,  
 Ying Zhu,  B. R. Brooks,  G. K. L. Chan,  C. J. Cramer,  M. S. Gordon,  
 W. J. Hehre,  A. Klamt,  M. W. Schmidt,  C. D. Sherrill,  D. G. Truhlar,  
 A. Aspuru-Guzik,  R. Baer,  A. T. Bell,  N. A. Besley,  Jeng-Da Chai,  
 A. E. DePrince, III,  R. A. DiStasio Jr.,  A. Dreuw,  B. D. Dunietz,  
 T. R. Furlani,  Chao-Ping Hsu,  Yousung Jung,  Jing Kong,  D. S. Lambrecht,  
 WanZhen Liang,  C. Ochsenfeld,  V. A. Rassolov,  L. V. Slipchenko,  
 J. E. Subotnik,  T. Van Voorhis,  J. M. Herbert,  A. I. Krylov,  
 P. M. W. Gill,  M. Head-Gordon

 Contributors to earlier versions of Q-Chem not listed above: 
 R. D. Adamson,  B. Austin,  J. Baker,  G. J. O. Beran,  K. Brandhorst,  
 S. T. Brown,  E. F. C. Byrd,  A. K. Chakraborty,  C.-L. Cheng,  
 Siu Hung Chien,  D. M. Chipman,  D. L. Crittenden,  H. Dachsel,  
 R. J. Doerksen,  A. D. Dutoi,  L. Fusti-Molnar,  W. A. Goddard III,  
 A. Golubeva-Zadorozhnaya,  S. R. Gwaltney,  G. Hawkins,  A. Heyden,  
 S. Hirata,  G. Kedziora,  F. J. Keil,  C. Kelley,  Jihan Kim,  R. A. King,  
 R. Z. Khaliullin,  P. P. Korambath,  W. Kurlancheek,  A. M. Lee,  M. S. Lee,  
 S. V. Levchenko,  Ching Yeh Lin,  D. Liotard,  R. C. Lochan,  I. Lotan,  
 P. E. Maslen,  N. Nair,  D. P. O'Neill,  D. Neuhauser,  E. Neuscamman,  
 C. M. Oana,  R. Olson,  B. Peters,  R. Peverati,  P. A. Pieniazek,  
 Y. M. Rhee,  J. Ritchie,  M. A. Rohrdanz,  E. Rosta,  N. J. Russ,  
 H. F. Schaefer III,  N. E. Schultz,  N. Shenvi,  A. C. Simmonett,  A. Sodt,  
 D. Stuck,  K. S. Thanthiriwatte,  V. Vanovschi,  Tao Wang,  A. Warshel,  
 C. F. Williams,  Q. Wu,  X. Xu,  W. Zhang

 Please cite Q-Chem as follows:
 Y. Shao et al., Mol. Phys. 113, 184-215 (2015)
 DOI: 10.1080/00268976.2014.952696

 Q-Chem 5.2.0 for Intel X86 EM64T Linux

 Parts of Q-Chem use Armadillo 8.300.2 (Tropical Shenanigans).
 http://arma.sourceforge.net/

 Q-Chem begins on Sun Sep 26 07:52:08 2021  

Host: cori01
0

     Scratch files written to /tmp/qchem62833//Frg2//
 May1019 |scratch|qcdevops|jenkins|workspace|build_RNUM -1
Processing $rem in /global/common/cori/software/qchem/5.2/config/preferences:
	 MEM_TOTAL  96000 
NAlpha2: 32
NElect   32
Mult     1
Symmetry turned off for PCM/SM12/SMD calculation

Checking the input file for inconsistencies... 	...done.

--------------------------------------------------------------
User input:
--------------------------------------------------------------
$molecule
-1 1
 6	-1.1836305335	2.5499665058	1.1556058775
 6	-0.1266305335	1.8219665058	1.9836058775
 8	0.3453694665	0.7479665058	1.5356058775
 8	0.2203694665	2.3019665058	3.0866058775
 1	-1.9396305335	1.8349665058	0.8326058775
 1	-0.6986305335	2.9249665058	0.2506058775
 1	-1.6407805335	3.4137965058	1.6603948775
$end
$rem
EDA2		1
METHOD		WB97X-V
BASIS		DEF2-TZVPD
XC_GRID		000099000590
NL_GRID		1
UNRESTRICTED		FALSE
MAX_SCF_CYCLES		200
SYMMETRY		FALSE
SYM_IGNORE		TRUE
BASIS_LIN_DEP_THRESH		6
THRESH		14
SCF_CONVERGENCE		8
SCF_PRINT_FRGM		TRUE
SOLVENT_METHOD		PCM
!required keywords
JOBTYPE		SP
SYM_IGNORE		TRUE
SUBSYSTEM		TRUE
GEN_SCFMAN		TRUE
CHILD_INSTRUCTION		2
SYM_IGNORE		TRUE
SCFMI		0
RI_K 0		
PARI_K 0		
MIN_PARI_K 0		
IARI_K 0		
OCC_RI_K 0		
PURECART		1111
MEM_STATIC		2000
MEM_TOTAL		96000
GUI		0
CHILD_MP		1
CHILD_MP_ORDERS		232
FRZ_RELAX		0
FRZ_RELAX_METHOD		0
EDA_CLS_ELEC		1
EDA_CLS_DISP		0
FRZ_ORTHO_DECOMP		1
EDA2		FALSE
FRGM_METHOD		FALSE
CIS_N_ROOTS  0
LOCAL_CIS    0
CIS_RLX_DNS  1
$end
$pcm
THEORY                  CPCM
METHOD                  SWIG
SOLVER                  INVERSION
RADII                   UFF
HPOINTS                 302
HEAVYPOINTS             302
PRINTLEVEL              0
$end
$solvent
DIELECTRIC              78.390000 ! water
$end
--------------------------------------------------------------
 ----------------------------------------------------------------
             Standard Nuclear Orientation (Angstroms)
    I     Atom           X                Y                Z
 ----------------------------------------------------------------
    1      C      -1.1836305335     2.5499665058     1.1556058775
    2      C      -0.1266305335     1.8219665058     1.9836058775
    3      O       0.3453694665     0.7479665058     1.5356058775
    4      O       0.2203694665     2.3019665058     3.0866058775
    5      H      -1.9396305335     1.8349665058     0.8326058775
    6      H      -0.6986305335     2.9249665058     0.2506058775
    7      H      -1.6407805335     3.4137965058     1.6603948775
 ----------------------------------------------------------------
 Nuclear Repulsion Energy =         112.37471735 hartrees
 There are       16 alpha and       16 beta electrons
 Requested basis set is def2-TZVPD
 There are 69 shells and 181 basis functions

 Total QAlloc Memory Limit  96000 MB
 Mega-Array Size      1956 MB
 MEM_STATIC part      2000 MB
 Discretize the solute cavity surface with Lebedev spheres
	Using 302 Lebedev grid points for each H atom
	Using 302 Lebedev grid points for other atoms
	Atomic van der Waals radii will be scaled by 1.20
 Remove points where switching function is < 1.0e-08
 Keep 1012 surface tesserae and discard 1102 interior tesserae
 Molecular Surface Area = 120.291 Angst**2

                       Distance Matrix (Angstroms)
             C (  1)   C (  2)   O (  3)   O (  4)   H (  5)   H (  6)
   C (  2)  1.527356
   O (  3)  2.393626  1.255772
   O (  4)  2.400309  1.251966  2.199123
   H (  5)  1.089537  2.147543  2.626215  3.156613
   H (  6)  1.093103  2.132389  2.735048  3.045585  1.751258
   H (  7)  1.100000  2.220594  3.326712  2.595019  1.807554  1.764683

 
 A cutoff of  1.0D-14 yielded   2391 shell pairs
 There are     16695 function pairs (     21491 Cartesian)
 Smallest overlap matrix eigenvalue = 1.67E-05

 Scale SEOQF with 1.000000e-01/1.000000e-01/1.000000e-01

 Standard Electronic Orientation quadrupole field applied
 Nucleus-field energy     =    -0.0000000041 hartrees
 Guess from superposition of atomic densities
 Warning:  Energy on first SCF cycle will be non-variational
 SAD guess density has 30.625312 electrons

 -----------------------------------------------------------------------
  General SCF calculation program by
  Eric Jon Sundstrom, Paul Horn, Yuezhi Mao, Dmitri Zuev, Alec White,
  David Stuck, Shaama M.S., Shane Yost, Joonho Lee, David Small,
  Daniel Levine, Susi Lehtola, Hugh Burton, Evgeny Epifanovsky
 -----------------------------------------------------------------------
 Exchange:     0.1670 Hartree-Fock + 1.0000 wB97X-V + LR-HF
 Correlation:  1.0000 wB97X-V
 Using Euler-Maclaurin-Lebedev (99,590) quadrature formula
 Nonlocal Correlation:  VV10 with C = 0.0100 and b = 6.00 and scale = 1.00000
 Grid used for NLC:  SG-1 standard quadrature
Energy prior to optimization (guess energy) = -227.759619724538
Begin Timing: Total SCF Calculation
begin iterations for algorithm: DIIS         
the SCF tolerance is set to 1.00e-08
    1    -227.7596197245      1.66e-02     00000 
    2    -225.5701420925      2.55e-02     00000 
    3    -228.5765892341      4.15e-03     00000 
    4    -228.6356172461      1.43e-03     00000 
    5    -228.6419875818      3.47e-04     00000 
    6    -228.6422912502      2.53e-04     00000 
    7    -228.6424712365      4.64e-05     00000 
    8    -228.6424816439      1.41e-05     00000 
    9    -228.6424829707      2.90e-06     00000 
   10    -228.6424830735      3.95e-07     00000 
   11    -228.6424830763      1.39e-07     00000 
   12    -228.6424830766      4.71e-08     00000 
   13    -228.6424830766      1.86e-08     00000 
   14    -228.6424830766      2.75e-09     00000 Convergence criterion met
Timing for Total SCF: 303.00s (wall), 587.60s (cpu)

************** Final PCM Free Energy Summary **************
 G_electrostatic  =      -0.10193310 hartree =     -63.96398638 kcal/mol
 G_cavitation     =       0.00000000 hartree =       0.00000000 kcal/mol
 G_dispersion     =       0.00000000 hartree =       0.00000000 kcal/mol
 G_repulsion      =       0.00000000 hartree =       0.00000000 kcal/mol
 --------------------------------------------------
 Non-electrostatic Free Energy =       0.00000000 hartree =       0.00000000 kcal/mol
 Total                         =      -0.10193310 hartree =     -63.96398638 kcal/mol
 --------------------------------------------------
 SCF Energy (H0 + V/2)                       =    -228.64248308 
 Solute Internal Energy (H0)                 =    -228.54054998 
 Total Free Energy (H0 + V/2 + non-elec)     =    -228.64248308 hartree
                                             = -143475.32360355 kcal/mol
***********************************************************

E_pcm = -0.1019331011
Multipole orders to be included
        2
        3
computing dipole RHS
computing quadrupole RHS
total number of RHS in solve_reponses: 8
RHS batch sizes
        8
Beginning Block Conjugate Gradient Iterations. Batch Number: 0
computing hessian-vector products by finite difference
              1      6.43e-01     00000 Conjugate Gradient Iteration
computing hessian-vector products by finite difference
              2      2.29e-01     00000 Conjugate Gradient Iteration
computing hessian-vector products by finite difference
              3      6.02e-02     00000 Conjugate Gradient Iteration
computing hessian-vector products by finite difference
              4      1.56e-02     00000 Conjugate Gradient Iteration
computing hessian-vector products by finite difference
              5      2.70e-03     00000 Conjugate Gradient Iteration
computing hessian-vector products by finite difference
              6      6.23e-04     00000 Conjugate Gradient Iteration
computing hessian-vector products by finite difference
              7      1.01e-04     00000 Conjugate Gradient Iteration
computing hessian-vector products by finite difference
              8      1.24e-05     00000 Conjugate Gradient Iteration
computing hessian-vector products by finite difference
              9      1.96e-06     00000 Conjugate Gradient Iteration
computing hessian-vector products by finite difference
             10      2.36e-07     00000 Conjugate Gradient Iteration
computing hessian-vector products by finite difference
             11      5.03e-08     00000 Conjugate Gradient Iteration
computing hessian-vector products by finite difference
             12      9.54e-09     00000 CG Converged
batch 0 complete
Done Calculating Responses
TESTING ORTHOGONALIZATION OF MULTIPOLE BASIS
Multipole virts passed orthogonality test
Virts Per Order
        48
        80
 
 --------------------------------------------------------------
 
                    Orbital Energies (a.u.)
 --------------------------------------------------------------
 
 Alpha MOs
 -- Occupied --
-19.1225 -19.1215 -10.3264 -10.2409  -1.1309  -1.0300  -0.8287  -0.5929
 -0.5275  -0.5175  -0.5158  -0.4641  -0.4414  -0.3287  -0.3266  -0.3084
 -- Virtual --
  0.0633   0.0953   0.0955   0.1055   0.1303   0.1399   0.1431   0.1453
  0.1690   0.1908   0.1983   0.2226   0.2302   0.2359   0.2648   0.2666
  0.2995   0.3120   0.3345   0.3484   0.3524   0.3623   0.3719   0.3830
  0.3905   0.4007   0.4250   0.4268   0.4319   0.4619   0.4747   0.4797
  0.4895   0.4962   0.5055   0.5220   0.5569   0.5773   0.5984   0.6160
  0.6230   0.6411   0.6431   0.6634   0.6760   0.6788   0.6930   0.7119
  0.7213   0.7396   0.7776   0.7991   0.8105   0.8223   0.8446   0.8603
  0.8702   0.9784   0.9846   0.9951   1.0081   1.0495   1.0600   1.1295
  1.1712   1.2079   1.2605   1.2872   1.2999   1.3165   1.3459   1.3531
  1.4556   1.5677   1.6056   1.7418   1.8246   1.8593   1.8741   1.9253
  1.9273   1.9615   1.9664   1.9699   2.0237   2.1131   2.1324   2.1676
  2.2181   2.2245   2.3278   2.3469   2.4174   2.4409   2.4906   2.5088
  2.5676   2.5839   2.6283   2.6781   2.7843   2.8158   2.8722   2.9296
  2.9497   3.0109   3.0391   3.1880   3.2025   3.2516   3.2855   3.3183
  3.3430   3.3474   3.3932   3.4163   3.4411   3.5437   3.5685   3.5849
  3.6121   3.6601   3.6985   3.7350   3.7746   3.8746   3.9490   4.0405
  4.0820   4.2017   4.3627   4.5530   4.6184   4.6598   4.8150   4.8322
  4.9854   5.3339   5.3594   5.3693   5.3753   5.4972   5.7111   5.7729
  5.8183   6.0229   6.2320   6.3413   6.3498   6.6145   6.6304   6.7233
  6.7438   6.7601   6.9468   6.9797   7.0402   7.2478   7.3462   7.3874
  7.4136  22.5888  23.7193  44.2212  44.3408
 --------------------------------------------------------------
 
          Ground-State Mulliken Net Atomic Charges

     Atom                 Charge (a.u.)
  ----------------------------------------
      1 C                    -0.399690
      2 C                     0.293855
      3 O                    -0.682154
      4 O                    -0.671241
      5 H                     0.155381
      6 H                     0.135136
      7 H                     0.168714
  ----------------------------------------
  Sum of atomic charges =    -1.000000

 -----------------------------------------------------------------
                    Cartesian Multipole Moments
 -----------------------------------------------------------------
    Charge (ESU x 10^10)
                -4.8032
    Dipole Moment (Debye)
         X      -2.4895      Y      -6.4904      Z     -12.0168
       Tot      13.8826
    Quadrupole Moments (Debye-Ang)
        XX     -26.8778     XY      -2.9809     YY     -39.5021
        XZ      -5.6908     YZ     -21.6406     ZZ     -60.8270
    Octopole Moments (Debye-Ang^2)
       XXX      18.5865    XXY     -50.8257    XYY       1.6217
       YYY    -181.4580    XXZ     -50.9609    XYZ      -8.6825
       YYZ     -98.6484    XZZ      -7.3856    YZZ    -121.5494
       ZZZ    -255.1169
    Hexadecapole Moments (Debye-Ang^3)
      XXXX    -116.8884   XXXY      64.2767   XXYY    -135.7404
      XYYY      51.8751   YYYY    -768.2132   XXXZ       8.6394
      XXYZ     -96.8152   XYYZ     -14.2850   YYYZ    -406.7822
      XXZZ    -139.3307   XYZZ      -2.1417   YYZZ    -398.0455
      XZZZ     -25.7895   YZZZ    -523.7842   ZZZZ   -1027.9457
 -----------------------------------------------------------------
Archival summary:
1\1\nid00511\SP\ProcedureUnspecified\BasisUnspecified\223(1-,1)\meili\SunSep2609:15:172021SunSep2609:15:172021\0\\#,ProcedureUnspecified,BasisUnspecified,\\-1,1\C\O,1,1.25197\O,1,1.25577,2,122.55\C,1,1.52736,2,119.122,3,178.817,0\H,4,1.08954,1,109.154,2,-131.371,0\H,4,1.0931,1,107.775,2,113.096,0\H,4,1.1,1,114.402,2,-5.95061,0\\\@

 Total job time:  4990.63s(wall), 9778.84s(cpu) 
 Sun Sep 26 09:15:19 2021

        *************************************************************
        *                                                           *
        *  Thank you very much for using Q-Chem.  Have a nice day.  *
        *                                                           *
        *************************************************************


Done Job For Fragment 1
calling putenv with: QCSCRATCH=/global/cscratch1/sd/meili 
calling putenv with: QCLOCALSCR=/tmp 
calling putenv with: QCTHREADS=32 
Doing General SCFMI
 Exchange:     0.1670 Hartree-Fock + 1.0000 wB97X-V + LR-HF
 Correlation:  1.0000 wB97X-V
 Using Euler-Maclaurin-Lebedev (99,590) quadrature formula
 Nonlocal Correlation:  VV10 with C = 0.0100 and b = 6.00 and scale = 1.00000
 Grid used for NLC:  SG-1 standard quadrature
performing fock build before subrot guess so that all methods have access
Printing subrot_rss_gen Method Specification:
Occupied Subspace Method is 0
Virtual Subspace Method is 0
Energy of the unrelaxed supersystem initial determinant -473.758460216959
performing fock build before subrot guess so that all methods have access
Printing subrot_rss_gen Method Specification:
Occupied Subspace Method is 0
Virtual Subspace Method is 0
Energy of the unrelaxed supersystem initial determinant w/ solvent -473.833258966818
write pseudocanon occs and virts to disk
write pseudocanon orbital energies to disk
Tolerance of ortho_decomp_scf: 1.00e-06
GDM subspace size: 20
Beginning the Orthogonal Decomposition of the Initial Supersystem Wavefunction
    1    -473.5909465275      7.68e-02     ortho_decomp Preconditoned Steepest Descent
    2    -473.6007313714      2.13e-03     ortho_decomp BFGS Step
    3    -473.6007711041      1.78e-04     ortho_decomp BFGS Step
    4    -473.6007711821      7.72e-06     ortho_decomp BFGS Step
    5    -473.6007711824      2.46e-07     ortho_decomp 00000 Convergence criterion met
 Hartree-Fock
 Hartree-Fock
 Hartree-Fock
Doing General SCFMI
 Exchange:     0.1670 Hartree-Fock + 1.0000 wB97X-V + LR-HF
 Correlation:  1.0000 wB97X-V
 Using Euler-Maclaurin-Lebedev (99,590) quadrature formula
 Nonlocal Correlation:  VV10 with C = 0.0100 and b = 6.00 and scale = 1.00000
 Grid used for NLC:  SG-1 standard quadrature
performing fock build at end of subrot_r(subrot) constructor so that all methods have access
<S^2> of initial wavefunction before polarization iterations 0.0000000000
Beginning iterations for the determination of the polarized wavefunction
Energy prior to optimization (guess energy) = -473.833258966818
Begin Timing: Total SCF Calculation
begin iterations for algorithm: DIIS         
the SCF tolerance is set to 1.00e-08
    1    -473.8332589668      2.23e-04     00000 
    2    -473.8360741674      8.00e-05     00000 
    3    -473.8363371648      5.12e-05     00000 
    4    -473.8364143633      1.45e-05     00000 
    5    -473.8364233892      5.72e-06     00000 
    6    -473.8364251261      2.68e-06     00000 
    7    -473.8364254654      1.20e-06     00000 
    8    -473.8364255216      5.02e-07     00000 
    9    -473.8364255316      2.04e-07     00000 
   10    -473.8364255328      7.66e-08     00000 
   11    -473.8364255330      2.12e-08     00000 
   12    -473.8364255330      9.90e-09     00000 Convergence criterion met
write pseudocanon occs and virts to disk
write pseudocanon orbital energies to disk
Timing for Total SCF: 2749.00s (wall), 5459.63s (cpu)
<S^2> of polarized wavefunction after polarization iterations 0.0000000000
relaxing scfmi constraint to allow all rotations in the entire AO span
Doing General SCFMI
 Exchange:     0.1670 Hartree-Fock + 1.0000 wB97X-V + LR-HF
 Correlation:  1.0000 wB97X-V
 Using Euler-Maclaurin-Lebedev (99,590) quadrature formula
 Nonlocal Correlation:  VV10 with C = 0.0100 and b = 6.00 and scale = 1.00000
 Grid used for NLC:  SG-1 standard quadrature
performing fock build at end of subrot_r(subrot) constructor so that all methods have access
<S^2> of polarized wavefunction before ct-allowed iterations 0.0000000000
Beginning iterations for the determination of the CT-Allowed wavefunction
Energy prior to optimization (guess energy) = -473.836425533017
Begin Timing: Total SCF Calculation
begin iterations for algorithm: DIIS         
the SCF tolerance is set to 1.00e-08
    1    -473.8364255330      1.82e-04     00000 
    2    -473.8402880782      3.03e-05     00000 
    3    -473.8404645027      1.65e-05     00000 
    4    -473.8404830861      7.69e-06     00000 
    5    -473.8404886268      2.06e-06     00000 
    6    -473.8404890236      7.06e-07     00000 
    7    -473.8404890978      2.85e-07     00000 
    8    -473.8404891078      6.19e-08     00000 
    9    -473.8404891087      2.80e-08     00000 
   10    -473.8404891088      9.39e-09     00000 Convergence criterion met
write pseudocanon occs and virts to disk
write pseudocanon orbital energies to disk
Timing for Total SCF: 2259.00s (wall), 4486.15s (cpu)
<S^2> of ct_allowed wavefunction after ct-allowed iterations 0.0000000000

================================
        Results of EDA2         
================================
Basic EDA Quantities
--------------------
Fragment Energies (Ha):
1 -245.1794706229
2 -228.6424830766
--------------------
  E_prp (kJ/mol) = 0.0000
  E_sol (kJ/mol) = 285.5131
  E_frz (kJ/mol) = -315.1954
  E_pol (kJ/mol) = -8.3139
  E_vct (kJ/mol) = -10.6690
  E_int (kJ/mol) = -48.6653
--------------------


Initial Wavefunction Decomposition
--------------------
  --------------------
  Orthogonal Fragment Subspace Decomposition:
  --------------------
     E_elec   (ELEC)   (kJ/mol) = -380.7035
     E_pauli  (PAULI)  (kJ/mol) = 80.5896
     E_disp   (DISP)   (kJ/mol) = -15.0815
     --------------------
     Terms summing to E_pauli:
     --------------------
        E_kep_pauli       (kJ/mol) = 98.8220
        E_disp_free_pauli (kJ/mol) = -18.2325
  --------------------
  Classical Frozen Decomposition:
  --------------------
     E_cls_elec  (CLS ELEC)  (kJ/mol) = -348.6749
     E_cls_pauli (CLS PAULI) (kJ/mol) = 33.4794
    [E_mod_pauli (MOD PAULI) (kJ/mol) = 48.5609 (CLS PAULI - DISP from orthogonal decomposition) ]
  --------------------
--------------------

Simplified EDA Summary (kJ/mol)
--------------------
 PREPARATION     0.0000
 SOLVATION       285.5131
 FROZEN          -300.1140      (does not include dispersion)
[PAULI           80.5896]     (if this is negligible, then frozen describes electrostatics)
 DISPERSION      -15.0815
 POLARIZATION    -8.3139
 CHARGE TRANSFER -10.6690
 TOTAL           -48.6653     (PRP + SOL + FRZ + DISP + POL + CT)
--------------------
 
 --------------------------------------------------------------
 
                    Orbital Energies (a.u.)
 --------------------------------------------------------------
 
 Alpha MOs
 -- Occupied --
-19.1368 -19.1309 -14.4727 -14.4672 -14.4569 -10.4378 -10.3375 -10.3209
-10.2466  -1.1880  -1.1427  -1.0737  -1.0541  -1.0420  -0.8686  -0.8352
 -0.7791  -0.7404  -0.7013  -0.6368  -0.6309  -0.6095  -0.6001  -0.5853
 -0.5425  -0.5356  -0.5292  -0.5251  -0.5217  -0.4728  -0.4498  -0.4117
 -0.3924  -0.3406  -0.3385  -0.3206
 -- Virtual --
  0.0490   0.0659   0.0776   0.0854   0.0921   0.0954   0.1033   0.1127
  0.1195   0.1248   0.1267   0.1339   0.1501   0.1580   0.1626   0.1676
  0.1724   0.1816   0.1854   0.1938   0.1990   0.2070   0.2106   0.2139
  0.2182   0.2286   0.2373   0.2424   0.2447   0.2514   0.2628   0.2635
  0.2737   0.2778   0.2785   0.2855   0.2878   0.2965   0.3023   0.3063
  0.3122   0.3161   0.3199   0.3262   0.3297   0.3355   0.3467   0.3489
  0.3532   0.3579   0.3592   0.3683   0.3784   0.3819   0.3878   0.3938
  0.3991   0.4046   0.4057   0.4121   0.4146   0.4208   0.4295   0.4367
  0.4398   0.4430   0.4579   0.4597   0.4656   0.4684   0.4782   0.4824
  0.4868   0.4888   0.4934   0.5008   0.5051   0.5062   0.5101   0.5166
  0.5192   0.5267   0.5303   0.5367   0.5387   0.5503   0.5545   0.5709
  0.5734   0.5817   0.5838   0.5858   0.5929   0.5953   0.6104   0.6134
  0.6224   0.6311   0.6333   0.6503   0.6573   0.6593   0.6722   0.6764
  0.6826   0.6903   0.6957   0.6994   0.7083   0.7101   0.7146   0.7241
  0.7282   0.7395   0.7458   0.7528   0.7686   0.7760   0.7786   0.7926
  0.8056   0.8101   0.8153   0.8270   0.8335   0.8363   0.8435   0.8505
  0.8531   0.8604   0.8656   0.8763   0.8861   0.8939   0.9085   0.9204
  0.9325   0.9422   0.9555   0.9727   0.9780   0.9895   1.0095   1.0170
  1.0193   1.0390   1.0524   1.0606   1.0667   1.0838   1.0870   1.1029
  1.1047   1.1148   1.1338   1.1459   1.1605   1.1676   1.1813   1.1899
  1.2050   1.2095   1.2291   1.2498   1.2657   1.2821   1.2874   1.3290
  1.3353   1.3446   1.3591   1.3706   1.3901   1.4080   1.4212   1.4280
  1.4508   1.4625   1.5003   1.5037   1.5127   1.5832   1.6022   1.6185
  1.6234   1.6691   1.6878   1.7069   1.7296   1.7688   1.7866   1.8164
  1.8464   1.8500   1.8787   1.8804   1.8869   1.9014   1.9085   1.9147
  1.9331   1.9507   1.9679   1.9698   1.9803   1.9881   1.9944   2.0128
  2.0133   2.0363   2.0419   2.0660   2.0745   2.1128   2.1261   2.1377
  2.1688   2.1857   2.2034   2.2158   2.2350   2.2367   2.2482   2.2573
  2.3113   2.3207   2.3367   2.3504   2.3635   2.3671   2.4077   2.4279
  2.4441   2.4726   2.4843   2.4892   2.5130   2.5347   2.5479   2.5526
  2.5750   2.5896   2.6070   2.6166   2.6439   2.6530   2.6629   2.6797
  2.6924   2.7095   2.7358   2.7639   2.8010   2.8176   2.8236   2.8502
  2.8600   2.8758   2.8968   2.9113   2.9258   2.9472   2.9533   2.9572
  2.9747   3.0384   3.0878   3.1157   3.1242   3.1308   3.1583   3.1898
  3.2079   3.2133   3.2217   3.2374   3.2454   3.2680   3.2891   3.3030
  3.3039   3.3184   3.3464   3.3517   3.3662   3.3703   3.3761   3.3899
  3.4235   3.4381   3.4481   3.4503   3.4610   3.4918   3.5046   3.5275
  3.5683   3.5876   3.6099   3.6297   3.6402   3.6523   3.6626   3.6824
  3.6955   3.7303   3.7432   3.7780   3.7828   3.8337   3.8835   3.8939
  3.9335   3.9640   3.9674   4.0626   4.0886   4.0967   4.1455   4.1795
  4.2102   4.2136   4.2739   4.3137   4.3362   4.3478   4.3738   4.3826
  4.4646   4.5520   4.5602   4.6159   4.6410   4.6730   4.6747   4.8317
  4.8338   4.8566   4.8798   4.9001   4.9277   4.9778   5.0058   5.0346
  5.0504   5.1274   5.1345   5.1474   5.1582   5.1800   5.2221   5.2838
  5.3237   5.3243   5.3474   5.3624   5.3748   5.3890   5.4114   5.4203
  5.4504   5.4859   5.4896   5.5059   5.5823   5.6374   5.7069   5.7117
  5.7726   5.7839   5.8037   5.8156   5.8775   6.0326   6.1306   6.1724
  6.2524   6.3487   6.3710   6.3944   6.4644   6.6349   6.6467   6.7492
  6.7607   6.7760   6.9547   6.9939   7.0470   7.2541   7.3640   7.3944
  7.4712  22.6162  22.6665  23.6413  23.7414  32.3801  32.4961  32.8455
 44.3852  44.4077
 --------------------------------------------------------------
 
          Ground-State Mulliken Net Atomic Charges

     Atom                 Charge (a.u.)
  ----------------------------------------
      1 C                    -0.716654
      2 C                     0.536393
      3 N                    -0.063123
      4 N                    -0.080132
      5 N                    -0.270105
      6 H                     0.049112
      7 H                     0.217297
      8 H                     0.227353
      9 H                     0.193257
     10 H                     0.202210
     11 H                     0.262910
     12 H                     0.249351
     13 H                     0.241508
     14 C                    -0.423253
     15 C                     0.280423
     16 O                    -0.689126
     17 O                    -0.677042
     18 H                     0.154522
     19 H                     0.137452
     20 H                     0.167648
  ----------------------------------------
  Sum of atomic charges =     0.000000

 -----------------------------------------------------------------
                    Cartesian Multipole Moments
 -----------------------------------------------------------------
    Charge (ESU x 10^10)
                -0.0000
    Dipole Moment (Debye)
         X      -3.1747      Y     -13.6752      Z     -18.4461
       Tot      23.1808
    Quadrupole Moments (Debye-Ang)
        XX     -42.2845     XY       1.3589     YY     -51.1407
        XZ      -6.9133     YZ      -2.0803     ZZ     -71.7563
    Octopole Moments (Debye-Ang^2)
       XXX      -4.9104    XXY     -31.0247    XYY     -18.1261
       YYY     -89.5213    XXZ     -24.0752    XYZ     -13.3213
       YYZ    -100.6959    XZZ      -8.5474    YZZ    -126.2578
       ZZZ    -159.5664
    Hexadecapole Moments (Debye-Ang^3)
      XXXX    -368.3318   XXXY      63.8207   XXYY    -221.3780
      XYYY      65.8326   YYYY   -1135.5010   XXXZ      34.1389
      XXYZ    -129.6966   XYYZ      16.1282   YYYZ    -486.1379
      XXZZ    -244.5466   XYZZ      -4.1952   YYZZ    -408.1093
      XZZZ      -8.2212   YZZZ    -591.6054   ZZZZ   -1403.5834
 -----------------------------------------------------------------
Archival summary:
1\1\nid00511\SP\ProcedureUnspecified\BasisUnspecified\23411\meili\SunSep2611:38:022021SunSep2611:38:022021\0\\#,ProcedureUnspecified,BasisUnspecified,\\0,1\O\C,1,1.25577\O,2,1.25197,1,122.55\C,2,1.52736,1,118.318,3,-178.826,0\H,4,1.08954,2,109.154,1,47.4964,0\H,4,1.0931,2,107.775,1,-68.0361,0\H,4,1.1,2,114.402,1,172.917,0\H,1,1.96025,2,132.231,3,169.561,0\N,8,1.01858,1,157.724,2,-56.8403,0\H,9,1.01725,8,121.18,1,2.66997,0\C,9,1.3235,8,122.254,1,-170.752,0\N,11,1.31855,9,118.483,8,174.057,0\H,12,1.007,11,121.972,9,-177.778,0\H,12,1.02057,11,116.413,9,-0.784861,0\N,11,1.33222,9,122.33,8,-5.61699,0\H,15,1.01009,11,117.254,9,177.234,0\C,15,1.46423,11,125.5,9,0.143679,0\H,17,1.09133,15,110.679,11,37.0334,0\H,17,1.09177,15,109.882,11,156.251,0\H,17,1.1,15,108.987,11,-83.7227,0\\\@

 Total job time:  27776.68s(wall), 17033.53s(cpu) 
 Sun Sep 26 11:38:04 2021

        *************************************************************
        *                                                           *
        *  Thank you very much for using Q-Chem.  Have a nice day.  *
        *                                                           *
        *************************************************************


