                  Welcome to Q-Chem
     A Quantum Leap Into The Future Of Chemistry


 Q-Chem 5.2 (devel), Q-Chem, Inc., Pleasanton, CA (2019)

 Yihan Shao,  Zhengting Gan,  E. Epifanovsky,  A. T. B. Gilbert,  M. Wormit,  
 J. Kussmann,  A. W. Lange,  A. Behn,  Jia Deng,  Xintian Feng,  D. Ghosh,  
 M. Goldey,  P. R. Horn,  L. D. Jacobson,  I. Kaliman,  T. Kus,  A. Landau,  
 Jie Liu,  E. I. Proynov,  R. M. Richard,  R. P. Steele,  E. J. Sundstrom,  
 H. L. Woodcock III,  P. M. Zimmerman,  D. Zuev,  B. Albrecht,  E. Alguire,  
 S. A. Baeppler,  D. Barton,  Z. Benda,  Y. A. Bernard,  E. J. Berquist,  
 K. B. Bravaya,  H. Burton,  D. Casanova,  Chun-Min Chang,  Yunqing Chen,  
 A. Chien,  K. D. Closser,  M. P. Coons,  S. Coriani,  S. Dasgupta,  
 A. L. Dempwolff,  M. Diedenhofen,  Hainam Do,  R. G. Edgar,  Po-Tung Fang,  
 S. Faraji,  S. Fatehi,  Qingguo Feng,  K. D. Fenk,  J. Fosso-Tande,  
 J. Gayvert,  Qinghui Ge,  A. Ghysels,  G. Gidofalvi,  J. Gomes,  
 J. Gonthier,  A. Gunina,  D. Hait,  M. W. D. Hanson-Heine,  
 P. H. P. Harbach,  A. W. Hauser,  M. F. Herbst,  J. E. Herr,  
 E. G. Hohenstein,  Z. C. Holden,  Kerwin Hui,  B. C. Huynh,  T.-C. Jagau,  
 Hyunjun Ji,  B. Kaduk,  K. Khistyaev,  Jaehoon Kim,  P. Klunzinger,  K. Koh,  
 D. Kosenkov,  L. Koulias,  T. Kowalczyk,  C. M. Krauter,  A. Kunitsa,  
 Ka Un Lao,  A. Laurent,  K. V. Lawler,  Joonho Lee,  D. Lefrancois,  
 S. Lehtola,  D. S. Levine,  Yi-Pei Li,  You-Sheng Lin,  Fenglai Liu,  
 E. Livshits,  A. Luenser,  P. Manohar,  E. Mansoor,  S. F. Manzer,  
 Shan-Ping Mao,  Yuezhi Mao,  N. Mardirossian,  A. V. Marenich,  
 T. Markovich,  L. A. Martinez-Martinez,  S. A. Maurer,  N. J. Mayhall,  
 S. C. McKenzie,  J.-M. Mewes,  P. Morgante,  A. F. Morrison,  
 J. W. Mullinax,  K. Nanda,  T. S. Nguyen-Beck,  R. Olivares-Amaya,  
 J. A. Parkhill,  Zheng Pei,  T. M. Perrine,  F. Plasser,  P. Pokhilko,  
 S. Prager,  A. Prociuk,  E. Ramos,  D. R. Rehn,  F. Rob,  M. Scheurer,  
 M. Schneider,  N. Sergueev,  S. M. Sharada,  S. Sharma,  D. W. Small,  
 T. Stauch,  T. Stein,  Yu-Chuan Su,  A. J. W. Thom,  A. Tkatchenko,  
 T. Tsuchimochi,  N. M. Tubman,  L. Vogt,  M. L. Vidal,  O. Vydrov,  
 M. A. Watson,  J. Wenzel,  M. de Wergifosse,  T. A. Wesolowski,  A. White,  
 J. Witte,  A. Yamada,  Jun Yang,  K. Yao,  S. Yeganeh,  S. R. Yost,  
 Zhi-Qiang You,  A. Zech,  Igor Ying Zhang,  Xing Zhang,  Yan Zhao,  
 Ying Zhu,  B. R. Brooks,  G. K. L. Chan,  C. J. Cramer,  M. S. Gordon,  
 W. J. Hehre,  A. Klamt,  M. W. Schmidt,  C. D. Sherrill,  D. G. Truhlar,  
 A. Aspuru-Guzik,  R. Baer,  A. T. Bell,  N. A. Besley,  Jeng-Da Chai,  
 A. E. DePrince, III,  R. A. DiStasio Jr.,  A. Dreuw,  B. D. Dunietz,  
 T. R. Furlani,  Chao-Ping Hsu,  Yousung Jung,  Jing Kong,  D. S. Lambrecht,  
 WanZhen Liang,  C. Ochsenfeld,  V. A. Rassolov,  L. V. Slipchenko,  
 J. E. Subotnik,  T. Van Voorhis,  J. M. Herbert,  A. I. Krylov,  
 P. M. W. Gill,  M. Head-Gordon

 Contributors to earlier versions of Q-Chem not listed above: 
 R. D. Adamson,  B. Austin,  J. Baker,  G. J. O. Beran,  K. Brandhorst,  
 S. T. Brown,  E. F. C. Byrd,  A. K. Chakraborty,  C.-L. Cheng,  
 Siu Hung Chien,  D. M. Chipman,  D. L. Crittenden,  H. Dachsel,  
 R. J. Doerksen,  A. D. Dutoi,  L. Fusti-Molnar,  W. A. Goddard III,  
 A. Golubeva-Zadorozhnaya,  S. R. Gwaltney,  G. Hawkins,  A. Heyden,  
 S. Hirata,  G. Kedziora,  F. J. Keil,  C. Kelley,  Jihan Kim,  R. A. King,  
 R. Z. Khaliullin,  P. P. Korambath,  W. Kurlancheek,  A. M. Lee,  M. S. Lee,  
 S. V. Levchenko,  Ching Yeh Lin,  D. Liotard,  R. C. Lochan,  I. Lotan,  
 P. E. Maslen,  N. Nair,  D. P. O'Neill,  D. Neuhauser,  E. Neuscamman,  
 C. M. Oana,  R. Olson,  B. Peters,  R. Peverati,  P. A. Pieniazek,  
 Y. M. Rhee,  J. Ritchie,  M. A. Rohrdanz,  E. Rosta,  N. J. Russ,  
 H. F. Schaefer III,  N. E. Schultz,  N. Shenvi,  A. C. Simmonett,  A. Sodt,  
 D. Stuck,  K. S. Thanthiriwatte,  V. Vanovschi,  Tao Wang,  A. Warshel,  
 C. F. Williams,  Q. Wu,  X. Xu,  W. Zhang

 Please cite Q-Chem as follows:
 Y. Shao et al., Mol. Phys. 113, 184-215 (2015)
 DOI: 10.1080/00268976.2014.952696

 Q-Chem 5.2.1 for Intel X86 EM64T Linux

 Parts of Q-Chem use Armadillo 8.300.2 (Tropical Shenanigans).
 http://arma.sourceforge.net/

 Q-Chem begins on Wed Sep 29 01:13:30 2021  

compute-0-14.local
Host: 0

     Scratch files written to /home/meili/scratch/qchem40840//
NAlpha2: 90
NElect   90
Mult     1
Symmetry turned off for PCM/SM12/SMD calculation

 Q-Chem warning in module libgen/rem_setup.C, line 2813:

 Neither GIA nor STOLL is specified by user. Use STOLL as the default


Checking the input file for inconsistencies... 	...done.

--------------------------------------------------------------
User input:
--------------------------------------------------------------
$comment
SSI-038ASN-202PHE-1.pdb
$end

$molecule
0 1
--
0 1
C   -0.210951994808   -0.874662708703    2.294762162704
C   -1.494951994808   -1.597662708703    2.709762162704
C    0.827048005192   -1.795662708703    1.720762162704
O    0.502048005192   -2.752662708703    1.019762162704
N    2.087048005192   -1.465662708703    1.936762162704
H   -0.400951994808   -0.082662708703    1.571762162704
H    0.179048005192   -0.438662708703    3.212762162704
H   -1.798951994808   -2.263662708703    1.910762162704
H    2.824048005192   -2.054662708703    1.576762162704
H    2.309048005192   -0.633662708703    2.460762162704
H   -2.263611994808   -0.830492708703    2.884732162704
H   -1.280581994808   -2.242932708703    3.574442162704
--
0 1
C    1.991048005192    1.161337291297   -0.561237837296
C   -0.228951994808    0.171337291297   -1.256237837296
C    0.608048005192    1.285337291297   -1.196237837296
C   -1.532951994808    0.270337291297   -1.775237837296
C    0.112048005192    2.507337291297   -1.676237837296
C   -2.022951994808    1.484337291297   -2.235237837296
C   -1.203951994808    2.611337291297   -2.189237837296
H    0.139048005192   -0.778662708703   -0.895237837296
H   -2.169951994808   -0.600662708703   -1.820237837296
H    2.261048005192    0.103337291297   -0.576237837296
H    1.893048005192    1.478337291297    0.479762162704
H    0.747048005192    3.381337291297   -1.644237837296
H   -3.029951994808    1.550337291297   -2.628237837296
H   -1.586951994808    3.559337291297   -2.547237837296
H    2.796718005192    1.710757291297   -1.070197837296
$end

$rem
JOBTYPE			EDA
EDA2			1
method			wB97X-V
BASIS			def2-TZVPD
XC_GRID			000099000590
NL_GRID			1
UNRESTRICTED		FALSE
MAX_SCF_CYCLES		200
SYMMETRY		FALSE
SYM_IGNORE		TRUE
MEM_STATIC		2000
BASIS_LIN_DEP_THRESH 	6
THRESH 			14
SCF_CONVERGENCE 	8
SCF_PRINT_FRGM 		TRUE
SOLVENT_METHOD          SMD
$end

$SMX
SOLVENT			WATER
$END
--------------------------------------------------------------
 ----------------------------------------------------------------
             Standard Nuclear Orientation (Angstroms)
    I     Atom           X                Y                Z
 ----------------------------------------------------------------
    1      C      -0.2109519948    -0.8746627087     2.2947621627
    2      C      -1.4949519948    -1.5976627087     2.7097621627
    3      C       0.8270480052    -1.7956627087     1.7207621627
    4      O       0.5020480052    -2.7526627087     1.0197621627
    5      N       2.0870480052    -1.4656627087     1.9367621627
    6      H      -0.4009519948    -0.0826627087     1.5717621627
    7      H       0.1790480052    -0.4386627087     3.2127621627
    8      H      -1.7989519948    -2.2636627087     1.9107621627
    9      H       2.8240480052    -2.0546627087     1.5767621627
   10      H       2.3090480052    -0.6336627087     2.4607621627
   11      H      -2.2636119948    -0.8304927087     2.8847321627
   12      H      -1.2805819948    -2.2429327087     3.5744421627
   13      C       1.9910480052     1.1613372913    -0.5612378373
   14      C      -0.2289519948     0.1713372913    -1.2562378373
   15      C       0.6080480052     1.2853372913    -1.1962378373
   16      C      -1.5329519948     0.2703372913    -1.7752378373
   17      C       0.1120480052     2.5073372913    -1.6762378373
   18      C      -2.0229519948     1.4843372913    -2.2352378373
   19      C      -1.2039519948     2.6113372913    -2.1892378373
   20      H       0.1390480052    -0.7786627087    -0.8952378373
   21      H      -2.1699519948    -0.6006627087    -1.8202378373
   22      H       2.2610480052     0.1033372913    -0.5762378373
   23      H       1.8930480052     1.4783372913     0.4797621627
   24      H       0.7470480052     3.3813372913    -1.6442378373
   25      H      -3.0299519948     1.5503372913    -2.6282378373
   26      H      -1.5869519948     3.5593372913    -2.5472378373
   27      H       2.7967180052     1.7107572913    -1.0701978373
 ----------------------------------------------------------------
 Nuclear Repulsion Energy =         662.74950037 hartrees
 There are       45 alpha and       45 beta electrons
 Requested basis set is def2-TZVPD
 There are 232 shells and 582 basis functions

 Total QAlloc Memory Limit   2000 MB
 Mega-Array Size      1956 MB
 MEM_STATIC part      2000 MB

 Citation of the SMD model:
 Marenich, A.V.; Cramer, C.J.; Truhlar, D.G.
 J. Phys. Chem. B 2009, 113, 6378-6396.
 iSolventCode=           1
 Solvent: water                                                           

 vradii
            1           2           3           4           5           6
    1   1.8500000   1.8500000   1.8500000   1.5200000   1.8900000   1.2000000
            7           8           9          10          11          12
    1   1.2000000   1.2000000   1.2000000   1.2000000   1.2000000   1.2000000
           13          14          15          16          17          18
    1   1.8500000   1.8500000   1.8500000   1.8500000   1.8500000   1.8500000
           19          20          21          22          23          24
    1   1.8500000   1.2000000   1.2000000   1.2000000   1.2000000   1.2000000
           25          26          27
    1   1.2000000   1.2000000   1.2000000
 Changing PCM_VDW_RADII to SMD_RADIUS
 Discretize the solute cavity surface with Lebedev spheres
	Using 110 Lebedev grid points for each H atom
	Using 194 Lebedev grid points for other atoms
	Atomic van der Waals radii will be scaled by 1.20
 Remove points where switching function is < 1.0e-08
 Keep 1986 surface tesserae and discard 1992 interior tesserae
 Molecular Surface Area = 236.728 Angst**2
 A cutoff of  1.0D-14 yielded  23846 shell pairs
 There are    150966 function pairs (    189570 Cartesian)
 Smallest overlap matrix eigenvalue = 5.04E-07
 Linear dependence detected in AO basis
 Tighter screening thresholds may be required for diffuse basis sets
 Use S2THRESH > 14 and THRESH = 14 in case of SCF convergence issues
 Number of orthogonalized atomic orbitals = 581
 Maximum deviation from orthogonality = 3.488E-10

 Scale SEOQF with 1.000000e-01/1.000000e-01/1.000000e-01

 Standard Electronic Orientation quadrupole field applied
 Nucleus-field energy     =    -0.0000000072 hartrees

 -----------------------------------------------------------------------
  General SCF calculation program by
  Eric Jon Sundstrom, Paul Horn, Yuezhi Mao, Dmitri Zuev, Alec White,
  David Stuck, Shaama M.S., Shane Yost, Joonho Lee, David Small,
  Daniel Levine, Susi Lehtola, Hugh Burton, Evgeny Epifanovsky,
  Bang C. Huynh
 -----------------------------------------------------------------------
================================================================
                 ALMO-EDA with the EDA2 driver                  
================================================================
 The second-generation ALMO-EDA (for DFT):                      
 P. R. Horn, Y. Mao and M. Head-Gordon, PCCP, 18, 23067 (2016)  
 Decomposition of the frozen energy:                            
 P. R. Horn, Y. Mao and M. Head-Gordon, JCP, 144, 114107 (2016) 
 FERF model for polarization:                                   
 P. R. Horn and M. Head-Gordon, JCP, 143, 114111 (2015)         
Using eda2 option set 1
Option set summary: Frozen orbital wavefunction, initial wavefunction decomposition, and nDQ polarization.
--------------------------------
Printing EDA Options
--------------------------------
eda_child_super_basis      0
fragmo_guess_mode          0
child_mp                   1
child_mp_orders            232
cls_elec                   1
cls_disp                   0
scfmi_mode                 1
scfmi_occs                 0
scfmi_virts                0
frz_relax                  0
frz_relax_method           0
dc_pen_start               0
dc_pen_conv                0
dc_pen_increment           0
dc_pen_steps               0
dc_pen_thresh_factor       0
dc_pen_pre_newton_thresh   0
frz_ortho_decomp           1
frz_ortho_decomp_conv      6
frgm_method                2
scfmi_freeze_ss            0
separate_rehyb             0
plot_diff_den              0
eda_nocv                   0
eda_vct_relax              1
disp_free_x                0
disp_free_c                0
eda_bsse                   0
eda_pct_a                  0
eda_covp                   0
--------------------------------
Attempting to make child job directory: /home/meili/scratch/qchem40840//Frg1/
Attempting to make child job directory: /home/meili/scratch/qchem40840//Frg2/
Creating input file /home/meili/scratch/qchem40840/Frg1.input
using default PutDataFrgm: nothing
calling putenv with: QCSCRATCH=/home/meili/scratch/qchem40840/ 
Spawning Job For Fragment 0
                  Welcome to Q-Chem
     A Quantum Leap Into The Future Of Chemistry


 Q-Chem 5.2 (devel), Q-Chem, Inc., Pleasanton, CA (2019)

 Yihan Shao,  Zhengting Gan,  E. Epifanovsky,  A. T. B. Gilbert,  M. Wormit,  
 J. Kussmann,  A. W. Lange,  A. Behn,  Jia Deng,  Xintian Feng,  D. Ghosh,  
 M. Goldey,  P. R. Horn,  L. D. Jacobson,  I. Kaliman,  T. Kus,  A. Landau,  
 Jie Liu,  E. I. Proynov,  R. M. Richard,  R. P. Steele,  E. J. Sundstrom,  
 H. L. Woodcock III,  P. M. Zimmerman,  D. Zuev,  B. Albrecht,  E. Alguire,  
 S. A. Baeppler,  D. Barton,  Z. Benda,  Y. A. Bernard,  E. J. Berquist,  
 K. B. Bravaya,  H. Burton,  D. Casanova,  Chun-Min Chang,  Yunqing Chen,  
 A. Chien,  K. D. Closser,  M. P. Coons,  S. Coriani,  S. Dasgupta,  
 A. L. Dempwolff,  M. Diedenhofen,  Hainam Do,  R. G. Edgar,  Po-Tung Fang,  
 S. Faraji,  S. Fatehi,  Qingguo Feng,  K. D. Fenk,  J. Fosso-Tande,  
 J. Gayvert,  Qinghui Ge,  A. Ghysels,  G. Gidofalvi,  J. Gomes,  
 J. Gonthier,  A. Gunina,  D. Hait,  M. W. D. Hanson-Heine,  
 P. H. P. Harbach,  A. W. Hauser,  M. F. Herbst,  J. E. Herr,  
 E. G. Hohenstein,  Z. C. Holden,  Kerwin Hui,  B. C. Huynh,  T.-C. Jagau,  
 Hyunjun Ji,  B. Kaduk,  K. Khistyaev,  Jaehoon Kim,  P. Klunzinger,  K. Koh,  
 D. Kosenkov,  L. Koulias,  T. Kowalczyk,  C. M. Krauter,  A. Kunitsa,  
 Ka Un Lao,  A. Laurent,  K. V. Lawler,  Joonho Lee,  D. Lefrancois,  
 S. Lehtola,  D. S. Levine,  Yi-Pei Li,  You-Sheng Lin,  Fenglai Liu,  
 E. Livshits,  A. Luenser,  P. Manohar,  E. Mansoor,  S. F. Manzer,  
 Shan-Ping Mao,  Yuezhi Mao,  N. Mardirossian,  A. V. Marenich,  
 T. Markovich,  L. A. Martinez-Martinez,  S. A. Maurer,  N. J. Mayhall,  
 S. C. McKenzie,  J.-M. Mewes,  P. Morgante,  A. F. Morrison,  
 J. W. Mullinax,  K. Nanda,  T. S. Nguyen-Beck,  R. Olivares-Amaya,  
 J. A. Parkhill,  Zheng Pei,  T. M. Perrine,  F. Plasser,  P. Pokhilko,  
 S. Prager,  A. Prociuk,  E. Ramos,  D. R. Rehn,  F. Rob,  M. Scheurer,  
 M. Schneider,  N. Sergueev,  S. M. Sharada,  S. Sharma,  D. W. Small,  
 T. Stauch,  T. Stein,  Yu-Chuan Su,  A. J. W. Thom,  A. Tkatchenko,  
 T. Tsuchimochi,  N. M. Tubman,  L. Vogt,  M. L. Vidal,  O. Vydrov,  
 M. A. Watson,  J. Wenzel,  M. de Wergifosse,  T. A. Wesolowski,  A. White,  
 J. Witte,  A. Yamada,  Jun Yang,  K. Yao,  S. Yeganeh,  S. R. Yost,  
 Zhi-Qiang You,  A. Zech,  Igor Ying Zhang,  Xing Zhang,  Yan Zhao,  
 Ying Zhu,  B. R. Brooks,  G. K. L. Chan,  C. J. Cramer,  M. S. Gordon,  
 W. J. Hehre,  A. Klamt,  M. W. Schmidt,  C. D. Sherrill,  D. G. Truhlar,  
 A. Aspuru-Guzik,  R. Baer,  A. T. Bell,  N. A. Besley,  Jeng-Da Chai,  
 A. E. DePrince, III,  R. A. DiStasio Jr.,  A. Dreuw,  B. D. Dunietz,  
 T. R. Furlani,  Chao-Ping Hsu,  Yousung Jung,  Jing Kong,  D. S. Lambrecht,  
 WanZhen Liang,  C. Ochsenfeld,  V. A. Rassolov,  L. V. Slipchenko,  
 J. E. Subotnik,  T. Van Voorhis,  J. M. Herbert,  A. I. Krylov,  
 P. M. W. Gill,  M. Head-Gordon

 Contributors to earlier versions of Q-Chem not listed above: 
 R. D. Adamson,  B. Austin,  J. Baker,  G. J. O. Beran,  K. Brandhorst,  
 S. T. Brown,  E. F. C. Byrd,  A. K. Chakraborty,  C.-L. Cheng,  
 Siu Hung Chien,  D. M. Chipman,  D. L. Crittenden,  H. Dachsel,  
 R. J. Doerksen,  A. D. Dutoi,  L. Fusti-Molnar,  W. A. Goddard III,  
 A. Golubeva-Zadorozhnaya,  S. R. Gwaltney,  G. Hawkins,  A. Heyden,  
 S. Hirata,  G. Kedziora,  F. J. Keil,  C. Kelley,  Jihan Kim,  R. A. King,  
 R. Z. Khaliullin,  P. P. Korambath,  W. Kurlancheek,  A. M. Lee,  M. S. Lee,  
 S. V. Levchenko,  Ching Yeh Lin,  D. Liotard,  R. C. Lochan,  I. Lotan,  
 P. E. Maslen,  N. Nair,  D. P. O'Neill,  D. Neuhauser,  E. Neuscamman,  
 C. M. Oana,  R. Olson,  B. Peters,  R. Peverati,  P. A. Pieniazek,  
 Y. M. Rhee,  J. Ritchie,  M. A. Rohrdanz,  E. Rosta,  N. J. Russ,  
 H. F. Schaefer III,  N. E. Schultz,  N. Shenvi,  A. C. Simmonett,  A. Sodt,  
 D. Stuck,  K. S. Thanthiriwatte,  V. Vanovschi,  Tao Wang,  A. Warshel,  
 C. F. Williams,  Q. Wu,  X. Xu,  W. Zhang

 Please cite Q-Chem as follows:
 Y. Shao et al., Mol. Phys. 113, 184-215 (2015)
 DOI: 10.1080/00268976.2014.952696

 Q-Chem 5.2.1 for Intel X86 EM64T Linux

 Parts of Q-Chem use Armadillo 8.300.2 (Tropical Shenanigans).
 http://arma.sourceforge.net/

 Q-Chem begins on Wed Sep 29 01:13:35 2021  

compute-0-14.local
Host: 0

     Scratch files written to /home/meili/scratch/qchem40840//Frg1//
NAlpha2: 40
NElect   40
Mult     1
Symmetry turned off for PCM/SM12/SMD calculation

Checking the input file for inconsistencies... 	...done.

--------------------------------------------------------------
User input:
--------------------------------------------------------------
$molecule
0 1
 6	-0.2109519948	-0.8746627087	2.2947621627
 6	-1.4949519948	-1.5976627087	2.7097621627
 6	0.8270480052	-1.7956627087	1.7207621627
 8	0.5020480052	-2.7526627087	1.0197621627
 7	2.0870480052	-1.4656627087	1.9367621627
 1	-0.4009519948	-0.0826627087	1.5717621627
 1	0.1790480052	-0.4386627087	3.2127621627
 1	-1.7989519948	-2.2636627087	1.9107621627
 1	2.8240480052	-2.0546627087	1.5767621627
 1	2.3090480052	-0.6336627087	2.4607621627
 1	-2.2636119948	-0.8304927087	2.8847321627
 1	-1.2805819948	-2.2429327087	3.5744421627
$end
$rem
EDA2		1
METHOD		WB97X-V
BASIS		DEF2-TZVPD
XC_GRID		000099000590
NL_GRID		1
UNRESTRICTED		FALSE
MAX_SCF_CYCLES		200
SYMMETRY		FALSE
SYM_IGNORE		TRUE
BASIS_LIN_DEP_THRESH		6
THRESH		14
SCF_CONVERGENCE		8
SCF_PRINT_FRGM		TRUE
SOLVENT_METHOD		SMD
!required keywords
JOBTYPE		SP
SYM_IGNORE		TRUE
SUBSYSTEM		TRUE
GEN_SCFMAN		TRUE
CHILD_INSTRUCTION		2
SYM_IGNORE		TRUE
SCFMI		0
RI_K 0		
PARI_K 0		
MIN_PARI_K 0		
IARI_K 0		
OCC_RI_K 0		
PURECART		1111
MEM_STATIC		2000
MEM_TOTAL		2000
GUI		0
CHILD_MP		1
CHILD_MP_ORDERS		232
FRZ_RELAX		0
FRZ_RELAX_METHOD		0
EDA_CLS_ELEC		1
EDA_CLS_DISP		0
FRZ_ORTHO_DECOMP		1
EDA2		FALSE
FRGM_METHOD		FALSE
CIS_N_ROOTS  0
LOCAL_CIS    0
CIS_RLX_DNS  1
$end
$smx
SOLVENT			WATER
$end
--------------------------------------------------------------
 ----------------------------------------------------------------
             Standard Nuclear Orientation (Angstroms)
    I     Atom           X                Y                Z
 ----------------------------------------------------------------
    1      C      -0.2109519948    -0.8746627087     2.2947621627
    2      C      -1.4949519948    -1.5976627087     2.7097621627
    3      C       0.8270480052    -1.7956627087     1.7207621627
    4      O       0.5020480052    -2.7526627087     1.0197621627
    5      N       2.0870480052    -1.4656627087     1.9367621627
    6      H      -0.4009519948    -0.0826627087     1.5717621627
    7      H       0.1790480052    -0.4386627087     3.2127621627
    8      H      -1.7989519948    -2.2636627087     1.9107621627
    9      H       2.8240480052    -2.0546627087     1.5767621627
   10      H       2.3090480052    -0.6336627087     2.4607621627
   11      H      -2.2636119948    -0.8304927087     2.8847321627
   12      H      -1.2805819948    -2.2429327087     3.5744421627
 ----------------------------------------------------------------
 Nuclear Repulsion Energy =         180.18369259 hartrees
 There are       20 alpha and       20 beta electrons
 Requested basis set is def2-TZVPD
 There are 101 shells and 251 basis functions

 Total QAlloc Memory Limit   2000 MB
 Mega-Array Size      1956 MB
 MEM_STATIC part      2000 MB

 Citation of the SMD model:
 Marenich, A.V.; Cramer, C.J.; Truhlar, D.G.
 J. Phys. Chem. B 2009, 113, 6378-6396.
 iSolventCode=           1
 Solvent: water                                                           

 vradii
            1           2           3           4           5           6
    1   1.8500000   1.8500000   1.8500000   1.5200000   1.8900000   1.2000000
            7           8           9          10          11          12
    1   1.2000000   1.2000000   1.2000000   1.2000000   1.2000000   1.2000000
 Changing PCM_VDW_RADII to SMD_RADIUS
 Discretize the solute cavity surface with Lebedev spheres
	Using 110 Lebedev grid points for each H atom
	Using 194 Lebedev grid points for other atoms
	Atomic van der Waals radii will be scaled by 1.20
 Remove points where switching function is < 1.0e-08
 Keep 908 surface tesserae and discard 832 interior tesserae
 Molecular Surface Area = 109.468 Angst**2

                       Distance Matrix (Angstroms)
             C (  1)   C (  2)   C (  3)   O (  4)   N (  5)   H (  6)
   C (  2)  1.530885
   C (  3)  1.501719  2.531602
   O (  4)  2.379260  2.859744  1.229990
   N (  5)  2.399635  3.666835  1.320286  2.238187
   H (  6)  1.089079  2.187945  2.112949  2.872110  2.869853
   H (  7)  1.088540  2.097276  2.118352  3.204399  2.514631  1.776518
   H (  8)  2.144416  1.083685  2.674135  2.515473  3.967175  2.612678
   H (  9)  3.334539  4.488463  2.018868  2.487798  1.009797  3.780137
   H ( 10)  2.536935  3.932138  2.023405  3.135585  1.008010  2.904827
   H ( 11)  2.136218  1.100001  3.440721  3.849899  4.497814  2.398467
   H ( 12)  2.157279  1.100000  2.842232  3.156578  3.824536  3.074287
             H (  7)   H (  8)   H (  9)   H ( 10)   H ( 11)
   H (  8)  2.989701
   H (  9)  3.504850  4.639759
   H ( 10)  2.267251  4.453657  1.750977
   H ( 11)  2.495540  1.794019  5.393854  4.596489
   H ( 12)  2.348770  1.742690  4.568825  4.088457  1.853924

 A cutoff of  1.0D-14 yielded   5039 shell pairs
 There are     31639 function pairs (     39780 Cartesian)
 Smallest overlap matrix eigenvalue = 6.20E-06

 Scale SEOQF with 1.000000e-01/1.000000e-01/1.000000e-01

 Standard Electronic Orientation quadrupole field applied
 Nucleus-field energy     =    -0.0000000067 hartrees
 Guess from superposition of atomic densities
 Warning:  Energy on first SCF cycle will be non-variational
 SAD guess density has 40.000000 electrons

 -----------------------------------------------------------------------
  General SCF calculation program by
  Eric Jon Sundstrom, Paul Horn, Yuezhi Mao, Dmitri Zuev, Alec White,
  David Stuck, Shaama M.S., Shane Yost, Joonho Lee, David Small,
  Daniel Levine, Susi Lehtola, Hugh Burton, Evgeny Epifanovsky,
  Bang C. Huynh
 -----------------------------------------------------------------------
 Exchange:     0.1670 Hartree-Fock + 1.0000 wB97X-V + LR-HF
 Correlation:  1.0000 wB97X-V
 Using Euler-Maclaurin-Lebedev (99,590) quadrature formula
 Nonlocal Correlation:  VV10 with C = 0.0100 and b = 6.00 and scale = 1.00000
 Grid used for NLC:  SG-1 standard quadrature
Energy prior to optimization (guess energy) = -248.423373004897
Begin Timing: Total SCF Calculation
begin iterations for algorithm: DIIS         
the SCF tolerance is set to 1.00e-08
    1    -248.4233730049      4.33e-03     00000 
    2    -248.3802165325      5.71e-03     00000 
    3    -248.5665984304      6.79e-04     00000 
    4    -248.5710140819      2.39e-04     00000 
    5    -248.5721404624      1.23e-04     00000 
    6    -248.5723104910      3.80e-05     00000 
    7    -248.5723278415      1.49e-05     00000 
    8    -248.5723312033      3.59e-06     00000 
    9    -248.5723316543      1.43e-06     00000 
   10    -248.5723316990      5.97e-07     00000 
   11    -248.5723317039      8.79e-08     00000 
   12    -248.5723317041      1.28e-08     00000 
   13    -248.5723317041      3.58e-09     00000 Convergence criterion met
Timing for Total SCF: 218.00s (wall), 1506.45s (cpu)
(3)  G-ENP(liq) elect-nuc-pol free energy of system     -248.572331704 a.u.
(4)  G-CDS(liq) cavity-dispersion-solvent structure 
     free energy                                                3.6730 kcal/mol
(6)  G-S(liq) free energy of system                     -248.566478339 a.u.
E_pcm = -0.0293604141
E_cds = 0.0058533652
Multipole orders to be included
        2
        3
computing dipole RHS
computing quadrupole RHS
total number of RHS in solve_reponses: 8
RHS batch sizes
        8
Beginning Block Conjugate Gradient Iterations. Batch Number: 0
computing hessian-vector products by finite difference
              1      5.63e-01     00000 Conjugate Gradient Iteration
computing hessian-vector products by finite difference
              2      1.79e-01     00000 Conjugate Gradient Iteration
computing hessian-vector products by finite difference
              3      4.84e-02     00000 Conjugate Gradient Iteration
computing hessian-vector products by finite difference
              4      1.22e-02     00000 Conjugate Gradient Iteration
computing hessian-vector products by finite difference
              5      1.71e-03     00000 Conjugate Gradient Iteration
computing hessian-vector products by finite difference
              6      3.46e-04     00000 Conjugate Gradient Iteration
computing hessian-vector products by finite difference
              7      5.72e-05     00000 Conjugate Gradient Iteration
computing hessian-vector products by finite difference
              8      7.81e-06     00000 Conjugate Gradient Iteration
computing hessian-vector products by finite difference
              9      1.27e-06     00000 Conjugate Gradient Iteration
computing hessian-vector products by finite difference
             10      1.76e-07     00000 Conjugate Gradient Iteration
computing hessian-vector products by finite difference
             11      2.24e-08     00000 Conjugate Gradient Iteration
computing hessian-vector products by finite difference
             12      6.27e-09     00000 CG Converged
batch 0 complete
Done Calculating Responses
TESTING ORTHOGONALIZATION OF MULTIPOLE BASIS
Multipole virts passed orthogonality test
Virts Per Order
           60
          100

 --------------------------------------------------------------

                    Orbital Energies (a.u.)
 --------------------------------------------------------------

 Alpha MOs
 -- Occupied --
-19.1820 -14.4260 -10.3720 -10.2641 -10.2519  -1.1757  -1.0429  -0.9045
 -0.7766  -0.6945  -0.6460  -0.6022  -0.5793  -0.5380  -0.5144  -0.4700
 -0.4603  -0.4402  -0.3832  -0.3738
 -- Virtual --
  0.0643   0.0901   0.0907   0.0996   0.1178   0.1304   0.1334   0.1411
  0.1515   0.1766   0.1873   0.1983   0.2011   0.2194   0.2292   0.2353
  0.2428   0.2440   0.2566   0.2690   0.2870   0.2926   0.2980   0.3169
  0.3209   0.3337   0.3382   0.3477   0.3502   0.3565   0.3643   0.3701
  0.3788   0.3842   0.3912   0.3941   0.4093   0.4100   0.4214   0.4231
  0.4394   0.4409   0.4606   0.4669   0.4744   0.4809   0.4900   0.4943
  0.5090   0.5162   0.5228   0.5393   0.5485   0.5528   0.5584   0.5604
  0.5865   0.6087   0.6117   0.6276   0.6357   0.6462   0.6579   0.6660
  0.6891   0.7036   0.7099   0.7284   0.7500   0.7562   0.7703   0.7761
  0.7853   0.7979   0.8002   0.8063   0.8176   0.8263   0.8409   0.8572
  0.8663   0.8796   0.8903   0.9014   0.9119   0.9644   0.9766   1.0183
  1.0209   1.0464   1.0538   1.0881   1.0895   1.1219   1.1400   1.1923
  1.2119   1.2653   1.2985   1.3138   1.3458   1.3547   1.3926   1.4072
  1.4629   1.4748   1.5139   1.5592   1.5705   1.6396   1.7013   1.7704
  1.7927   1.8528   1.8646   1.8969   1.8995   1.9303   1.9465   1.9575
  1.9802   1.9904   2.0088   2.0243   2.0433   2.0568   2.1069   2.1385
  2.1543   2.1851   2.2384   2.2543   2.2822   2.3290   2.3731   2.3985
  2.4199   2.4566   2.4920   2.4995   2.5426   2.5632   2.5879   2.6050
  2.6600   2.6820   2.7047   2.7452   2.7737   2.8209   2.8477   2.8551
  2.8975   2.9343   2.9607   2.9852   3.0372   3.0632   3.0891   3.1151
  3.1541   3.2100   3.2368   3.2567   3.2822   3.3091   3.3252   3.3433
  3.3687   3.3776   3.3971   3.4407   3.4918   3.5202   3.5366   3.5605
  3.5877   3.6331   3.6499   3.6529   3.7034   3.7411   3.7725   3.7910
  3.9071   3.9849   4.0230   4.0839   4.0845   4.1152   4.1628   4.2372
  4.3261   4.3706   4.4160   4.5857   4.6071   4.6428   4.6986   4.7330
  4.7604   4.8490   4.9028   4.9126   4.9892   5.0575   5.1923   5.1970
  5.2727   5.3700   5.3994   5.4184   5.4312   5.5233   5.5738   5.7878
  5.9323   6.1671   6.2661   6.5340   6.6541   6.7630   6.8520   6.9904
  7.2447   7.3247  22.6156  22.7802  23.6548  32.4464  44.3560
 --------------------------------------------------------------

          Ground-State Mulliken Net Atomic Charges

     Atom                 Charge (a.u.)
  ----------------------------------------
      1 C                     0.019712
      2 C                    -0.913057
      3 C                     0.179189
      4 O                    -0.700000
      5 N                    -0.279876
      6 H                     0.237238
      7 H                     0.231627
      8 H                     0.227703
      9 H                     0.261561
     10 H                     0.248940
     11 H                     0.233467
     12 H                     0.253497
  ----------------------------------------
  Sum of atomic charges =     0.000000

 -----------------------------------------------------------------
                    Cartesian Multipole Moments
 -----------------------------------------------------------------
    Charge (ESU x 10^10)
                -0.0000
    Dipole Moment (Debye)
         X       2.6966      Y       4.3475      Z       3.0238
       Tot       5.9427
    Quadrupole Moments (Debye-Ang)
        XX     -21.5397     XY      -2.6501     YY     -47.6990
        XZ       6.7462     YZ       1.2498     ZZ     -21.9650
    Octopole Moments (Debye-Ang^2)
       XXX       8.0345    XXY      39.0393    XYY      -6.0855
       YYY     209.9139    XXZ     -43.7304    XYZ      -6.0843
       YYZ     -73.3834    XZZ       7.1834    YZZ      48.6632
       ZZZ    -163.0787
    Hexadecapole Moments (Debye-Ang^3)
      XXXX    -272.3097   XXXY      -8.8791   XXYY    -141.8959
      XYYY      53.2053   YYYY    -814.3315   XXXZ      52.6629
      XXYZ      79.1485   XYYZ       5.3737   YYYZ     325.7549
      XXZZ    -170.0641   XYZZ       7.0444   YYZZ    -253.8071
      XZZZ      27.8847   YZZZ     271.8480   ZZZZ    -796.9996
 -----------------------------------------------------------------
Archival summary:
1\1\compute-0-14.local\SP\ProcedureUnspecified\BasisUnspecified\1137\meili\WedSep2902:17:332021WedSep2902:17:332021\0\\#,ProcedureUnspecified,BasisUnspecified,\\0,1\C\O,1,1.22999\N,1,1.32029,2,122.675\H,3,1.00801,1,120.101,2,175.412,0\H,3,1.0098,1,119.499,2,-4.84885,0\C,1,1.50172,2,120.823,3,175.321,0\H,6,1.08854,1,108.684,2,152.686,0\H,6,1.08908,1,108.231,2,-88.6704,0\C,6,1.53089,1,113.185,2,36.2871,0\H,9,1.08368,6,109.006,1,-46.9727,0\H,9,1.1,6,109.067,1,68.2013,0\H,9,1.1,6,107.447,1,-166.718,0\\\@

 Total job time:  3838.11s(wall), 26728.84s(cpu) 
 Wed Sep 29 02:17:33 2021

        *************************************************************
        *                                                           *
        *  Thank you very much for using Q-Chem.  Have a nice day.  *
        *                                                           *
        *************************************************************


Done Job For Fragment 0
calling putenv with: QCSCRATCH=/home/meili/scratch 
calling putenv with: QCTHREADS=8 
Creating input file /home/meili/scratch/qchem40840/Frg2.input
using default PutDataFrgm: nothing
calling putenv with: QCSCRATCH=/home/meili/scratch/qchem40840/ 
Spawning Job For Fragment 1
                  Welcome to Q-Chem
     A Quantum Leap Into The Future Of Chemistry


 Q-Chem 5.2 (devel), Q-Chem, Inc., Pleasanton, CA (2019)

 Yihan Shao,  Zhengting Gan,  E. Epifanovsky,  A. T. B. Gilbert,  M. Wormit,  
 J. Kussmann,  A. W. Lange,  A. Behn,  Jia Deng,  Xintian Feng,  D. Ghosh,  
 M. Goldey,  P. R. Horn,  L. D. Jacobson,  I. Kaliman,  T. Kus,  A. Landau,  
 Jie Liu,  E. I. Proynov,  R. M. Richard,  R. P. Steele,  E. J. Sundstrom,  
 H. L. Woodcock III,  P. M. Zimmerman,  D. Zuev,  B. Albrecht,  E. Alguire,  
 S. A. Baeppler,  D. Barton,  Z. Benda,  Y. A. Bernard,  E. J. Berquist,  
 K. B. Bravaya,  H. Burton,  D. Casanova,  Chun-Min Chang,  Yunqing Chen,  
 A. Chien,  K. D. Closser,  M. P. Coons,  S. Coriani,  S. Dasgupta,  
 A. L. Dempwolff,  M. Diedenhofen,  Hainam Do,  R. G. Edgar,  Po-Tung Fang,  
 S. Faraji,  S. Fatehi,  Qingguo Feng,  K. D. Fenk,  J. Fosso-Tande,  
 J. Gayvert,  Qinghui Ge,  A. Ghysels,  G. Gidofalvi,  J. Gomes,  
 J. Gonthier,  A. Gunina,  D. Hait,  M. W. D. Hanson-Heine,  
 P. H. P. Harbach,  A. W. Hauser,  M. F. Herbst,  J. E. Herr,  
 E. G. Hohenstein,  Z. C. Holden,  Kerwin Hui,  B. C. Huynh,  T.-C. Jagau,  
 Hyunjun Ji,  B. Kaduk,  K. Khistyaev,  Jaehoon Kim,  P. Klunzinger,  K. Koh,  
 D. Kosenkov,  L. Koulias,  T. Kowalczyk,  C. M. Krauter,  A. Kunitsa,  
 Ka Un Lao,  A. Laurent,  K. V. Lawler,  Joonho Lee,  D. Lefrancois,  
 S. Lehtola,  D. S. Levine,  Yi-Pei Li,  You-Sheng Lin,  Fenglai Liu,  
 E. Livshits,  A. Luenser,  P. Manohar,  E. Mansoor,  S. F. Manzer,  
 Shan-Ping Mao,  Yuezhi Mao,  N. Mardirossian,  A. V. Marenich,  
 T. Markovich,  L. A. Martinez-Martinez,  S. A. Maurer,  N. J. Mayhall,  
 S. C. McKenzie,  J.-M. Mewes,  P. Morgante,  A. F. Morrison,  
 J. W. Mullinax,  K. Nanda,  T. S. Nguyen-Beck,  R. Olivares-Amaya,  
 J. A. Parkhill,  Zheng Pei,  T. M. Perrine,  F. Plasser,  P. Pokhilko,  
 S. Prager,  A. Prociuk,  E. Ramos,  D. R. Rehn,  F. Rob,  M. Scheurer,  
 M. Schneider,  N. Sergueev,  S. M. Sharada,  S. Sharma,  D. W. Small,  
 T. Stauch,  T. Stein,  Yu-Chuan Su,  A. J. W. Thom,  A. Tkatchenko,  
 T. Tsuchimochi,  N. M. Tubman,  L. Vogt,  M. L. Vidal,  O. Vydrov,  
 M. A. Watson,  J. Wenzel,  M. de Wergifosse,  T. A. Wesolowski,  A. White,  
 J. Witte,  A. Yamada,  Jun Yang,  K. Yao,  S. Yeganeh,  S. R. Yost,  
 Zhi-Qiang You,  A. Zech,  Igor Ying Zhang,  Xing Zhang,  Yan Zhao,  
 Ying Zhu,  B. R. Brooks,  G. K. L. Chan,  C. J. Cramer,  M. S. Gordon,  
 W. J. Hehre,  A. Klamt,  M. W. Schmidt,  C. D. Sherrill,  D. G. Truhlar,  
 A. Aspuru-Guzik,  R. Baer,  A. T. Bell,  N. A. Besley,  Jeng-Da Chai,  
 A. E. DePrince, III,  R. A. DiStasio Jr.,  A. Dreuw,  B. D. Dunietz,  
 T. R. Furlani,  Chao-Ping Hsu,  Yousung Jung,  Jing Kong,  D. S. Lambrecht,  
 WanZhen Liang,  C. Ochsenfeld,  V. A. Rassolov,  L. V. Slipchenko,  
 J. E. Subotnik,  T. Van Voorhis,  J. M. Herbert,  A. I. Krylov,  
 P. M. W. Gill,  M. Head-Gordon

 Contributors to earlier versions of Q-Chem not listed above: 
 R. D. Adamson,  B. Austin,  J. Baker,  G. J. O. Beran,  K. Brandhorst,  
 S. T. Brown,  E. F. C. Byrd,  A. K. Chakraborty,  C.-L. Cheng,  
 Siu Hung Chien,  D. M. Chipman,  D. L. Crittenden,  H. Dachsel,  
 R. J. Doerksen,  A. D. Dutoi,  L. Fusti-Molnar,  W. A. Goddard III,  
 A. Golubeva-Zadorozhnaya,  S. R. Gwaltney,  G. Hawkins,  A. Heyden,  
 S. Hirata,  G. Kedziora,  F. J. Keil,  C. Kelley,  Jihan Kim,  R. A. King,  
 R. Z. Khaliullin,  P. P. Korambath,  W. Kurlancheek,  A. M. Lee,  M. S. Lee,  
 S. V. Levchenko,  Ching Yeh Lin,  D. Liotard,  R. C. Lochan,  I. Lotan,  
 P. E. Maslen,  N. Nair,  D. P. O'Neill,  D. Neuhauser,  E. Neuscamman,  
 C. M. Oana,  R. Olson,  B. Peters,  R. Peverati,  P. A. Pieniazek,  
 Y. M. Rhee,  J. Ritchie,  M. A. Rohrdanz,  E. Rosta,  N. J. Russ,  
 H. F. Schaefer III,  N. E. Schultz,  N. Shenvi,  A. C. Simmonett,  A. Sodt,  
 D. Stuck,  K. S. Thanthiriwatte,  V. Vanovschi,  Tao Wang,  A. Warshel,  
 C. F. Williams,  Q. Wu,  X. Xu,  W. Zhang

 Please cite Q-Chem as follows:
 Y. Shao et al., Mol. Phys. 113, 184-215 (2015)
 DOI: 10.1080/00268976.2014.952696

 Q-Chem 5.2.1 for Intel X86 EM64T Linux

 Parts of Q-Chem use Armadillo 8.300.2 (Tropical Shenanigans).
 http://arma.sourceforge.net/

 Q-Chem begins on Wed Sep 29 02:17:33 2021  

compute-0-14.local
Host: 0

     Scratch files written to /home/meili/scratch/qchem40840//Frg2//
NAlpha2: 50
NElect   50
Mult     1
Symmetry turned off for PCM/SM12/SMD calculation

Checking the input file for inconsistencies... 	...done.

--------------------------------------------------------------
User input:
--------------------------------------------------------------
$molecule
0 1
 6	1.9910480052	1.1613372913	-0.5612378373
 6	-0.2289519948	0.1713372913	-1.2562378373
 6	0.6080480052	1.2853372913	-1.1962378373
 6	-1.5329519948	0.2703372913	-1.7752378373
 6	0.1120480052	2.5073372913	-1.6762378373
 6	-2.0229519948	1.4843372913	-2.2352378373
 6	-1.2039519948	2.6113372913	-2.1892378373
 1	0.1390480052	-0.7786627087	-0.8952378373
 1	-2.1699519948	-0.6006627087	-1.8202378373
 1	2.2610480052	0.1033372913	-0.5762378373
 1	1.8930480052	1.4783372913	0.4797621627
 1	0.7470480052	3.3813372913	-1.6442378373
 1	-3.0299519948	1.5503372913	-2.6282378373
 1	-1.5869519948	3.5593372913	-2.5472378373
 1	2.7967180052	1.7107572913	-1.0701978373
$end
$rem
EDA2		1
METHOD		WB97X-V
BASIS		DEF2-TZVPD
XC_GRID		000099000590
NL_GRID		1
UNRESTRICTED		FALSE
MAX_SCF_CYCLES		200
SYMMETRY		FALSE
SYM_IGNORE		TRUE
BASIS_LIN_DEP_THRESH		6
THRESH		14
SCF_CONVERGENCE		8
SCF_PRINT_FRGM		TRUE
SOLVENT_METHOD		SMD
!required keywords
JOBTYPE		SP
SYM_IGNORE		TRUE
SUBSYSTEM		TRUE
GEN_SCFMAN		TRUE
CHILD_INSTRUCTION		2
SYM_IGNORE		TRUE
SCFMI		0
RI_K 0		
PARI_K 0		
MIN_PARI_K 0		
IARI_K 0		
OCC_RI_K 0		
PURECART		1111
MEM_STATIC		2000
MEM_TOTAL		2000
GUI		0
CHILD_MP		1
CHILD_MP_ORDERS		232
FRZ_RELAX		0
FRZ_RELAX_METHOD		0
EDA_CLS_ELEC		1
EDA_CLS_DISP		0
FRZ_ORTHO_DECOMP		1
EDA2		FALSE
FRGM_METHOD		FALSE
CIS_N_ROOTS  0
LOCAL_CIS    0
CIS_RLX_DNS  1
$end
$smx
SOLVENT			WATER
$end
--------------------------------------------------------------
 ----------------------------------------------------------------
             Standard Nuclear Orientation (Angstroms)
    I     Atom           X                Y                Z
 ----------------------------------------------------------------
    1      C       1.9910480052     1.1613372913    -0.5612378373
    2      C      -0.2289519948     0.1713372913    -1.2562378373
    3      C       0.6080480052     1.2853372913    -1.1962378373
    4      C      -1.5329519948     0.2703372913    -1.7752378373
    5      C       0.1120480052     2.5073372913    -1.6762378373
    6      C      -2.0229519948     1.4843372913    -2.2352378373
    7      C      -1.2039519948     2.6113372913    -2.1892378373
    8      H       0.1390480052    -0.7786627087    -0.8952378373
    9      H      -2.1699519948    -0.6006627087    -1.8202378373
   10      H       2.2610480052     0.1033372913    -0.5762378373
   11      H       1.8930480052     1.4783372913     0.4797621627
   12      H       0.7470480052     3.3813372913    -1.6442378373
   13      H      -3.0299519948     1.5503372913    -2.6282378373
   14      H      -1.5869519948     3.5593372913    -2.5472378373
   15      H       2.7967180052     1.7107572913    -1.0701978373
 ----------------------------------------------------------------
 Nuclear Repulsion Energy =         268.16227698 hartrees
 There are       25 alpha and       25 beta electrons
 Requested basis set is def2-TZVPD
 There are 131 shells and 331 basis functions

 Total QAlloc Memory Limit   2000 MB
 Mega-Array Size      1956 MB
 MEM_STATIC part      2000 MB

 Citation of the SMD model:
 Marenich, A.V.; Cramer, C.J.; Truhlar, D.G.
 J. Phys. Chem. B 2009, 113, 6378-6396.
 iSolventCode=           1
 Solvent: water                                                           

 vradii
            1           2           3           4           5           6
    1   1.8500000   1.8500000   1.8500000   1.8500000   1.8500000   1.8500000
            7           8           9          10          11          12
    1   1.8500000   1.2000000   1.2000000   1.2000000   1.2000000   1.2000000
           13          14          15
    1   1.2000000   1.2000000   1.2000000
 Changing PCM_VDW_RADII to SMD_RADIUS
 Discretize the solute cavity surface with Lebedev spheres
	Using 110 Lebedev grid points for each H atom
	Using 194 Lebedev grid points for other atoms
	Atomic van der Waals radii will be scaled by 1.20
 Remove points where switching function is < 1.0e-08
 Keep 1078 surface tesserae and discard 1160 interior tesserae
 Molecular Surface Area = 132.939 Angst**2

                       Distance Matrix (Angstroms)
             C (  1)   C (  2)   C (  3)   C (  4)   C (  5)   C (  6)
   C (  2)  2.528147
   C (  3)  1.526856  1.394692
   C (  4)  3.832265  1.406975  2.439128
   C (  5)  2.566239  2.397828  1.403460  2.778488
   C (  6)  4.361055  2.429166  2.835716  1.387622  2.432537
   C (  7)  3.867933  2.788317  2.455131  2.399983  1.416277  1.393918
   H (  8)  2.702787  1.080854  2.137910  2.161107  3.377645  3.404558
   H (  9)  4.690804  2.163692  3.415210  1.080016  3.858487  2.130976
   H ( 10)  1.092011  2.582077  2.124602  3.982452  3.406966  4.797093
   H ( 11)  1.092600  3.037240  2.120719  4.275718  2.979788  4.765115
   H ( 12)  2.765651  3.377458  2.147846  3.859259  1.080798  3.408928
   H ( 13)  5.443735  3.410224  3.918660  2.146397  3.419695  1.082984
   H ( 14)  4.743067  3.871613  3.437194  3.378819  2.179896  2.143144
   H ( 15)  1.100003  3.399868  2.233192  4.617135  2.865184  4.963648
             C (  7)   H (  8)   H (  9)   H ( 10)   H ( 11)   H ( 12)
   H (  8)  3.869132
   H (  9)  3.374353  2.493750
   H ( 10)  4.571439  2.320036  4.655847
   H ( 11)  4.242483  3.171938  5.110793  1.772339
   H ( 12)  2.167101  4.270394  4.939250  3.765382  3.073451
   H ( 13)  2.157016  4.297684  2.453419  5.856551  5.822437  4.311212
   H ( 14)  1.083308  4.952416  4.263100  5.534969  5.060009  2.508914
   H ( 15)  4.250724  3.645687  5.529289  1.764862  1.809147  2.705828
             H ( 13)   H ( 14)
   H ( 14)  2.474852
   H ( 15)  6.033515  4.981512

 A cutoff of  1.0D-14 yielded   8358 shell pairs
 There are     54488 function pairs (     69442 Cartesian)
 Smallest overlap matrix eigenvalue = 6.00E-07
 Linear dependence detected in AO basis
 Tighter screening thresholds may be required for diffuse basis sets
 Use S2THRESH > 14 and THRESH = 14 in case of SCF convergence issues
 Number of orthogonalized atomic orbitals = 330
 Maximum deviation from orthogonality = 2.273E-10

 Scale SEOQF with 1.000000e-01/1.000000e-01/1.000000e-01

 Standard Electronic Orientation quadrupole field applied
 Nucleus-field energy     =    -0.0000000006 hartrees
 Guess from superposition of atomic densities
 Warning:  Energy on first SCF cycle will be non-variational
 SAD guess density has 50.000000 electrons

 -----------------------------------------------------------------------
  General SCF calculation program by
  Eric Jon Sundstrom, Paul Horn, Yuezhi Mao, Dmitri Zuev, Alec White,
  David Stuck, Shaama M.S., Shane Yost, Joonho Lee, David Small,
  Daniel Levine, Susi Lehtola, Hugh Burton, Evgeny Epifanovsky,
  Bang C. Huynh
 -----------------------------------------------------------------------
 Exchange:     0.1670 Hartree-Fock + 1.0000 wB97X-V + LR-HF
 Correlation:  1.0000 wB97X-V
 Using Euler-Maclaurin-Lebedev (99,590) quadrature formula
 Nonlocal Correlation:  VV10 with C = 0.0100 and b = 6.00 and scale = 1.00000
 Grid used for NLC:  SG-1 standard quadrature
Energy prior to optimization (guess energy) = -271.528225350965
Begin Timing: Total SCF Calculation
begin iterations for algorithm: DIIS         
the SCF tolerance is set to 1.00e-08
    1    -271.5282253510      1.78e-03     00000 
    2    -271.5650393049      1.12e-03     00000 
    3    -271.5834969312      1.56e-04     00000 
    4    -271.5841772777      4.70e-05     00000 
    5    -271.5842245488      2.61e-05     00000 
    6    -271.5842355372      5.93e-06     00000 
    7    -271.5842363761      2.20e-06     00000 
    8    -271.5842364594      3.51e-07     00000 
    9    -271.5842364642      8.90e-08     00000 
   10    -271.5842364645      3.83e-08     00000 
   11    -271.5842364645      1.44e-08     00000 
   12    -271.5842364645      4.20e-09     00000 Convergence criterion met
Timing for Total SCF: 428.00s (wall), 3042.15s (cpu)
(3)  G-ENP(liq) elect-nuc-pol free energy of system     -271.584236465 a.u.
(4)  G-CDS(liq) cavity-dispersion-solvent structure 
     free energy                                                3.2510 kcal/mol
(6)  G-S(liq) free energy of system                     -271.579055628 a.u.
E_pcm = -0.0077411922
E_cds = 0.0051808368
Multipole orders to be included
        2
        3
computing dipole RHS
computing quadrupole RHS
total number of RHS in solve_reponses: 8
RHS batch sizes
        8
Beginning Block Conjugate Gradient Iterations. Batch Number: 0
computing hessian-vector products by finite difference
              1      6.31e-01     00000 Conjugate Gradient Iteration
computing hessian-vector products by finite difference
              2      1.98e-01     00000 Conjugate Gradient Iteration
computing hessian-vector products by finite difference
              3      4.67e-02     00000 Conjugate Gradient Iteration
computing hessian-vector products by finite difference
              4      1.15e-02     00000 Conjugate Gradient Iteration
computing hessian-vector products by finite difference
              5      2.23e-03     00000 Conjugate Gradient Iteration
computing hessian-vector products by finite difference
              6      6.62e-04     00000 Conjugate Gradient Iteration
computing hessian-vector products by finite difference
              7      1.54e-04     00000 Conjugate Gradient Iteration
computing hessian-vector products by finite difference
              8      2.54e-05     00000 Conjugate Gradient Iteration
computing hessian-vector products by finite difference
              9      3.80e-06     00000 Conjugate Gradient Iteration
computing hessian-vector products by finite difference
             10      6.38e-07     00000 Conjugate Gradient Iteration
computing hessian-vector products by finite difference
             11      1.03e-07     00000 Conjugate Gradient Iteration
computing hessian-vector products by finite difference
             12      1.90e-08     00000 Conjugate Gradient Iteration
computing hessian-vector products by finite difference
             13      3.36e-09     00000 CG Converged
batch 0 complete
Done Calculating Responses
TESTING ORTHOGONALIZATION OF MULTIPOLE BASIS
Multipole virts passed orthogonality test
Virts Per Order
           75
          125

 --------------------------------------------------------------

                    Orbital Energies (a.u.)
 --------------------------------------------------------------

 Alpha MOs
 -- Occupied --
-10.2814 -10.2721 -10.2694 -10.2690 -10.2666 -10.2661 -10.2573  -0.9895
 -0.9007  -0.8695  -0.8075  -0.7259  -0.6975  -0.6230  -0.5654  -0.5612
 -0.5297  -0.5194  -0.5093  -0.4796  -0.4692  -0.4351  -0.4342  -0.3429
 -0.3371
 -- Virtual --
  0.0636   0.0678   0.0723   0.0842   0.0899   0.1093   0.1157   0.1187
  0.1407   0.1586   0.1696   0.1746   0.1921   0.1949   0.2007   0.2055
  0.2273   0.2336   0.2399   0.2425   0.2477   0.2634   0.2655   0.2729
  0.2832   0.2844   0.2879   0.2971   0.2983   0.3071   0.3100   0.3165
  0.3237   0.3310   0.3355   0.3393   0.3519   0.3532   0.3728   0.3735
  0.3798   0.3863   0.3876   0.3906   0.3959   0.4033   0.4086   0.4118
  0.4168   0.4290   0.4344   0.4378   0.4431   0.4495   0.4548   0.4615
  0.4703   0.4731   0.4782   0.4854   0.4929   0.4990   0.5132   0.5179
  0.5232   0.5285   0.5358   0.5385   0.5451   0.5503   0.5556   0.5724
  0.5839   0.5871   0.5925   0.6020   0.6088   0.6213   0.6444   0.6540
  0.6690   0.6785   0.6813   0.6903   0.6916   0.7018   0.7234   0.7258
  0.7290   0.7354   0.7479   0.7641   0.7668   0.7698   0.7817   0.7870
  0.7883   0.7959   0.8001   0.8044   0.8107   0.8253   0.8291   0.8372
  0.8402   0.8432   0.8521   0.8612   0.8623   0.8729   0.8816   0.8932
  0.9176   0.9269   0.9336   0.9476   0.9548   1.0050   1.0145   1.0466
  1.0512   1.0621   1.0726   1.0772   1.0859   1.0913   1.1033   1.1470
  1.1655   1.1754   1.2398   1.2833   1.2914   1.3123   1.3460   1.3514
  1.3853   1.4374   1.4452   1.4613   1.4671   1.4716   1.5243   1.5322
  1.5980   1.6038   1.6187   1.6263   1.6454   1.6733   1.7479   1.7830
  1.7908   1.7983   1.8049   1.8203   1.8311   1.8556   1.8817   1.9089
  1.9216   1.9363   1.9587   1.9766   1.9801   1.9999   2.0240   2.0275
  2.0372   2.0563   2.0708   2.0973   2.1126   2.1195   2.1683   2.1798
  2.2034   2.2193   2.2492   2.2675   2.2938   2.3111   2.3862   2.3905
  2.4053   2.4097   2.4773   2.5024   2.5428   2.5492   2.5595   2.5913
  2.6309   2.6409   2.6611   2.6833   2.7011   2.7079   2.7499   2.7639
  2.7897   2.8054   2.8341   2.8413   2.8551   2.8961   2.9036   2.9187
  2.9218   2.9434   2.9547   2.9854   2.9929   3.0201   3.0229   3.0436
  3.0672   3.0714   3.0960   3.1347   3.1605   3.1931   3.2013   3.2240
  3.2291   3.2514   3.2867   3.3029   3.3360   3.3539   3.3562   3.3718
  3.3985   3.4304   3.4376   3.4606   3.4662   3.4781   3.4891   3.4977
  3.5097   3.5286   3.5338   3.5474   3.5599   3.5630   3.5723   3.6036
  3.6101   3.6301   3.6583   3.6863   3.7061   3.7572   3.7642   3.8101
  3.8218   3.8904   3.9036   3.9310   3.9497   3.9537   4.0216   4.0554
  4.1309   4.1909   4.2547   4.2634   4.2705   4.2974   4.3097   4.3223
  4.3355   4.3567   4.3675   4.4007   4.4175   4.4395   4.4590   4.5291
  4.5982   4.6124   4.7322   4.7513   4.8015   4.8519   4.9169   4.9396
  5.0057   5.0264   5.1608   5.2625   5.3401   5.3628   5.4683   5.5280
  5.6638   5.8366  22.5849  22.6394  22.8689  22.8825  22.9744  23.0526
 23.3852
 --------------------------------------------------------------

          Ground-State Mulliken Net Atomic Charges

     Atom                 Charge (a.u.)
  ----------------------------------------
      1 C                    -1.076356
      2 C                    -0.391948
      3 C                     0.716256
      4 C                    -0.562386
      5 C                    -0.379359
      6 C                    -0.564737
      7 C                    -0.508098
      8 H                     0.374090
      9 H                     0.376355
     10 H                     0.292813
     11 H                     0.232091
     12 H                     0.411465
     13 H                     0.396176
     14 H                     0.378141
     15 H                     0.305496
  ----------------------------------------
  Sum of atomic charges =     0.000000

 -----------------------------------------------------------------
                    Cartesian Multipole Moments
 -----------------------------------------------------------------
    Charge (ESU x 10^10)
                 0.0000
    Dipole Moment (Debye)
         X       0.4642      Y      -0.0649      Z       0.3045
       Tot       0.5590
    Quadrupole Moments (Debye-Ang)
        XX     -38.2505     XY       1.1926     YY     -38.4143
        XZ       2.3340     YZ      -1.2283     ZZ     -45.9384
    Octopole Moments (Debye-Ang^2)
       XXX      26.9401    XXY     -52.0784    XYY      11.1341
       YYY    -155.3339    XXZ      52.1885    XYZ       3.5315
       YYZ      53.4399    XZZ       4.4803    YZZ     -55.7460
       ZZZ     212.2672
    Hexadecapole Moments (Debye-Ang^3)
      XXXX    -541.3152   XXXY      45.8920   XXYY    -204.9654
      XYYY      43.7136   YYYY    -693.1418   XXXZ    -124.2015
      XXYZ      77.8641   XYYZ     -35.5065   YYYZ     243.1152
      XXZZ    -192.6779   XYZZ       1.7826   YYZZ    -231.1233
      XZZZ    -139.8026   YZZZ     302.0804   ZZZZ    -814.9353
 -----------------------------------------------------------------
Archival summary:
1\1\compute-0-14.local\SP\ProcedureUnspecified\BasisUnspecified\78\meili\WedSep2904:45:122021WedSep2904:45:122021\0\\#,ProcedureUnspecified,BasisUnspecified,\\0,1\C\C,1,1.39469\H,2,1.08085,1,118.904\C,1,1.40346,2,117.947,3,179.704,0\H,4,1.0808,1,119.1,2,-179.629,0\C,2,1.40697,1,121.056,3,179.963,0\H,6,1.08002,2,120.349,1,179.735,0\C,6,1.38762,2,120.738,1,-0.350223,0\H,8,1.08298,6,120.13,2,-179.696,0\C,8,1.39392,6,119.27,2,0.52582,0\H,10,1.08331,8,119.268,6,-179.925,0\C,1,1.52686,2,119.776,3,-3.13021,0\H,12,1.09201,1,107.273,2,21.0474,0\H,12,1.0926,1,106.944,2,-95.125,0\H,12,1.1,1,115.495,2,140.535,0\\\@

 Total job time:  8859.15s(wall), 63424.58s(cpu) 
 Wed Sep 29 04:45:12 2021

        *************************************************************
        *                                                           *
        *  Thank you very much for using Q-Chem.  Have a nice day.  *
        *                                                           *
        *************************************************************


Done Job For Fragment 1
calling putenv with: QCSCRATCH=/home/meili/scratch 
calling putenv with: QCTHREADS=8 
Doing General SCFMI
 Exchange:     0.1670 Hartree-Fock + 1.0000 wB97X-V + LR-HF
 Correlation:  1.0000 wB97X-V
 Using Euler-Maclaurin-Lebedev (99,590) quadrature formula
 Nonlocal Correlation:  VV10 with C = 0.0100 and b = 6.00 and scale = 1.00000
 Grid used for NLC:  SG-1 standard quadrature
performing fock build before subrot guess so that all methods have access
Printing subrot_rss_gen Method Specification:
Occupied Subspace Method is 0
Virtual Subspace Method is 0
Energy of the unrelaxed supersystem initial determinant -520.123937591612
performing fock build before subrot guess so that all methods have access
Printing subrot_rss_gen Method Specification:
Occupied Subspace Method is 0
Virtual Subspace Method is 0
Energy of the unrelaxed supersystem initial determinant w/ solvent -520.159124704724
write pseudocanon occs and virts to disk
write pseudocanon orbital energies to disk
Tolerance of ortho_decomp_scf: 1.00e-06
GDM subspace size: 20
Beginning the Orthogonal Decomposition of the Initial Supersystem Wavefunction
    1    -520.1025356565      2.33e-02     ortho_decomp Preconditoned Steepest Descent
    2    -520.1043551710      6.19e-04     ortho_decomp BFGS Step
    3    -520.1043615736      4.42e-05     ortho_decomp BFGS Step
    4    -520.1043615825      1.70e-06     ortho_decomp BFGS Step
    5    -520.1043615825      5.68e-08     ortho_decomp 00000 Convergence criterion met
 Hartree-Fock
 Hartree-Fock
 Hartree-Fock
Doing General SCFMI
 Exchange:     0.1670 Hartree-Fock + 1.0000 wB97X-V + LR-HF
 Correlation:  1.0000 wB97X-V
 Using Euler-Maclaurin-Lebedev (99,590) quadrature formula
 Nonlocal Correlation:  VV10 with C = 0.0100 and b = 6.00 and scale = 1.00000
 Grid used for NLC:  SG-1 standard quadrature
performing fock build at end of subrot_r(subrot) constructor so that all methods have access
<S^2> of initial wavefunction before polarization iterations 0.0000000000
Beginning iterations for the determination of the polarized wavefunction
Energy prior to optimization (guess energy) = -520.159124704723
Begin Timing: Total SCF Calculation
begin iterations for algorithm: DIIS         
the SCF tolerance is set to 1.00e-08
    1    -520.1591247047      4.31e-05     00000 
    2    -520.1592669990      1.88e-05     00000 
    3    -520.1592846912      9.48e-06     00000 
    4    -520.1592902195      2.88e-06     00000 
    5    -520.1592908649      1.62e-06     00000 
    6    -520.1592910456      5.73e-07     00000 
    7    -520.1592910605      3.10e-07     00000 
    8    -520.1592910645      8.20e-08     00000 
    9    -520.1592910648      2.99e-08     00000 
   10    -520.1592910648      1.26e-08     00000 
   11    -520.1592910648      4.38e-09     00000 Convergence criterion met
write pseudocanon occs and virts to disk
write pseudocanon orbital energies to disk
Timing for Total SCF: 1995.00s (wall), 14454.75s (cpu)
<S^2> of polarized wavefunction after polarization iterations 0.0000000000
relaxing scfmi constraint to allow all rotations in the entire AO span
Doing General SCFMI
 Exchange:     0.1670 Hartree-Fock + 1.0000 wB97X-V + LR-HF
 Correlation:  1.0000 wB97X-V
 Using Euler-Maclaurin-Lebedev (99,590) quadrature formula
 Nonlocal Correlation:  VV10 with C = 0.0100 and b = 6.00 and scale = 1.00000
 Grid used for NLC:  SG-1 standard quadrature
performing fock build at end of subrot_r(subrot) constructor so that all methods have access
<S^2> of polarized wavefunction before ct-allowed iterations 0.0000000000
Beginning iterations for the determination of the CT-Allowed wavefunction
Energy prior to optimization (guess energy) = -520.159291064815
Begin Timing: Total SCF Calculation
begin iterations for algorithm: DIIS         
the SCF tolerance is set to 1.00e-08
    1    -520.1592910648      7.22e-05     00000 
    2    -520.1600466229      6.73e-06     00000 
    3    -520.1600664574      1.21e-06     00000 
    4    -520.1600670808      8.82e-07     00000 
    5    -520.1600671800      1.73e-07     00000 
    6    -520.1600671884      9.68e-08     00000 
    7    -520.1600671901      1.70e-08     00000 
    8    -520.1600671903      8.54e-09     00000 Convergence criterion met
write pseudocanon occs and virts to disk
write pseudocanon orbital energies to disk
Timing for Total SCF: 1426.00s (wall), 10162.99s (cpu)
<S^2> of ct_allowed wavefunction after ct-allowed iterations 0.0000000000

================================
        Results of EDA2         
================================
Basic EDA Quantities
--------------------
Fragment Energies (Ha):
1 -248.5664783389
2 -271.5790556277
--------------------
  E_prp (kJ/mol) = 0.0000
  E_sol (kJ/mol) = 2.6116
  E_frz (kJ/mol) = -11.7388
  E_pol (kJ/mol) = -0.4368
  E_vct (kJ/mol) = -2.0377
  E_int (kJ/mol) = -11.6018
--------------------


Initial Wavefunction Decomposition
--------------------
  --------------------
  Orthogonal Fragment Subspace Decomposition:
  --------------------
     E_elec   (ELEC)   (kJ/mol) = -24.2829
     E_pauli  (PAULI)  (kJ/mol) = 30.3870
     E_disp   (DISP)   (kJ/mol) = -17.8429
     --------------------
     Terms summing to E_pauli:
     --------------------
        E_kep_pauli       (kJ/mol) = 39.6586
        E_disp_free_pauli (kJ/mol) = -9.2716
  --------------------
  Classical Frozen Decomposition:
  --------------------
     E_cls_elec  (CLS ELEC)  (kJ/mol) = -10.7600
     E_cls_pauli (CLS PAULI) (kJ/mol) = -0.9788
    [E_mod_pauli (MOD PAULI) (kJ/mol) = 16.8641 (CLS PAULI - DISP from orthogonal decomposition) ]
  --------------------
--------------------

Simplified EDA Summary (kJ/mol)
--------------------
 PREPARATION     0.0000
 SOLVATION       2.6116
 FROZEN          6.1041      (does not include dispersion)
[PAULI           30.3870]     (if this is negligible, then frozen describes electrostatics)
 DISPERSION      -17.8429
 POLARIZATION    -0.4368
 CHARGE TRANSFER -2.0377
 TOTAL           -11.6018     (PRP + SOL + FRZ + DISP + POL + CT)
--------------------

 --------------------------------------------------------------

                    Orbital Energies (a.u.)
 --------------------------------------------------------------

 Alpha MOs
 -- Occupied --
-19.1822 -14.4256 -10.3716 -10.2811 -10.2720 -10.2692 -10.2689 -10.2661
-10.2660 -10.2636 -10.2570 -10.2520  -1.1756  -1.0426  -0.9893  -0.9044
 -0.9005  -0.8694  -0.8073  -0.7764  -0.7259  -0.6978  -0.6939  -0.6458
 -0.6232  -0.6020  -0.5812  -0.5651  -0.5604  -0.5380  -0.5294  -0.5204
 -0.5130  -0.5092  -0.4799  -0.4702  -0.4690  -0.4600  -0.4400  -0.4342
 -0.4341  -0.3821  -0.3738  -0.3423  -0.3368
 -- Virtual --
  0.0601   0.0645   0.0704   0.0751   0.0779   0.0921   0.0931   0.0985
  0.1064   0.1093   0.1177   0.1256   0.1278   0.1323   0.1362   0.1517
  0.1618   0.1643   0.1682   0.1741   0.1778   0.1927   0.1953   0.1982
  0.2037   0.2071   0.2119   0.2153   0.2197   0.2259   0.2332   0.2410
  0.2427   0.2452   0.2502   0.2560   0.2667   0.2697   0.2731   0.2763
  0.2780   0.2835   0.2864   0.2896   0.2936   0.2956   0.3043   0.3073
  0.3094   0.3120   0.3187   0.3255   0.3289   0.3321   0.3358   0.3420
  0.3453   0.3465   0.3515   0.3521   0.3582   0.3598   0.3607   0.3655
  0.3691   0.3719   0.3785   0.3820   0.3843   0.3891   0.3897   0.3921
  0.3960   0.3981   0.4006   0.4015   0.4122   0.4147   0.4156   0.4246
  0.4273   0.4335   0.4366   0.4423   0.4484   0.4515   0.4538   0.4571
  0.4586   0.4612   0.4626   0.4730   0.4781   0.4838   0.4873   0.4908
  0.4941   0.4972   0.5005   0.5042   0.5058   0.5091   0.5169   0.5187
  0.5210   0.5270   0.5290   0.5360   0.5400   0.5441   0.5484   0.5523
  0.5562   0.5601   0.5667   0.5703   0.5724   0.5765   0.5859   0.5927
  0.5962   0.5994   0.6021   0.6045   0.6086   0.6196   0.6229   0.6245
  0.6310   0.6337   0.6417   0.6525   0.6529   0.6614   0.6701   0.6725
  0.6774   0.6827   0.6875   0.6990   0.7025   0.7062   0.7115   0.7133
  0.7285   0.7327   0.7368   0.7400   0.7462   0.7514   0.7589   0.7609
  0.7650   0.7671   0.7699   0.7773   0.7836   0.7879   0.7898   0.7954
  0.7984   0.8012   0.8048   0.8084   0.8119   0.8126   0.8185   0.8203
  0.8290   0.8311   0.8359   0.8403   0.8451   0.8458   0.8492   0.8559
  0.8649   0.8704   0.8749   0.8776   0.8826   0.8872   0.8934   0.8943
  0.9060   0.9171   0.9189   0.9259   0.9304   0.9369   0.9478   0.9480
  0.9552   0.9640   0.9697   0.9728   0.9833   0.9950   0.9990   1.0108
  1.0179   1.0253   1.0318   1.0428   1.0518   1.0563   1.0713   1.0748
  1.0796   1.0963   1.1023   1.1082   1.1178   1.1238   1.1318   1.1489
  1.1619   1.1653   1.1958   1.2030   1.2090   1.2249   1.2343   1.2442
  1.2555   1.2865   1.2894   1.3050   1.3206   1.3302   1.3324   1.3487
  1.3645   1.3725   1.3842   1.3875   1.4083   1.4122   1.4175   1.4402
  1.4568   1.4657   1.4772   1.4930   1.5081   1.5206   1.5263   1.5365
  1.5464   1.5631   1.5849   1.6037   1.6303   1.6329   1.6372   1.6453
  1.6609   1.6941   1.7182   1.7526   1.7659   1.7847   1.7953   1.8012
  1.8037   1.8256   1.8389   1.8518   1.8668   1.8761   1.8851   1.9033
  1.9214   1.9291   1.9345   1.9425   1.9539   1.9567   1.9646   1.9749
  1.9913   1.9986   2.0070   2.0114   2.0237   2.0294   2.0327   2.0343
  2.0526   2.0604   2.0676   2.0836   2.0955   2.1035   2.1160   2.1199
  2.1370   2.1431   2.1453   2.1666   2.1723   2.1786   2.1884   2.2146
  2.2248   2.2555   2.2583   2.2739   2.2773   2.2928   2.2998   2.3095
  2.3227   2.3366   2.3409   2.3791   2.4023   2.4115   2.4250   2.4337
  2.4456   2.4609   2.4679   2.4826   2.5075   2.5438   2.5471   2.5565
  2.5609   2.5766   2.5830   2.5898   2.6174   2.6236   2.6439   2.6594
  2.6813   2.6912   2.7019   2.7121   2.7204   2.7272   2.7312   2.7503
  2.7599   2.7724   2.7811   2.7880   2.8008   2.8151   2.8229   2.8358
  2.8548   2.8678   2.8822   2.8887   2.8989   2.9156   2.9235   2.9326
  2.9526   2.9571   2.9592   2.9755   2.9860   2.9992   3.0148   3.0261
  3.0276   3.0407   3.0532   3.0593   3.0756   3.0932   3.1008   3.1172
  3.1260   3.1443   3.1538   3.1781   3.1821   3.1882   3.2186   3.2407
  3.2437   3.2573   3.2603   3.2779   3.2907   3.3014   3.3122   3.3228
  3.3451   3.3498   3.3618   3.3734   3.3737   3.3840   3.3933   3.4004
  3.4094   3.4164   3.4263   3.4395   3.4487   3.4606   3.4771   3.4842
  3.4973   3.5017   3.5125   3.5217   3.5281   3.5340   3.5437   3.5514
  3.5520   3.5725   3.5806   3.5877   3.5981   3.6026   3.6196   3.6223
  3.6315   3.6406   3.6476   3.6721   3.6815   3.6927   3.7070   3.7215
  3.7337   3.7702   3.7793   3.7913   3.8006   3.8156   3.8187   3.8313
  3.8539   3.9030   3.9203   3.9338   3.9422   3.9669   4.0036   4.0193
  4.0329   4.0553   4.0758   4.1045   4.1160   4.1294   4.1510   4.2012
  4.2046   4.2610   4.2647   4.2816   4.2829   4.3231   4.3259   4.3336
  4.3476   4.3535   4.3636   4.3800   4.3996   4.4135   4.4310   4.4409
  4.4547   4.4783   4.5396   4.6019   4.6223   4.6285   4.6341   4.6570
  4.7099   4.7424   4.7643   4.7779   4.8013   4.8148   4.8655   4.8749
  4.9290   4.9385   4.9506   4.9580   5.0140   5.0237   5.0359   5.0862
  5.1783   5.2163   5.2370   5.2773   5.2885   5.3428   5.3686   5.3860
  5.4260   5.4419   5.4530   5.4770   5.5351   5.5508   5.6026   5.6836
  5.7997   5.8463   5.9422   6.1825   6.2829   6.5501   6.7043   6.7924
  6.8730   7.0192   7.2570   7.3392  22.6540  22.6699  22.6955  22.8472
 22.8966  22.9082  23.0090  23.0777  23.4104  23.6932  32.5550  44.5122
 --------------------------------------------------------------

          Ground-State Mulliken Net Atomic Charges

     Atom                 Charge (a.u.)
  ----------------------------------------
      1 C                     0.185954
      2 C                    -1.080856
      3 C                     0.165652
      4 O                    -0.733030
      5 N                    -0.266131
      6 H                     0.151479
      7 H                     0.304095
      8 H                     0.247980
      9 H                     0.274839
     10 H                     0.257899
     11 H                     0.249114
     12 H                     0.270781
     13 C                    -1.014725
     14 C                    -0.119844
     15 C                     0.716221
     16 C                    -0.741234
     17 C                    -0.485603
     18 C                    -0.613498
     19 C                    -0.557033
     20 H                     0.360871
     21 H                     0.411403
     22 H                     0.272180
     23 H                     0.200662
     24 H                     0.414120
     25 H                     0.397868
     26 H                     0.389511
     27 H                     0.341324
  ----------------------------------------
  Sum of atomic charges =     0.000000

 -----------------------------------------------------------------
                    Cartesian Multipole Moments
 -----------------------------------------------------------------
    Charge (ESU x 10^10)
                -0.0000
    Dipole Moment (Debye)
         X       3.1809      Y       4.2590      Z       3.3324
       Tot       6.2739
    Quadrupole Moments (Debye-Ang)
        XX     -59.8369     XY      -1.4634     YY     -86.2531
        XZ       9.0623     YZ       0.0903     ZZ     -68.0672
    Octopole Moments (Debye-Ang^2)
       XXX      35.0649    XXY     -13.0804    XYY       4.9821
       YYY      54.5407    XXZ       8.4728    XYZ      -2.4972
       YYZ     -19.9664    XZZ      11.5452    YZZ      -6.9892
       ZZZ      48.9231
    Hexadecapole Moments (Debye-Ang^3)
      XXXX    -814.1927   XXXY      36.9407   XXYY    -347.4624
      XYYY      97.1111   YYYY   -1509.1644   XXXZ     -71.5728
      XXYZ     157.3633   XYYZ     -30.4197   YYYZ     569.6035
      XXZZ    -363.2938   XYZZ       9.1313   YYZZ    -485.6697
      XZZZ    -112.4770   YZZZ     574.6673   ZZZZ   -1614.1534
 -----------------------------------------------------------------
Archival summary:
1\1\compute-0-14.local\SP\ProcedureUnspecified\BasisUnspecified\111015\meili\WedSep2906:31:512021WedSep2906:31:512021\0\\#,ProcedureUnspecified,BasisUnspecified,\\0,1\O\C,1,1.22999\N,2,1.32029,1,122.675\H,3,1.00801,2,120.101,1,175.412,0\H,3,1.0098,2,119.499,1,-4.84885,0\C,2,1.50172,1,120.823,3,175.321,0\H,6,1.08854,2,108.684,1,152.686,0\H,6,1.08908,2,108.231,1,-88.6704,0\C,6,1.53089,2,113.185,1,36.2871,0\H,9,1.08368,6,109.006,2,-46.9727,0\H,9,1.1,6,109.067,2,68.2013,0\H,9,1.1,6,107.447,2,-166.718,0\H,8,2.61956,6,113.33,2,25.177,0\C,13,1.08085,8,90.6206,6,176.058,0\C,14,1.39469,13,118.904,8,81.1776,0\C,15,1.40346,14,117.947,13,179.704,0\H,16,1.0808,15,119.1,14,-179.629,0\C,14,1.40697,13,120.04,8,-98.7862,0\H,18,1.08002,14,120.349,13,-0.301825,0\C,18,1.38762,14,120.738,13,179.613,0\H,20,1.08298,18,120.13,14,-179.696,0\C,20,1.39392,18,119.27,14,0.52582,0\H,22,1.08331,20,119.268,18,-179.925,0\C,15,1.52686,14,119.776,13,-3.13021,0\H,24,1.09201,15,107.273,14,21.0474,0\H,24,1.0926,15,106.944,14,-95.125,0\H,24,1.1,15,115.495,14,140.535,0\\\@

 Total job time:  19101.12s(wall), 47558.08s(cpu) 
 Wed Sep 29 06:31:51 2021

        *************************************************************
        *                                                           *
        *  Thank you very much for using Q-Chem.  Have a nice day.  *
        *                                                           *
        *************************************************************


