
Running Job 1 of 1 SSI-003GLU-006GLN-2_PCM_TZVPD.in
qchem SSI-003GLU-006GLN-2_PCM_TZVPD.in_11769.0 /tmp/qchem11769/ 0
/global/common/cori/software/qchem/5.2/exe/qcprog.exe_s SSI-003GLU-006GLN-2_PCM_TZVPD.in_11769.0 /tmp/qchem11769/
                  Welcome to Q-Chem
     A Quantum Leap Into The Future Of Chemistry


 Q-Chem 5.2, Q-Chem, Inc., Pleasanton, CA (2019)

 License issued to: National Energy Research Scientific Computing Center

 Yihan Shao,  Zhengting Gan,  E. Epifanovsky,  A. T. B. Gilbert,  M. Wormit,  
 J. Kussmann,  A. W. Lange,  A. Behn,  Jia Deng,  Xintian Feng,  D. Ghosh,  
 M. Goldey,  P. R. Horn,  L. D. Jacobson,  I. Kaliman,  T. Kus,  A. Landau,  
 Jie Liu,  E. I. Proynov,  R. M. Richard,  R. P. Steele,  E. J. Sundstrom,  
 H. L. Woodcock III,  P. M. Zimmerman,  D. Zuev,  B. Albrecht,  E. Alguire,  
 S. A. Baeppler,  D. Barton,  Z. Benda,  Y. A. Bernard,  E. J. Berquist,  
 K. B. Bravaya,  H. Burton,  D. Casanova,  Chun-Min Chang,  Yunqing Chen,  
 A. Chien,  K. D. Closser,  M. P. Coons,  S. Coriani,  S. Dasgupta,  
 A. L. Dempwolff,  M. Diedenhofen,  Hainam Do,  R. G. Edgar,  Po-Tung Fang,  
 S. Faraji,  S. Fatehi,  Qingguo Feng,  K. D. Fenk,  J. Fosso-Tande,  
 J. Gayvert,  Qinghui Ge,  A. Ghysels,  G. Gidofalvi,  J. Gomes,  
 J. Gonthier,  A. Gunina,  D. Hait,  M. W. D. Hanson-Heine,  
 P. H. P. Harbach,  A. W. Hauser,  M. F. Herbst,  J. E. Herr,  
 E. G. Hohenstein,  Z. C. Holden,  Kerwin Hui,  B. C. Huynh,  T.-C. Jagau,  
 Hyunjun Ji,  B. Kaduk,  K. Khistyaev,  Jaehoon Kim,  P. Klunzinger,  K. Koh,  
 D. Kosenkov,  L. Koulias,  T. Kowalczyk,  C. M. Krauter,  A. Kunitsa,  
 Ka Un Lao,  A. Laurent,  K. V. Lawler,  Joonho Lee,  D. Lefrancois,  
 S. Lehtola,  D. S. Levine,  Yi-Pei Li,  You-Sheng Lin,  Fenglai Liu,  
 E. Livshits,  A. Luenser,  P. Manohar,  E. Mansoor,  S. F. Manzer,  
 Shan-Ping Mao,  Yuezhi Mao,  N. Mardirossian,  A. V. Marenich,  
 T. Markovich,  L. A. Martinez-Martinez,  S. A. Maurer,  N. J. Mayhall,  
 S. C. McKenzie,  J.-M. Mewes,  P. Morgante,  A. F. Morrison,  
 J. W. Mullinax,  K. Nanda,  T. S. Nguyen-Beck,  R. Olivares-Amaya,  
 J. A. Parkhill,  Zheng Pei,  T. M. Perrine,  F. Plasser,  P. Pokhilko,  
 S. Prager,  A. Prociuk,  E. Ramos,  D. R. Rehn,  F. Rob,  M. Scheurer,  
 M. Schneider,  N. Sergueev,  S. M. Sharada,  S. Sharma,  D. W. Small,  
 T. Stauch,  T. Stein,  Yu-Chuan Su,  A. J. W. Thom,  A. Tkatchenko,  
 T. Tsuchimochi,  N. M. Tubman,  L. Vogt,  M. L. Vidal,  O. Vydrov,  
 M. A. Watson,  J. Wenzel,  M. de Wergifosse,  T. A. Wesolowski,  A. White,  
 J. Witte,  A. Yamada,  Jun Yang,  K. Yao,  S. Yeganeh,  S. R. Yost,  
 Zhi-Qiang You,  A. Zech,  Igor Ying Zhang,  Xing Zhang,  Yan Zhao,  
 Ying Zhu,  B. R. Brooks,  G. K. L. Chan,  C. J. Cramer,  M. S. Gordon,  
 W. J. Hehre,  A. Klamt,  M. W. Schmidt,  C. D. Sherrill,  D. G. Truhlar,  
 A. Aspuru-Guzik,  R. Baer,  A. T. Bell,  N. A. Besley,  Jeng-Da Chai,  
 A. E. DePrince, III,  R. A. DiStasio Jr.,  A. Dreuw,  B. D. Dunietz,  
 T. R. Furlani,  Chao-Ping Hsu,  Yousung Jung,  Jing Kong,  D. S. Lambrecht,  
 WanZhen Liang,  C. Ochsenfeld,  V. A. Rassolov,  L. V. Slipchenko,  
 J. E. Subotnik,  T. Van Voorhis,  J. M. Herbert,  A. I. Krylov,  
 P. M. W. Gill,  M. Head-Gordon

 Contributors to earlier versions of Q-Chem not listed above: 
 R. D. Adamson,  B. Austin,  J. Baker,  G. J. O. Beran,  K. Brandhorst,  
 S. T. Brown,  E. F. C. Byrd,  A. K. Chakraborty,  C.-L. Cheng,  
 Siu Hung Chien,  D. M. Chipman,  D. L. Crittenden,  H. Dachsel,  
 R. J. Doerksen,  A. D. Dutoi,  L. Fusti-Molnar,  W. A. Goddard III,  
 A. Golubeva-Zadorozhnaya,  S. R. Gwaltney,  G. Hawkins,  A. Heyden,  
 S. Hirata,  G. Kedziora,  F. J. Keil,  C. Kelley,  Jihan Kim,  R. A. King,  
 R. Z. Khaliullin,  P. P. Korambath,  W. Kurlancheek,  A. M. Lee,  M. S. Lee,  
 S. V. Levchenko,  Ching Yeh Lin,  D. Liotard,  R. C. Lochan,  I. Lotan,  
 P. E. Maslen,  N. Nair,  D. P. O'Neill,  D. Neuhauser,  E. Neuscamman,  
 C. M. Oana,  R. Olson,  B. Peters,  R. Peverati,  P. A. Pieniazek,  
 Y. M. Rhee,  J. Ritchie,  M. A. Rohrdanz,  E. Rosta,  N. J. Russ,  
 H. F. Schaefer III,  N. E. Schultz,  N. Shenvi,  A. C. Simmonett,  A. Sodt,  
 D. Stuck,  K. S. Thanthiriwatte,  V. Vanovschi,  Tao Wang,  A. Warshel,  
 C. F. Williams,  Q. Wu,  X. Xu,  W. Zhang

 Please cite Q-Chem as follows:
 Y. Shao et al., Mol. Phys. 113, 184-215 (2015)
 DOI: 10.1080/00268976.2014.952696

 Q-Chem 5.2.0 for Intel X86 EM64T Linux

 Parts of Q-Chem use Armadillo 8.300.2 (Tropical Shenanigans).
 http://arma.sourceforge.net/

 Q-Chem begins on Sun Sep 26 01:29:42 2021  

Host: cori01
0

     Scratch files written to /tmp/qchem11769//
 May1019 |scratch|qcdevops|jenkins|workspace|build_RNUM -1
Processing $rem in /global/common/cori/software/qchem/5.2/config/preferences:
	 MEM_TOTAL  96000 
NAlpha2: 80
NElect   80
Mult     1
Symmetry turned off for PCM/SM12/SMD calculation

 Q-Chem warning in module libgen/rem_setup.C, line 2803:

 Neither GIA nor STOLL is specified by user. Use STOLL as the default


Checking the input file for inconsistencies... 	...done.

--------------------------------------------------------------
User input:
--------------------------------------------------------------
$comment
SSI-003GLU-006GLN-2.pdb
$end

$molecule
-1 1
--
-1 1
C   -0.321826499222    1.533030934291    0.637182709527
C   -1.328826499222    2.456030934291   -0.042817290473
C    1.093173500778    2.065030934291    0.642182709527
O    1.283173500778    3.266030934291    0.345182709527
O    2.013173500778    1.270030934291    0.943182709527
H   -0.655826499222    1.265030934291    1.643182709527
H   -0.222826499222    0.665030934291    0.037182709527
H   -0.833826499222    2.991030934291   -0.854817290473
H   -1.729826499222    3.181030934291    0.666182709527
H   -2.135556499222    1.864380934291   -0.500127290473
--
0 1
C   -1.537826499222   -1.725969065709   -0.255817290473
C   -1.704826499222   -2.716969065709    0.890182709527
C   -0.204826499222   -1.928969065709   -0.901817290473
O    0.342173500778   -0.983969065709   -1.452817290473
N    0.266173500778   -3.165969065709   -0.809817290473
H   -2.297826499222   -1.795969065709   -1.032817290473
H   -1.498826499222   -0.772969065709    0.178182709527
H   -1.754826499222   -2.069969065709    1.768182709527
H   -0.892826499222   -3.391969065709    1.151182709527
H    1.171173500778   -3.359969065709   -1.217817290473
H   -0.254826499222   -3.901969065709   -0.365817290473
H   -2.652086499222   -3.274736065709    0.850292709527
$end

$rem
JOBTYPE			EDA
EDA2			1
method			wB97X-V
BASIS			def2-TZVPD
XC_GRID			000099000590
NL_GRID			1
UNRESTRICTED		FALSE
MAX_SCF_CYCLES		200
SYMMETRY		FALSE
SYM_IGNORE		TRUE
MEM_STATIC		2000
BASIS_LIN_DEP_THRESH 	6
THRESH 			14
SCF_CONVERGENCE 	8
SCF_PRINT_FRGM 		TRUE
SOLVENT_METHOD          PCM
$end

$PCM
THEORY                  CPCM
METHOD                  SWIG
SOLVER                  INVERSION
RADII                   UFF
HPOINTS                 302
HEAVYPOINTS             302
PRINTLEVEL              0
$END

$SOLVENT
DIELECTRIC              78.390000 ! water
$END
--------------------------------------------------------------
 ----------------------------------------------------------------
             Standard Nuclear Orientation (Angstroms)
    I     Atom           X                Y                Z
 ----------------------------------------------------------------
    1      C      -0.3218264992     1.5330309343     0.6371827095
    2      C      -1.3288264992     2.4560309343    -0.0428172905
    3      C       1.0931735008     2.0650309343     0.6421827095
    4      O       1.2831735008     3.2660309343     0.3451827095
    5      O       2.0131735008     1.2700309343     0.9431827095
    6      H      -0.6558264992     1.2650309343     1.6431827095
    7      H      -0.2228264992     0.6650309343     0.0371827095
    8      H      -0.8338264992     2.9910309343    -0.8548172905
    9      H      -1.7298264992     3.1810309343     0.6661827095
   10      H      -2.1355564992     1.8643809343    -0.5001272905
   11      C      -1.5378264992    -1.7259690657    -0.2558172905
   12      C      -1.7048264992    -2.7169690657     0.8901827095
   13      C      -0.2048264992    -1.9289690657    -0.9018172905
   14      O       0.3421735008    -0.9839690657    -1.4528172905
   15      N       0.2661735008    -3.1659690657    -0.8098172905
   16      H      -2.2978264992    -1.7959690657    -1.0328172905
   17      H      -1.4988264992    -0.7729690657     0.1781827095
   18      H      -1.7548264992    -2.0699690657     1.7681827095
   19      H      -0.8928264992    -3.3919690657     1.1511827095
   20      H       1.1711735008    -3.3599690657    -1.2178172905
   21      H      -0.2548264992    -3.9019690657    -0.3658172905
   22      H      -2.6520864992    -3.2747360657     0.8502927095
 ----------------------------------------------------------------
 Nuclear Repulsion Energy =         527.68747883 hartrees
 There are       40 alpha and       40 beta electrons
 Requested basis set is def2-TZVPD
 There are 193 shells and 487 basis functions

 Total QAlloc Memory Limit  96000 MB
 Mega-Array Size      1956 MB
 MEM_STATIC part      2000 MB
 Discretize the solute cavity surface with Lebedev spheres
	Using 302 Lebedev grid points for each H atom
	Using 302 Lebedev grid points for other atoms
	Atomic van der Waals radii will be scaled by 1.20
 Remove points where switching function is < 1.0e-08
 Keep 2479 surface tesserae and discard 4165 interior tesserae
 Molecular Surface Area = 256.273 Angst**2
 A cutoff of  1.0D-14 yielded  16645 shell pairs
 There are    106291 function pairs (    133322 Cartesian)
 Smallest overlap matrix eigenvalue = 1.73E-06

 Scale SEOQF with 1.000000e-01/1.000000e-01/1.000000e-01

 Standard Electronic Orientation quadrupole field applied
 Nucleus-field energy     =     0.0000000283 hartrees

 -----------------------------------------------------------------------
  General SCF calculation program by
  Eric Jon Sundstrom, Paul Horn, Yuezhi Mao, Dmitri Zuev, Alec White,
  David Stuck, Shaama M.S., Shane Yost, Joonho Lee, David Small,
  Daniel Levine, Susi Lehtola, Hugh Burton, Evgeny Epifanovsky
 -----------------------------------------------------------------------
================================================================
                 ALMO-EDA with the EDA2 driver                  
================================================================
 The second-generation ALMO-EDA (for DFT):                      
 P. R. Horn, Y. Mao and M. Head-Gordon, PCCP, 18, 23067 (2016)  
 Decomposition of the frozen energy:                            
 P. R. Horn, Y. Mao and M. Head-Gordon, JCP, 144, 114107 (2016) 
 FERF model for polarization:                                   
 P. R. Horn and M. Head-Gordon, JCP, 143, 114111 (2015)         
Using eda2 option set 1
Option set summary: Frozen orbital wavefunction, initial wavefunction decomposition, and nDQ polarization.
--------------------------------
Printing EDA Options
--------------------------------
eda_child_super_basis      0
fragmo_guess_mode          0
child_mp                   1
child_mp_orders            232
cls_elec                   1
cls_disp                   0
scfmi_mode                 1
scfmi_occs                 0
scfmi_virts                0
frz_relax                  0
frz_relax_method           0
dc_pen_start               0
dc_pen_conv                0
dc_pen_increment           0
dc_pen_steps               0
dc_pen_thresh_factor       0
dc_pen_pre_newton_thresh   0
frz_ortho_decomp           1
frz_ortho_decomp_conv      6
frgm_method                2
scfmi_freeze_ss            0
separate_rehyb             0
plot_diff_den              0
eda_nocv                   0
eda_vct_relax              1
disp_free_x                0
disp_free_c                0
eda_bsse                   0
eda_pct_a                  0
eda_covp                   0
--------------------------------
Attempting to make child job directory: /tmp/qchem11769//Frg1/
Attempting to make child job directory: /tmp/qchem11769//Frg2/
Creating input file /tmp/qchem11769/Frg1.input
using default PutDataFrgm: nothing
calling putenv with: QCSCRATCH=/tmp/qchem11769/ 
calling putenv with: QCLOCALSCR=/tmp/qchem11769/ 
Spawning Job For Fragment 0
                  Welcome to Q-Chem
     A Quantum Leap Into The Future Of Chemistry


 Q-Chem 5.2, Q-Chem, Inc., Pleasanton, CA (2019)

 License issued to: National Energy Research Scientific Computing Center

 Yihan Shao,  Zhengting Gan,  E. Epifanovsky,  A. T. B. Gilbert,  M. Wormit,  
 J. Kussmann,  A. W. Lange,  A. Behn,  Jia Deng,  Xintian Feng,  D. Ghosh,  
 M. Goldey,  P. R. Horn,  L. D. Jacobson,  I. Kaliman,  T. Kus,  A. Landau,  
 Jie Liu,  E. I. Proynov,  R. M. Richard,  R. P. Steele,  E. J. Sundstrom,  
 H. L. Woodcock III,  P. M. Zimmerman,  D. Zuev,  B. Albrecht,  E. Alguire,  
 S. A. Baeppler,  D. Barton,  Z. Benda,  Y. A. Bernard,  E. J. Berquist,  
 K. B. Bravaya,  H. Burton,  D. Casanova,  Chun-Min Chang,  Yunqing Chen,  
 A. Chien,  K. D. Closser,  M. P. Coons,  S. Coriani,  S. Dasgupta,  
 A. L. Dempwolff,  M. Diedenhofen,  Hainam Do,  R. G. Edgar,  Po-Tung Fang,  
 S. Faraji,  S. Fatehi,  Qingguo Feng,  K. D. Fenk,  J. Fosso-Tande,  
 J. Gayvert,  Qinghui Ge,  A. Ghysels,  G. Gidofalvi,  J. Gomes,  
 J. Gonthier,  A. Gunina,  D. Hait,  M. W. D. Hanson-Heine,  
 P. H. P. Harbach,  A. W. Hauser,  M. F. Herbst,  J. E. Herr,  
 E. G. Hohenstein,  Z. C. Holden,  Kerwin Hui,  B. C. Huynh,  T.-C. Jagau,  
 Hyunjun Ji,  B. Kaduk,  K. Khistyaev,  Jaehoon Kim,  P. Klunzinger,  K. Koh,  
 D. Kosenkov,  L. Koulias,  T. Kowalczyk,  C. M. Krauter,  A. Kunitsa,  
 Ka Un Lao,  A. Laurent,  K. V. Lawler,  Joonho Lee,  D. Lefrancois,  
 S. Lehtola,  D. S. Levine,  Yi-Pei Li,  You-Sheng Lin,  Fenglai Liu,  
 E. Livshits,  A. Luenser,  P. Manohar,  E. Mansoor,  S. F. Manzer,  
 Shan-Ping Mao,  Yuezhi Mao,  N. Mardirossian,  A. V. Marenich,  
 T. Markovich,  L. A. Martinez-Martinez,  S. A. Maurer,  N. J. Mayhall,  
 S. C. McKenzie,  J.-M. Mewes,  P. Morgante,  A. F. Morrison,  
 J. W. Mullinax,  K. Nanda,  T. S. Nguyen-Beck,  R. Olivares-Amaya,  
 J. A. Parkhill,  Zheng Pei,  T. M. Perrine,  F. Plasser,  P. Pokhilko,  
 S. Prager,  A. Prociuk,  E. Ramos,  D. R. Rehn,  F. Rob,  M. Scheurer,  
 M. Schneider,  N. Sergueev,  S. M. Sharada,  S. Sharma,  D. W. Small,  
 T. Stauch,  T. Stein,  Yu-Chuan Su,  A. J. W. Thom,  A. Tkatchenko,  
 T. Tsuchimochi,  N. M. Tubman,  L. Vogt,  M. L. Vidal,  O. Vydrov,  
 M. A. Watson,  J. Wenzel,  M. de Wergifosse,  T. A. Wesolowski,  A. White,  
 J. Witte,  A. Yamada,  Jun Yang,  K. Yao,  S. Yeganeh,  S. R. Yost,  
 Zhi-Qiang You,  A. Zech,  Igor Ying Zhang,  Xing Zhang,  Yan Zhao,  
 Ying Zhu,  B. R. Brooks,  G. K. L. Chan,  C. J. Cramer,  M. S. Gordon,  
 W. J. Hehre,  A. Klamt,  M. W. Schmidt,  C. D. Sherrill,  D. G. Truhlar,  
 A. Aspuru-Guzik,  R. Baer,  A. T. Bell,  N. A. Besley,  Jeng-Da Chai,  
 A. E. DePrince, III,  R. A. DiStasio Jr.,  A. Dreuw,  B. D. Dunietz,  
 T. R. Furlani,  Chao-Ping Hsu,  Yousung Jung,  Jing Kong,  D. S. Lambrecht,  
 WanZhen Liang,  C. Ochsenfeld,  V. A. Rassolov,  L. V. Slipchenko,  
 J. E. Subotnik,  T. Van Voorhis,  J. M. Herbert,  A. I. Krylov,  
 P. M. W. Gill,  M. Head-Gordon

 Contributors to earlier versions of Q-Chem not listed above: 
 R. D. Adamson,  B. Austin,  J. Baker,  G. J. O. Beran,  K. Brandhorst,  
 S. T. Brown,  E. F. C. Byrd,  A. K. Chakraborty,  C.-L. Cheng,  
 Siu Hung Chien,  D. M. Chipman,  D. L. Crittenden,  H. Dachsel,  
 R. J. Doerksen,  A. D. Dutoi,  L. Fusti-Molnar,  W. A. Goddard III,  
 A. Golubeva-Zadorozhnaya,  S. R. Gwaltney,  G. Hawkins,  A. Heyden,  
 S. Hirata,  G. Kedziora,  F. J. Keil,  C. Kelley,  Jihan Kim,  R. A. King,  
 R. Z. Khaliullin,  P. P. Korambath,  W. Kurlancheek,  A. M. Lee,  M. S. Lee,  
 S. V. Levchenko,  Ching Yeh Lin,  D. Liotard,  R. C. Lochan,  I. Lotan,  
 P. E. Maslen,  N. Nair,  D. P. O'Neill,  D. Neuhauser,  E. Neuscamman,  
 C. M. Oana,  R. Olson,  B. Peters,  R. Peverati,  P. A. Pieniazek,  
 Y. M. Rhee,  J. Ritchie,  M. A. Rohrdanz,  E. Rosta,  N. J. Russ,  
 H. F. Schaefer III,  N. E. Schultz,  N. Shenvi,  A. C. Simmonett,  A. Sodt,  
 D. Stuck,  K. S. Thanthiriwatte,  V. Vanovschi,  Tao Wang,  A. Warshel,  
 C. F. Williams,  Q. Wu,  X. Xu,  W. Zhang

 Please cite Q-Chem as follows:
 Y. Shao et al., Mol. Phys. 113, 184-215 (2015)
 DOI: 10.1080/00268976.2014.952696

 Q-Chem 5.2.0 for Intel X86 EM64T Linux

 Parts of Q-Chem use Armadillo 8.300.2 (Tropical Shenanigans).
 http://arma.sourceforge.net/

 Q-Chem begins on Sun Sep 26 01:29:46 2021  

Host: cori01
0

     Scratch files written to /tmp/qchem11769//Frg1//
 May1019 |scratch|qcdevops|jenkins|workspace|build_RNUM -1
Processing $rem in /global/common/cori/software/qchem/5.2/config/preferences:
	 MEM_TOTAL  96000 
NAlpha2: 40
NElect   40
Mult     1
Symmetry turned off for PCM/SM12/SMD calculation

Checking the input file for inconsistencies... 	...done.

--------------------------------------------------------------
User input:
--------------------------------------------------------------
$molecule
-1 1
 6	-0.3218264992	1.5330309343	0.6371827095
 6	-1.3288264992	2.4560309343	-0.0428172905
 6	1.0931735008	2.0650309343	0.6421827095
 8	1.2831735008	3.2660309343	0.3451827095
 8	2.0131735008	1.2700309343	0.9431827095
 1	-0.6558264992	1.2650309343	1.6431827095
 1	-0.2228264992	0.6650309343	0.0371827095
 1	-0.8338264992	2.9910309343	-0.8548172905
 1	-1.7298264992	3.1810309343	0.6661827095
 1	-2.1355564992	1.8643809343	-0.5001272905
$end
$rem
EDA2		1
METHOD		WB97X-V
BASIS		DEF2-TZVPD
XC_GRID		000099000590
NL_GRID		1
UNRESTRICTED		FALSE
MAX_SCF_CYCLES		200
SYMMETRY		FALSE
SYM_IGNORE		TRUE
BASIS_LIN_DEP_THRESH		6
THRESH		14
SCF_CONVERGENCE		8
SCF_PRINT_FRGM		TRUE
SOLVENT_METHOD		PCM
!required keywords
JOBTYPE		SP
SYM_IGNORE		TRUE
SUBSYSTEM		TRUE
GEN_SCFMAN		TRUE
CHILD_INSTRUCTION		2
SYM_IGNORE		TRUE
SCFMI		0
RI_K 0		
PARI_K 0		
MIN_PARI_K 0		
IARI_K 0		
OCC_RI_K 0		
PURECART		1111
MEM_STATIC		2000
MEM_TOTAL		96000
GUI		0
CHILD_MP		1
CHILD_MP_ORDERS		232
FRZ_RELAX		0
FRZ_RELAX_METHOD		0
EDA_CLS_ELEC		1
EDA_CLS_DISP		0
FRZ_ORTHO_DECOMP		1
EDA2		FALSE
FRGM_METHOD		FALSE
CIS_N_ROOTS  0
LOCAL_CIS    0
CIS_RLX_DNS  1
$end
$pcm
THEORY                  CPCM
METHOD                  SWIG
SOLVER                  INVERSION
RADII                   UFF
HPOINTS                 302
HEAVYPOINTS             302
PRINTLEVEL              0
$end
$solvent
DIELECTRIC              78.390000 ! water
$end
--------------------------------------------------------------
 ----------------------------------------------------------------
             Standard Nuclear Orientation (Angstroms)
    I     Atom           X                Y                Z
 ----------------------------------------------------------------
    1      C      -0.3218264992     1.5330309343     0.6371827095
    2      C      -1.3288264992     2.4560309343    -0.0428172905
    3      C       1.0931735008     2.0650309343     0.6421827095
    4      O       1.2831735008     3.2660309343     0.3451827095
    5      O       2.0131735008     1.2700309343     0.9431827095
    6      H      -0.6558264992     1.2650309343     1.6431827095
    7      H      -0.2228264992     0.6650309343     0.0371827095
    8      H      -0.8338264992     2.9910309343    -0.8548172905
    9      H      -1.7298264992     3.1810309343     0.6661827095
   10      H      -2.1355564992     1.8643809343    -0.5001272905
 ----------------------------------------------------------------
 Nuclear Repulsion Energy =         169.91028045 hartrees
 There are       20 alpha and       20 beta electrons
 Requested basis set is def2-TZVPD
 There are 92 shells and 236 basis functions

 Total QAlloc Memory Limit  96000 MB
 Mega-Array Size      1956 MB
 MEM_STATIC part      2000 MB
 Discretize the solute cavity surface with Lebedev spheres
	Using 302 Lebedev grid points for each H atom
	Using 302 Lebedev grid points for other atoms
	Atomic van der Waals radii will be scaled by 1.20
 Remove points where switching function is < 1.0e-08
 Keep 1295 surface tesserae and discard 1725 interior tesserae
 Molecular Surface Area = 142.427 Angst**2

                       Distance Matrix (Angstroms)
             C (  1)   C (  2)   C (  3)   O (  4)   O (  5)   H (  6)
   C (  2)  1.525902
   C (  3)  1.511712  2.547193
   O (  4)  2.380037  2.762098  1.251683
   O (  5)  2.369605  3.680728  1.252608  2.207832
   H (  6)  1.093351  2.171176  2.168179  3.073845  2.759273
   H (  7)  1.059823  2.106494  2.014418  3.021275  2.487279  1.768255
   H (  8)  2.148016  1.091143  2.609945  2.448941  3.781541  3.041507
   H (  9)  2.167766  1.090462  3.035681  3.031243  4.211733  2.403968
   H ( 10)  2.166306  1.099998  3.430719  3.790368  4.432647  2.672564
             H (  7)   H (  8)   H (  9)
   H (  8)  2.565007
   H (  9)  2.999491  1.775488
   H ( 10)  2.320706  1.757739  1.805121
 
 A cutoff of  1.0D-14 yielded   4188 shell pairs
 There are     27994 function pairs (     35674 Cartesian)
 Smallest overlap matrix eigenvalue = 7.68E-06

 Scale SEOQF with 1.000000e-01/1.000000e-01/1.000000e-01

 Standard Electronic Orientation quadrupole field applied
 Nucleus-field energy     =     0.0000000150 hartrees
 Guess from superposition of atomic densities
 Warning:  Energy on first SCF cycle will be non-variational
 SAD guess density has 38.612942 electrons

 -----------------------------------------------------------------------
  General SCF calculation program by
  Eric Jon Sundstrom, Paul Horn, Yuezhi Mao, Dmitri Zuev, Alec White,
  David Stuck, Shaama M.S., Shane Yost, Joonho Lee, David Small,
  Daniel Levine, Susi Lehtola, Hugh Burton, Evgeny Epifanovsky
 -----------------------------------------------------------------------
 Exchange:     0.1670 Hartree-Fock + 1.0000 wB97X-V + LR-HF
 Correlation:  1.0000 wB97X-V
 Using Euler-Maclaurin-Lebedev (99,590) quadrature formula
 Nonlocal Correlation:  VV10 with C = 0.0100 and b = 6.00 and scale = 1.00000
 Grid used for NLC:  SG-1 standard quadrature
Energy prior to optimization (guess energy) = -267.070018746956
Begin Timing: Total SCF Calculation
begin iterations for algorithm: DIIS         
the SCF tolerance is set to 1.00e-08
    1    -267.0700187470      1.28e-02     00000 
    2    -263.1178115621      2.08e-02     00000 
    3    -267.7947186670      4.97e-03     00000 
    4    -267.9270517771      2.14e-03     00000 
    5    -267.9528218682      3.17e-04     00000 
    6    -267.9539359238      6.71e-05     00000 
    7    -267.9539669730      4.37e-05     00000 
    8    -267.9539764130      1.95e-05     00000 
    9    -267.9539787534      5.95e-06     00000 
   10    -267.9539790895      2.09e-06     00000 
   11    -267.9539791581      3.37e-07     00000 
   12    -267.9539791620      1.06e-07     00000 
   13    -267.9539791622      4.45e-08     00000 
   14    -267.9539791622      1.33e-08     00000 
   15    -267.9539791623      2.17e-09     00000 Convergence criterion met
Timing for Total SCF: 663.00s (wall), 1313.67s (cpu)

************** Final PCM Free Energy Summary **************
 G_electrostatic  =      -0.10014090 hartree =     -62.83936372 kcal/mol
 G_cavitation     =       0.00000000 hartree =       0.00000000 kcal/mol
 G_dispersion     =       0.00000000 hartree =       0.00000000 kcal/mol
 G_repulsion      =       0.00000000 hartree =       0.00000000 kcal/mol
 --------------------------------------------------
 Non-electrostatic Free Energy =       0.00000000 hartree =       0.00000000 kcal/mol
 Total                         =      -0.10014090 hartree =     -62.83936372 kcal/mol
 --------------------------------------------------
 SCF Energy (H0 + V/2)                       =    -267.95397916 
 Solute Internal Energy (H0)                 =    -267.85383826 
 Total Free Energy (H0 + V/2 + non-elec)     =    -267.95397916 hartree
                                             = -168143.65971645 kcal/mol
***********************************************************

E_pcm = -0.1001409009
Multipole orders to be included
        2
        3
computing dipole RHS
computing quadrupole RHS
total number of RHS in solve_reponses: 8
RHS batch sizes
        8
Beginning Block Conjugate Gradient Iterations. Batch Number: 0
computing hessian-vector products by finite difference
              1      6.62e-01     00000 Conjugate Gradient Iteration
computing hessian-vector products by finite difference
              2      2.43e-01     00000 Conjugate Gradient Iteration
computing hessian-vector products by finite difference
              3      6.28e-02     00000 Conjugate Gradient Iteration
computing hessian-vector products by finite difference
              4      1.58e-02     00000 Conjugate Gradient Iteration
computing hessian-vector products by finite difference
              5      3.01e-03     00000 Conjugate Gradient Iteration
computing hessian-vector products by finite difference
              6      6.85e-04     00000 Conjugate Gradient Iteration
computing hessian-vector products by finite difference
              7      1.09e-04     00000 Conjugate Gradient Iteration
computing hessian-vector products by finite difference
              8      2.18e-05     00000 Conjugate Gradient Iteration
computing hessian-vector products by finite difference
              9      3.72e-06     00000 Conjugate Gradient Iteration
computing hessian-vector products by finite difference
             10      7.18e-07     00000 Conjugate Gradient Iteration
computing hessian-vector products by finite difference
             11      8.59e-08     00000 Conjugate Gradient Iteration
computing hessian-vector products by finite difference
             12      1.66e-08     00000 Conjugate Gradient Iteration
computing hessian-vector products by finite difference
             13      3.08e-09     00000 CG Converged
batch 0 complete
Done Calculating Responses
TESTING ORTHOGONALIZATION OF MULTIPOLE BASIS
Multipole virts passed orthogonality test
Virts Per Order
           60
          100
 
 --------------------------------------------------------------
 
                    Orbital Energies (a.u.)
 --------------------------------------------------------------
 
 Alpha MOs
 -- Occupied --
-19.1203 -19.1197 -10.3194 -10.2384 -10.2374  -1.1302  -1.0307  -0.8811
 -0.7440  -0.5909  -0.5612  -0.5329  -0.5017  -0.4787  -0.4594  -0.4365
 -0.4256  -0.3274  -0.3217  -0.3075
 -- Virtual --
  0.0639   0.0839   0.0925   0.1019   0.1183   0.1302   0.1389   0.1420
  0.1533   0.1726   0.1794   0.1989   0.2035   0.2129   0.2165   0.2382
  0.2547   0.2634   0.2720   0.2878   0.3003   0.3102   0.3170   0.3227
  0.3347   0.3430   0.3518   0.3632   0.3815   0.3909   0.3964   0.4005
  0.4142   0.4162   0.4200   0.4260   0.4389   0.4478   0.4534   0.4771
  0.4878   0.4984   0.4994   0.5064   0.5085   0.5228   0.5414   0.5451
  0.5540   0.5605   0.5775   0.5929   0.6143   0.6252   0.6375   0.6506
  0.6686   0.6800   0.6927   0.7019   0.7188   0.7258   0.7365   0.7589
  0.7703   0.7814   0.7877   0.8066   0.8117   0.8181   0.8245   0.8350
  0.8472   0.8521   0.8801   0.8896   0.9103   0.9670   0.9989   1.0092
  1.0376   1.0483   1.0673   1.0915   1.1352   1.1591   1.1788   1.2254
  1.2435   1.2845   1.2987   1.3183   1.3590   1.3830   1.3921   1.4043
  1.4296   1.4647   1.5109   1.6302   1.7159   1.7822   1.8502   1.8961
  1.9083   1.9218   1.9250   1.9581   1.9698   1.9788   1.9849   2.0020
  2.0277   2.0434   2.0831   2.1167   2.1825   2.2033   2.2276   2.2572
  2.2750   2.3372   2.3705   2.4201   2.4618   2.4857   2.4951   2.5151
  2.5553   2.5750   2.6032   2.6226   2.6774   2.7625   2.7809   2.8199
  2.8230   2.8681   2.9062   2.9448   2.9752   3.0163   3.0627   3.0882
  3.1511   3.2038   3.2251   3.2705   3.2847   3.3125   3.3312   3.3662
  3.3943   3.4203   3.4550   3.4790   3.5246   3.5357   3.5839   3.5870
  3.6010   3.6188   3.6443   3.6492   3.7051   3.7242   3.7503   3.7915
  3.8423   3.8625   3.9783   4.0204   4.1371   4.1428   4.1735   4.2544
  4.3605   4.4323   4.5528   4.6613   4.6922   4.7546   4.8147   4.8507
  4.9027   5.0499   5.1419   5.3410   5.3780   5.3803   5.3890   5.5186
  5.7433   5.7695   5.8261   6.0389   6.2593   6.3534   6.3705   6.6393
  6.6537   6.7311   6.7684   6.7910   6.9920   6.9968   7.0638   7.2733
  7.3876   7.4089   7.4286  22.6242  22.8237  23.7905  44.2597  44.4191
 --------------------------------------------------------------
 
          Ground-State Mulliken Net Atomic Charges

     Atom                 Charge (a.u.)
  ----------------------------------------
      1 C                     0.068312
      2 C                    -0.662808
      3 C                     0.129797
      4 O                    -0.669007
      5 O                    -0.699936
      6 H                     0.171882
      7 H                     0.113921
      8 H                     0.172032
      9 H                     0.166505
     10 H                     0.209301
  ----------------------------------------
  Sum of atomic charges =    -1.000000

 -----------------------------------------------------------------
                    Cartesian Multipole Moments
 -----------------------------------------------------------------
    Charge (ESU x 10^10)
                -4.8032
    Dipole Moment (Debye)
         X      -9.3129      Y     -11.3859      Z      -3.1492
       Tot      15.0428
    Quadrupole Moments (Debye-Ang)
        XX     -53.0110     XY     -18.6475     YY     -68.2226
        XZ      -7.5296     YZ      -4.5809     ZZ     -34.8356
    Octopole Moments (Debye-Ang^2)
       XXX     -81.3597    XXY    -107.5494    XYY     -64.7116
       YYY    -328.7959    XXZ     -30.8811    XYZ     -11.9177
       YYZ     -26.5025    XZZ     -21.3630    YZZ     -71.0448
       ZZZ     -48.1898
    Hexadecapole Moments (Debye-Ang^3)
      XXXX    -499.9017   XXXY    -142.9474   XXYY    -334.8086
      XYYY    -237.6302   YYYY   -1457.6018   XXXZ     -87.6572
      XXYZ     -47.8649   XYYZ     -44.0848   YYYZ    -115.5967
      XXZZ    -102.4085   XYZZ     -35.0474   YYZZ    -195.2349
      XZZZ     -63.1518   YZZZ     -80.8337   ZZZZ    -121.1398
 -----------------------------------------------------------------
Archival summary:
1\1\nid00534\SP\ProcedureUnspecified\BasisUnspecified\235(1-,1)\meili\SunSep2604:31:342021SunSep2604:31:342021\0\\#,ProcedureUnspecified,BasisUnspecified,\\-1,1\C\O,1,1.25168\O,1,1.25261,2,123.677\C,1,1.51171,2,118.618,3,-179.846,0\H,4,1.05982,1,101.693,2,128.939,0\H,4,1.09335,1,111.664,2,-113.329,0\C,4,1.5259,1,113.974,2,13.3042,0\H,7,1.09046,4,110.799,1,-87.571,0\H,7,1.09114,4,109.198,1,32.4315,0\H,7,1.1,4,110.115,1,149.254,0\\\@

 Total job time:  10909.43s(wall), 21566.02s(cpu) 
 Sun Sep 26 04:31:36 2021

        *************************************************************
        *                                                           *
        *  Thank you very much for using Q-Chem.  Have a nice day.  *
        *                                                           *
        *************************************************************


Done Job For Fragment 0
calling putenv with: QCSCRATCH=/global/cscratch1/sd/meili 
calling putenv with: QCLOCALSCR=/tmp 
calling putenv with: QCTHREADS=32 
Creating input file /tmp/qchem11769/Frg2.input
using default PutDataFrgm: nothing
calling putenv with: QCSCRATCH=/tmp/qchem11769/ 
calling putenv with: QCLOCALSCR=/tmp/qchem11769/ 
Spawning Job For Fragment 1
                  Welcome to Q-Chem
     A Quantum Leap Into The Future Of Chemistry


 Q-Chem 5.2, Q-Chem, Inc., Pleasanton, CA (2019)

 License issued to: National Energy Research Scientific Computing Center

 Yihan Shao,  Zhengting Gan,  E. Epifanovsky,  A. T. B. Gilbert,  M. Wormit,  
 J. Kussmann,  A. W. Lange,  A. Behn,  Jia Deng,  Xintian Feng,  D. Ghosh,  
 M. Goldey,  P. R. Horn,  L. D. Jacobson,  I. Kaliman,  T. Kus,  A. Landau,  
 Jie Liu,  E. I. Proynov,  R. M. Richard,  R. P. Steele,  E. J. Sundstrom,  
 H. L. Woodcock III,  P. M. Zimmerman,  D. Zuev,  B. Albrecht,  E. Alguire,  
 S. A. Baeppler,  D. Barton,  Z. Benda,  Y. A. Bernard,  E. J. Berquist,  
 K. B. Bravaya,  H. Burton,  D. Casanova,  Chun-Min Chang,  Yunqing Chen,  
 A. Chien,  K. D. Closser,  M. P. Coons,  S. Coriani,  S. Dasgupta,  
 A. L. Dempwolff,  M. Diedenhofen,  Hainam Do,  R. G. Edgar,  Po-Tung Fang,  
 S. Faraji,  S. Fatehi,  Qingguo Feng,  K. D. Fenk,  J. Fosso-Tande,  
 J. Gayvert,  Qinghui Ge,  A. Ghysels,  G. Gidofalvi,  J. Gomes,  
 J. Gonthier,  A. Gunina,  D. Hait,  M. W. D. Hanson-Heine,  
 P. H. P. Harbach,  A. W. Hauser,  M. F. Herbst,  J. E. Herr,  
 E. G. Hohenstein,  Z. C. Holden,  Kerwin Hui,  B. C. Huynh,  T.-C. Jagau,  
 Hyunjun Ji,  B. Kaduk,  K. Khistyaev,  Jaehoon Kim,  P. Klunzinger,  K. Koh,  
 D. Kosenkov,  L. Koulias,  T. Kowalczyk,  C. M. Krauter,  A. Kunitsa,  
 Ka Un Lao,  A. Laurent,  K. V. Lawler,  Joonho Lee,  D. Lefrancois,  
 S. Lehtola,  D. S. Levine,  Yi-Pei Li,  You-Sheng Lin,  Fenglai Liu,  
 E. Livshits,  A. Luenser,  P. Manohar,  E. Mansoor,  S. F. Manzer,  
 Shan-Ping Mao,  Yuezhi Mao,  N. Mardirossian,  A. V. Marenich,  
 T. Markovich,  L. A. Martinez-Martinez,  S. A. Maurer,  N. J. Mayhall,  
 S. C. McKenzie,  J.-M. Mewes,  P. Morgante,  A. F. Morrison,  
 J. W. Mullinax,  K. Nanda,  T. S. Nguyen-Beck,  R. Olivares-Amaya,  
 J. A. Parkhill,  Zheng Pei,  T. M. Perrine,  F. Plasser,  P. Pokhilko,  
 S. Prager,  A. Prociuk,  E. Ramos,  D. R. Rehn,  F. Rob,  M. Scheurer,  
 M. Schneider,  N. Sergueev,  S. M. Sharada,  S. Sharma,  D. W. Small,  
 T. Stauch,  T. Stein,  Yu-Chuan Su,  A. J. W. Thom,  A. Tkatchenko,  
 T. Tsuchimochi,  N. M. Tubman,  L. Vogt,  M. L. Vidal,  O. Vydrov,  
 M. A. Watson,  J. Wenzel,  M. de Wergifosse,  T. A. Wesolowski,  A. White,  
 J. Witte,  A. Yamada,  Jun Yang,  K. Yao,  S. Yeganeh,  S. R. Yost,  
 Zhi-Qiang You,  A. Zech,  Igor Ying Zhang,  Xing Zhang,  Yan Zhao,  
 Ying Zhu,  B. R. Brooks,  G. K. L. Chan,  C. J. Cramer,  M. S. Gordon,  
 W. J. Hehre,  A. Klamt,  M. W. Schmidt,  C. D. Sherrill,  D. G. Truhlar,  
 A. Aspuru-Guzik,  R. Baer,  A. T. Bell,  N. A. Besley,  Jeng-Da Chai,  
 A. E. DePrince, III,  R. A. DiStasio Jr.,  A. Dreuw,  B. D. Dunietz,  
 T. R. Furlani,  Chao-Ping Hsu,  Yousung Jung,  Jing Kong,  D. S. Lambrecht,  
 WanZhen Liang,  C. Ochsenfeld,  V. A. Rassolov,  L. V. Slipchenko,  
 J. E. Subotnik,  T. Van Voorhis,  J. M. Herbert,  A. I. Krylov,  
 P. M. W. Gill,  M. Head-Gordon

 Contributors to earlier versions of Q-Chem not listed above: 
 R. D. Adamson,  B. Austin,  J. Baker,  G. J. O. Beran,  K. Brandhorst,  
 S. T. Brown,  E. F. C. Byrd,  A. K. Chakraborty,  C.-L. Cheng,  
 Siu Hung Chien,  D. M. Chipman,  D. L. Crittenden,  H. Dachsel,  
 R. J. Doerksen,  A. D. Dutoi,  L. Fusti-Molnar,  W. A. Goddard III,  
 A. Golubeva-Zadorozhnaya,  S. R. Gwaltney,  G. Hawkins,  A. Heyden,  
 S. Hirata,  G. Kedziora,  F. J. Keil,  C. Kelley,  Jihan Kim,  R. A. King,  
 R. Z. Khaliullin,  P. P. Korambath,  W. Kurlancheek,  A. M. Lee,  M. S. Lee,  
 S. V. Levchenko,  Ching Yeh Lin,  D. Liotard,  R. C. Lochan,  I. Lotan,  
 P. E. Maslen,  N. Nair,  D. P. O'Neill,  D. Neuhauser,  E. Neuscamman,  
 C. M. Oana,  R. Olson,  B. Peters,  R. Peverati,  P. A. Pieniazek,  
 Y. M. Rhee,  J. Ritchie,  M. A. Rohrdanz,  E. Rosta,  N. J. Russ,  
 H. F. Schaefer III,  N. E. Schultz,  N. Shenvi,  A. C. Simmonett,  A. Sodt,  
 D. Stuck,  K. S. Thanthiriwatte,  V. Vanovschi,  Tao Wang,  A. Warshel,  
 C. F. Williams,  Q. Wu,  X. Xu,  W. Zhang

 Please cite Q-Chem as follows:
 Y. Shao et al., Mol. Phys. 113, 184-215 (2015)
 DOI: 10.1080/00268976.2014.952696

 Q-Chem 5.2.0 for Intel X86 EM64T Linux

 Parts of Q-Chem use Armadillo 8.300.2 (Tropical Shenanigans).
 http://arma.sourceforge.net/

 Q-Chem begins on Sun Sep 26 04:31:37 2021  

Host: cori01
0

     Scratch files written to /tmp/qchem11769//Frg2//
 May1019 |scratch|qcdevops|jenkins|workspace|build_RNUM -1
Processing $rem in /global/common/cori/software/qchem/5.2/config/preferences:
	 MEM_TOTAL  96000 
NAlpha2: 40
NElect   40
Mult     1
Symmetry turned off for PCM/SM12/SMD calculation

Checking the input file for inconsistencies... 	...done.

--------------------------------------------------------------
User input:
--------------------------------------------------------------
$molecule
0 1
 6	-1.5378264992	-1.7259690657	-0.2558172905
 6	-1.7048264992	-2.7169690657	0.8901827095
 6	-0.2048264992	-1.9289690657	-0.9018172905
 8	0.3421735008	-0.9839690657	-1.4528172905
 7	0.2661735008	-3.1659690657	-0.8098172905
 1	-2.2978264992	-1.7959690657	-1.0328172905
 1	-1.4988264992	-0.7729690657	0.1781827095
 1	-1.7548264992	-2.0699690657	1.7681827095
 1	-0.8928264992	-3.3919690657	1.1511827095
 1	1.1711735008	-3.3599690657	-1.2178172905
 1	-0.2548264992	-3.9019690657	-0.3658172905
 1	-2.6520864992	-3.2747360657	0.8502927095
$end
$rem
EDA2		1
METHOD		WB97X-V
BASIS		DEF2-TZVPD
XC_GRID		000099000590
NL_GRID		1
UNRESTRICTED		FALSE
MAX_SCF_CYCLES		200
SYMMETRY		FALSE
SYM_IGNORE		TRUE
BASIS_LIN_DEP_THRESH		6
THRESH		14
SCF_CONVERGENCE		8
SCF_PRINT_FRGM		TRUE
SOLVENT_METHOD		PCM
!required keywords
JOBTYPE		SP
SYM_IGNORE		TRUE
SUBSYSTEM		TRUE
GEN_SCFMAN		TRUE
CHILD_INSTRUCTION		2
SYM_IGNORE		TRUE
SCFMI		0
RI_K 0		
PARI_K 0		
MIN_PARI_K 0		
IARI_K 0		
OCC_RI_K 0		
PURECART		1111
MEM_STATIC		2000
MEM_TOTAL		96000
GUI		0
CHILD_MP		1
CHILD_MP_ORDERS		232
FRZ_RELAX		0
FRZ_RELAX_METHOD		0
EDA_CLS_ELEC		1
EDA_CLS_DISP		0
FRZ_ORTHO_DECOMP		1
EDA2		FALSE
FRGM_METHOD		FALSE
CIS_N_ROOTS  0
LOCAL_CIS    0
CIS_RLX_DNS  1
$end
$pcm
THEORY                  CPCM
METHOD                  SWIG
SOLVER                  INVERSION
RADII                   UFF
HPOINTS                 302
HEAVYPOINTS             302
PRINTLEVEL              0
$end
$solvent
DIELECTRIC              78.390000 ! water
$end
--------------------------------------------------------------
 ----------------------------------------------------------------
             Standard Nuclear Orientation (Angstroms)
    I     Atom           X                Y                Z
 ----------------------------------------------------------------
    1      C      -1.5378264992    -1.7259690657    -0.2558172905
    2      C      -1.7048264992    -2.7169690657     0.8901827095
    3      C      -0.2048264992    -1.9289690657    -0.9018172905
    4      O       0.3421735008    -0.9839690657    -1.4528172905
    5      N       0.2661735008    -3.1659690657    -0.8098172905
    6      H      -2.2978264992    -1.7959690657    -1.0328172905
    7      H      -1.4988264992    -0.7729690657     0.1781827095
    8      H      -1.7548264992    -2.0699690657     1.7681827095
    9      H      -0.8928264992    -3.3919690657     1.1511827095
   10      H       1.1711735008    -3.3599690657    -1.2178172905
   11      H      -0.2548264992    -3.9019690657    -0.3658172905
   12      H      -2.6520864992    -3.2747360657     0.8502927095
 ----------------------------------------------------------------
 Nuclear Repulsion Energy =         182.49483610 hartrees
 There are       20 alpha and       20 beta electrons
 Requested basis set is def2-TZVPD
 There are 101 shells and 251 basis functions

 Total QAlloc Memory Limit  96000 MB
 Mega-Array Size      1956 MB
 MEM_STATIC part      2000 MB
 Discretize the solute cavity surface with Lebedev spheres
	Using 302 Lebedev grid points for each H atom
	Using 302 Lebedev grid points for other atoms
	Atomic van der Waals radii will be scaled by 1.20
 Remove points where switching function is < 1.0e-08
 Keep 1435 surface tesserae and discard 2189 interior tesserae
 Molecular Surface Area = 147.031 Angst**2

                       Distance Matrix (Angstroms)
             C (  1)   C (  2)   C (  3)   O (  4)   N (  5)   H (  6)
   C (  2)  1.524233
   C (  3)  1.495130  2.466213
   O (  4)  2.348994  3.561341  1.223043
   N (  5)  2.373801  2.641296  1.326829  2.276038
   H (  6)  1.089141  2.213102  2.101309  2.793805  2.915600
   H (  7)  1.047896  2.080509  2.043813  2.468595  3.133340  1.775233
   H (  8)  2.064461  1.091784  3.090515  3.993951  3.454235  2.866274
   H (  9)  2.274034  1.087699  2.613144  3.755596  2.289078  3.048130
   H ( 10)  3.306672  3.623326  2.010222  2.527418  1.011496  3.809761
   H ( 11)  2.528471  2.254831  2.045122  3.170600  1.005123  3.008982
   H ( 12)  2.205387  1.099999  3.296977  4.417864  3.359172  2.420404
             H (  7)   H (  8)   H (  9)   H ( 10)   H ( 11)
   H (  8)  2.067812
   H (  9)  2.858868  1.694526
   H ( 10)  3.971182  4.375131  3.142178
   H ( 11)  3.410882  3.187504  1.722914  1.747325
   H ( 12)  2.835591  1.760415  1.788651  4.347604  2.760290
 
 A cutoff of  1.0D-14 yielded   5063 shell pairs
 There are     31741 function pairs (     39897 Cartesian)
 Smallest overlap matrix eigenvalue = 5.38E-06

 Scale SEOQF with 1.000000e-01/1.000000e-01/1.000000e-01

 Standard Electronic Orientation quadrupole field applied
 Nucleus-field energy     =     0.0000000133 hartrees
 Guess from superposition of atomic densities
 Warning:  Energy on first SCF cycle will be non-variational
 SAD guess density has 39.592240 electrons

 -----------------------------------------------------------------------
  General SCF calculation program by
  Eric Jon Sundstrom, Paul Horn, Yuezhi Mao, Dmitri Zuev, Alec White,
  David Stuck, Shaama M.S., Shane Yost, Joonho Lee, David Small,
  Daniel Levine, Susi Lehtola, Hugh Burton, Evgeny Epifanovsky
 -----------------------------------------------------------------------
 Exchange:     0.1670 Hartree-Fock + 1.0000 wB97X-V + LR-HF
 Correlation:  1.0000 wB97X-V
 Using Euler-Maclaurin-Lebedev (99,590) quadrature formula
 Nonlocal Correlation:  VV10 with C = 0.0100 and b = 6.00 and scale = 1.00000
 Grid used for NLC:  SG-1 standard quadrature
Energy prior to optimization (guess energy) = -248.001603937769
Begin Timing: Total SCF Calculation
begin iterations for algorithm: DIIS         
the SCF tolerance is set to 1.00e-08
    1    -248.0016039378      9.79e-03     00000 
    2    -247.6700441157      1.18e-02     00000 
    3    -248.5192818677      1.96e-03     00000 
    4    -248.5395816272      6.35e-04     00000 
    5    -248.5422383766      9.15e-05     00000 
    6    -248.5423279739      3.88e-05     00000 
    7    -248.5423449737      8.62e-06     00000 
    8    -248.5423461536      1.61e-06     00000 
    9    -248.5423462463      4.70e-07     00000 
   10    -248.5423462511      1.40e-07     00000 
   11    -248.5423462514      5.32e-08     00000 
   12    -248.5423462515      1.30e-08     00000 
   13    -248.5423462515      3.86e-09     00000 Convergence criterion met
Timing for Total SCF: 733.00s (wall), 1452.88s (cpu)

************** Final PCM Free Energy Summary **************
 G_electrostatic  =      -0.01169905 hartree =      -7.34126651 kcal/mol
 G_cavitation     =       0.00000000 hartree =       0.00000000 kcal/mol
 G_dispersion     =       0.00000000 hartree =       0.00000000 kcal/mol
 G_repulsion      =       0.00000000 hartree =       0.00000000 kcal/mol
 --------------------------------------------------
 Non-electrostatic Free Energy =       0.00000000 hartree =       0.00000000 kcal/mol
 Total                         =      -0.01169905 hartree =      -7.34126651 kcal/mol
 --------------------------------------------------
 SCF Energy (H0 + V/2)                       =    -248.54234625 
 Solute Internal Energy (H0)                 =    -248.53064720 
 Total Free Energy (H0 + V/2 + non-elec)     =    -248.54234625 hartree
                                             = -155962.67621736 kcal/mol
***********************************************************

E_pcm = -0.0116990529
Multipole orders to be included
        2
        3
computing dipole RHS
computing quadrupole RHS
total number of RHS in solve_reponses: 8
RHS batch sizes
        8
Beginning Block Conjugate Gradient Iterations. Batch Number: 0
computing hessian-vector products by finite difference
              1      5.88e-01     00000 Conjugate Gradient Iteration
computing hessian-vector products by finite difference
              2      2.01e-01     00000 Conjugate Gradient Iteration
computing hessian-vector products by finite difference
              3      5.13e-02     00000 Conjugate Gradient Iteration
computing hessian-vector products by finite difference
              4      1.34e-02     00000 Conjugate Gradient Iteration
computing hessian-vector products by finite difference
              5      2.20e-03     00000 Conjugate Gradient Iteration
computing hessian-vector products by finite difference
              6      4.48e-04     00000 Conjugate Gradient Iteration
computing hessian-vector products by finite difference
              7      6.19e-05     00000 Conjugate Gradient Iteration
computing hessian-vector products by finite difference
              8      8.14e-06     00000 Conjugate Gradient Iteration
computing hessian-vector products by finite difference
              9      1.26e-06     00000 Conjugate Gradient Iteration
computing hessian-vector products by finite difference
             10      1.75e-07     00000 Conjugate Gradient Iteration
computing hessian-vector products by finite difference
             11      2.32e-08     00000 Conjugate Gradient Iteration
computing hessian-vector products by finite difference
             12      5.13e-09     00000 CG Converged
batch 0 complete
Done Calculating Responses
TESTING ORTHOGONALIZATION OF MULTIPOLE BASIS
Multipole virts passed orthogonality test
Virts Per Order
           60
          100
 
 --------------------------------------------------------------
 
                    Orbital Energies (a.u.)
 --------------------------------------------------------------
 
 Alpha MOs
 -- Occupied --
-19.1778 -14.4315 -10.3702 -10.2683 -10.2622  -1.1724  -1.0523  -0.9177
 -0.7864  -0.7089  -0.6741  -0.5988  -0.5753  -0.5284  -0.5170  -0.4880
 -0.4871  -0.4478  -0.3833  -0.3610
 -- Virtual --
  0.0605   0.0794   0.0885   0.0956   0.1132   0.1255   0.1292   0.1377
  0.1419   0.1554   0.1722   0.1965   0.1990   0.2086   0.2179   0.2344
  0.2369   0.2423   0.2503   0.2703   0.2771   0.2819   0.2990   0.3096
  0.3138   0.3267   0.3275   0.3353   0.3432   0.3582   0.3659   0.3760
  0.3805   0.3863   0.3961   0.4060   0.4138   0.4170   0.4266   0.4342
  0.4370   0.4456   0.4641   0.4705   0.4855   0.4859   0.4980   0.5070
  0.5112   0.5138   0.5209   0.5331   0.5385   0.5407   0.5510   0.5625
  0.5779   0.5786   0.6036   0.6263   0.6368   0.6432   0.6556   0.6697
  0.6870   0.7056   0.7116   0.7167   0.7310   0.7490   0.7571   0.7669
  0.7740   0.7864   0.7960   0.8109   0.8146   0.8307   0.8495   0.8517
  0.8645   0.8728   0.8899   0.9056   0.9161   0.9570   0.9798   1.0072
  1.0353   1.0395   1.0782   1.0986   1.1163   1.1394   1.1759   1.2132
  1.2297   1.2700   1.2982   1.3131   1.3456   1.3685   1.3848   1.4277
  1.4495   1.4590   1.5094   1.5520   1.5980   1.6499   1.6827   1.7537
  1.7870   1.8425   1.8571   1.8712   1.8868   1.9179   1.9467   1.9526
  1.9725   1.9759   1.9874   2.0173   2.0537   2.0661   2.0951   2.1302
  2.1751   2.1927   2.2503   2.2750   2.2952   2.3136   2.3367   2.3704
  2.4222   2.4378   2.4718   2.4913   2.5046   2.5404   2.6118   2.6478
  2.6671   2.6979   2.7316   2.7599   2.7854   2.8236   2.8423   2.8808
  2.8931   2.9214   2.9485   2.9909   3.0305   3.0751   3.1329   3.1713
  3.1792   3.1873   3.2253   3.2390   3.2436   3.2973   3.3133   3.3489
  3.3845   3.4033   3.4362   3.4548   3.4838   3.5015   3.5332   3.5488
  3.5631   3.6193   3.6587   3.7010   3.7313   3.7544   3.8126   3.8986
  3.9294   3.9359   4.0015   4.0795   4.0821   4.1507   4.1874   4.2308
  4.3789   4.4054   4.4510   4.4944   4.5569   4.6387   4.6671   4.7281
  4.8371   4.9012   4.9154   4.9370   4.9908   5.1023   5.1637   5.2007
  5.2777   5.3687   5.4041   5.4325   5.4361   5.5388   5.5641   5.8183
  5.9447   6.1626   6.2915   6.5724   6.6556   6.7615   6.8809   7.0007
  7.2469   7.3406  22.6356  22.8267  23.6717  32.4550  44.3815
 --------------------------------------------------------------
 
          Ground-State Mulliken Net Atomic Charges

     Atom                 Charge (a.u.)
  ----------------------------------------
      1 C                     0.127371
      2 C                    -0.966757
      3 C                     0.135402
      4 O                    -0.586431
      5 N                    -0.196838
      6 H                     0.204983
      7 H                     0.125605
      8 H                     0.225729
      9 H                     0.344367
     10 H                     0.216220
     11 H                     0.191736
     12 H                     0.178613
  ----------------------------------------
  Sum of atomic charges =     0.000000

 -----------------------------------------------------------------
                    Cartesian Multipole Moments
 -----------------------------------------------------------------
    Charge (ESU x 10^10)
                -0.0000
    Dipole Moment (Debye)
         X      -1.5856      Y      -4.4355      Z       2.2219
       Tot       5.2082
    Quadrupole Moments (Debye-Ang)
        XX     -28.4570     XY       0.8253     YY     -12.4802
        XZ       0.8086     YZ       1.0302     ZZ     -35.4855
    Octopole Moments (Debye-Ang^2)
       XXX      58.3595    XXY      58.4094    XYY      23.0682
       YYY     130.4872    XXZ       9.4531    XYZ       1.9651
       YYZ       4.1758    XZZ      18.7420    YZZ      69.4322
       ZZZ      46.5281
    Hexadecapole Moments (Debye-Ang^3)
      XXXX    -275.8933   XXXY    -135.0008   XXYY    -192.9530
      XYYY    -155.8890   YYYY    -762.1971   XXXZ      43.5496
      XXYZ      -4.9901   XYYZ      -0.6413   YYYZ     -20.0709
      XXZZ     -81.3610   XYZZ     -50.7088   YYZZ    -207.6942
      XZZZ      44.6156   YZZZ     -55.6091   ZZZZ    -230.1783
 -----------------------------------------------------------------
Archival summary:
1\1\nid00534\SP\ProcedureUnspecified\BasisUnspecified\1137\meili\SunSep2608:13:372021SunSep2608:13:372021\0\\#,ProcedureUnspecified,BasisUnspecified,\\0,1\C\O,1,1.22304\N,1,1.32683,2,126.358\H,3,1.00512,1,121.958,2,-177.953,0\H,3,1.0115,1,117.934,2,0.999798,0\C,1,1.49513,2,119.242,3,-179.828,0\H,6,1.0479,1,105.619,2,-37.7699,0\H,6,1.08914,1,107.768,2,82.4817,0\C,6,1.52423,1,109.528,2,-152.101,0\H,9,1.0877,6,120.139,1,2.9518,0\H,9,1.09178,6,102.965,1,115.387,0\H,9,1.1,6,113.376,1,-129.529,0\\\@

 Total job time:  13321.26s(wall), 26137.38s(cpu) 
 Sun Sep 26 08:13:38 2021

        *************************************************************
        *                                                           *
        *  Thank you very much for using Q-Chem.  Have a nice day.  *
        *                                                           *
        *************************************************************


Done Job For Fragment 1
calling putenv with: QCSCRATCH=/global/cscratch1/sd/meili 
calling putenv with: QCLOCALSCR=/tmp 
calling putenv with: QCTHREADS=32 
Doing General SCFMI
 Exchange:     0.1670 Hartree-Fock + 1.0000 wB97X-V + LR-HF
 Correlation:  1.0000 wB97X-V
 Using Euler-Maclaurin-Lebedev (99,590) quadrature formula
 Nonlocal Correlation:  VV10 with C = 0.0100 and b = 6.00 and scale = 1.00000
 Grid used for NLC:  SG-1 standard quadrature
performing fock build before subrot guess so that all methods have access
Printing subrot_rss_gen Method Specification:
Occupied Subspace Method is 0
Virtual Subspace Method is 0
Energy of the unrelaxed supersystem initial determinant -516.369334905358
performing fock build before subrot guess so that all methods have access
Printing subrot_rss_gen Method Specification:
Occupied Subspace Method is 0
Virtual Subspace Method is 0
Energy of the unrelaxed supersystem initial determinant w/ solvent -516.492986742350
write pseudocanon occs and virts to disk
write pseudocanon orbital energies to disk
Tolerance of ortho_decomp_scf: 1.00e-06
GDM subspace size: 20
Beginning the Orthogonal Decomposition of the Initial Supersystem Wavefunction
    1    -516.3487482688      4.71e-02     ortho_decomp Preconditoned Steepest Descent
    2    -516.3543787977      1.41e-03     ortho_decomp BFGS Step
    3    -516.3544043348      1.07e-04     ortho_decomp BFGS Step
    4    -516.3544043710      4.45e-06     ortho_decomp BFGS Step
    5    -516.3544043712      1.49e-07     ortho_decomp 00000 Convergence criterion met
 Hartree-Fock
 Hartree-Fock
 Hartree-Fock
Doing General SCFMI
 Exchange:     0.1670 Hartree-Fock + 1.0000 wB97X-V + LR-HF
 Correlation:  1.0000 wB97X-V
 Using Euler-Maclaurin-Lebedev (99,590) quadrature formula
 Nonlocal Correlation:  VV10 with C = 0.0100 and b = 6.00 and scale = 1.00000
 Grid used for NLC:  SG-1 standard quadrature
performing fock build at end of subrot_r(subrot) constructor so that all methods have access
<S^2> of initial wavefunction before polarization iterations 0.0000000000
Beginning iterations for the determination of the polarized wavefunction
Energy prior to optimization (guess energy) = -516.492986742350
Begin Timing: Total SCF Calculation
begin iterations for algorithm: DIIS         
the SCF tolerance is set to 1.00e-08
    1    -516.4929867424      1.04e-04     00000 
    2    -516.4936276185      5.97e-05     00000 
    3    -516.4937269939      3.32e-05     00000 
    4    -516.4937661222      1.11e-05     00000 
    5    -516.4937743620      4.49e-06     00000 
    6    -516.4937770200      2.22e-06     00000 
    7    -516.4937775201      1.35e-06     00000 
    8    -516.4937776358      5.79e-07     00000 
    9    -516.4937776602      2.84e-07     00000 
   10    -516.4937776631      1.80e-07     00000 
   11    -516.4937776641      7.00e-08     00000 
   12    -516.4937776642      3.30e-08     00000 
   13    -516.4937776643      1.64e-08     00000 
   14    -516.4937776643      5.93e-09     00000 Convergence criterion met
write pseudocanon occs and virts to disk
write pseudocanon orbital energies to disk
Timing for Total SCF: 4728.00s (wall), 9395.66s (cpu)
<S^2> of polarized wavefunction after polarization iterations 0.0000000000
relaxing scfmi constraint to allow all rotations in the entire AO span
Doing General SCFMI
 Exchange:     0.1670 Hartree-Fock + 1.0000 wB97X-V + LR-HF
 Correlation:  1.0000 wB97X-V
 Using Euler-Maclaurin-Lebedev (99,590) quadrature formula
 Nonlocal Correlation:  VV10 with C = 0.0100 and b = 6.00 and scale = 1.00000
 Grid used for NLC:  SG-1 standard quadrature
performing fock build at end of subrot_r(subrot) constructor so that all methods have access
<S^2> of polarized wavefunction before ct-allowed iterations 0.0000000000
Beginning iterations for the determination of the CT-Allowed wavefunction
Energy prior to optimization (guess energy) = -516.493777664281
Begin Timing: Total SCF Calculation
begin iterations for algorithm: DIIS         
the SCF tolerance is set to 1.00e-08
    1    -516.4937776643      1.13e-04     00000 
    2    -516.4955171183      1.44e-05     00000 
    3    -516.4955741776      3.72e-06     00000 
    4    -516.4955753503      3.65e-06     00000 
    5    -516.4955764553      3.33e-07     00000 
    6    -516.4955764732      1.68e-07     00000 
    7    -516.4955764773      3.92e-08     00000 
    8    -516.4955764776      1.83e-08     00000 
    9    -516.4955764776      6.04e-09     00000 Convergence criterion met
write pseudocanon occs and virts to disk
write pseudocanon orbital energies to disk
Timing for Total SCF: 2951.00s (wall), 5864.90s (cpu)
<S^2> of ct_allowed wavefunction after ct-allowed iterations 0.0000000000

================================
        Results of EDA2         
================================
Basic EDA Quantities
--------------------
Fragment Energies (Ha):
1 -267.9539791623
2 -248.5423462515
--------------------
  E_prp (kJ/mol) = 0.0000
  E_sol (kJ/mol) = -31.0125
  E_frz (kJ/mol) = 39.7783
  E_pol (kJ/mol) = -2.0766
  E_vct (kJ/mol) = -4.7228
  E_int (kJ/mol) = 1.9664
--------------------


Initial Wavefunction Decomposition
--------------------
  --------------------
  Orthogonal Fragment Subspace Decomposition:
  --------------------
     E_elec   (ELEC)   (kJ/mol) = -4.1689
     E_pauli  (PAULI)  (kJ/mol) = 62.2820
     E_disp   (DISP)   (kJ/mol) = -18.3348
     --------------------
     Terms summing to E_pauli:
     --------------------
        E_kep_pauli       (kJ/mol) = 78.9788
        E_disp_free_pauli (kJ/mol) = -16.6968
  --------------------
  Classical Frozen Decomposition:
  --------------------
     E_cls_elec  (CLS ELEC)  (kJ/mol) = 20.9073
     E_cls_pauli (CLS PAULI) (kJ/mol) = 18.8710
    [E_mod_pauli (MOD PAULI) (kJ/mol) = 37.2058 (CLS PAULI - DISP from orthogonal decomposition) ]
  --------------------
--------------------

Simplified EDA Summary (kJ/mol)
--------------------
 PREPARATION     0.0000
 SOLVATION       -31.0125
 FROZEN          58.1131      (does not include dispersion)
[PAULI           62.2820]     (if this is negligible, then frozen describes electrostatics)
 DISPERSION      -18.3348
 POLARIZATION    -2.0766
 CHARGE TRANSFER -4.7228
 TOTAL           1.9664     (PRP + SOL + FRZ + DISP + POL + CT)
--------------------
 
 --------------------------------------------------------------
 
                    Orbital Energies (a.u.)
 --------------------------------------------------------------
 
 Alpha MOs
 -- Occupied --
-19.1751 -19.1179 -19.1168 -14.4292 -10.3674 -10.3164 -10.2645 -10.2604
-10.2363 -10.2294  -1.1701  -1.1273  -1.0501  -1.0278  -0.9154  -0.8771
 -0.7843  -0.7407  -0.7069  -0.6720  -0.6009  -0.5857  -0.5734  -0.5559
 -0.5315  -0.5252  -0.5147  -0.4989  -0.4862  -0.4844  -0.4760  -0.4565
 -0.4460  -0.4327  -0.4197  -0.3801  -0.3572  -0.3247  -0.3181  -0.3046
 -- Virtual --
  0.0581   0.0730   0.0760   0.0799   0.0967   0.0998   0.1078   0.1113
  0.1172   0.1249   0.1300   0.1356   0.1409   0.1482   0.1527   0.1653
  0.1662   0.1691   0.1763   0.1833   0.1935   0.1997   0.2057   0.2084
  0.2124   0.2167   0.2280   0.2328   0.2440   0.2448   0.2569   0.2609
  0.2630   0.2672   0.2732   0.2854   0.2891   0.2945   0.2971   0.3065
  0.3084   0.3123   0.3172   0.3229   0.3270   0.3300   0.3384   0.3434
  0.3462   0.3514   0.3536   0.3587   0.3662   0.3707   0.3746   0.3824
  0.3832   0.3838   0.3908   0.3981   0.4026   0.4067   0.4143   0.4153
  0.4200   0.4250   0.4270   0.4314   0.4356   0.4437   0.4467   0.4522
  0.4557   0.4674   0.4713   0.4738   0.4773   0.4902   0.4915   0.4944
  0.4971   0.5015   0.5138   0.5177   0.5197   0.5230   0.5243   0.5318
  0.5338   0.5436   0.5450   0.5552   0.5590   0.5637   0.5725   0.5746
  0.5757   0.5826   0.5917   0.5956   0.6090   0.6125   0.6151   0.6221
  0.6291   0.6314   0.6440   0.6459   0.6505   0.6534   0.6595   0.6688
  0.6799   0.6826   0.6896   0.6950   0.7028   0.7128   0.7199   0.7239
  0.7283   0.7347   0.7477   0.7497   0.7578   0.7659   0.7735   0.7804
  0.7836   0.7892   0.7927   0.8026   0.8056   0.8100   0.8116   0.8183
  0.8205   0.8256   0.8318   0.8394   0.8452   0.8504   0.8548   0.8690
  0.8703   0.8765   0.8810   0.8855   0.8935   0.9048   0.9125   0.9164
  0.9191   0.9229   0.9422   0.9531   0.9577   0.9750   0.9825   0.9930
  1.0019   1.0114   1.0276   1.0340   1.0529   1.0550   1.0642   1.0677
  1.0919   1.1048   1.1169   1.1292   1.1360   1.1536   1.1630   1.1806
  1.1831   1.1917   1.2140   1.2345   1.2486   1.2734   1.2822   1.2894
  1.2975   1.3158   1.3262   1.3417   1.3490   1.3607   1.3681   1.3796
  1.3935   1.4022   1.4235   1.4323   1.4507   1.4597   1.4714   1.4855
  1.4951   1.5103   1.5160   1.5484   1.5661   1.5843   1.6055   1.6382
  1.6609   1.6871   1.7213   1.7526   1.7854   1.8028   1.8280   1.8700
  1.9035   1.9084   1.9187   1.9277   1.9318   1.9443   1.9511   1.9559
  1.9723   1.9854   1.9886   1.9952   2.0006   2.0130   2.0227   2.0278
  2.0328   2.0481   2.0517   2.0704   2.0930   2.0933   2.1091   2.1282
  2.1334   2.1595   2.1851   2.2013   2.2118   2.2312   2.2400   2.2542
  2.2866   2.2987   2.3121   2.3216   2.3368   2.3595   2.3704   2.3858
  2.3899   2.4069   2.4099   2.4497   2.4598   2.4806   2.4938   2.5098
  2.5168   2.5274   2.5296   2.5403   2.5719   2.5890   2.6152   2.6360
  2.6441   2.6636   2.6735   2.6927   2.7023   2.7290   2.7333   2.7611
  2.7782   2.8036   2.8156   2.8389   2.8551   2.8691   2.8765   2.8873
  2.9058   2.9211   2.9268   2.9495   2.9686   2.9903   3.0109   3.0261
  3.0368   3.0478   3.0893   3.1095   3.1351   3.1448   3.1619   3.1783
  3.2053   3.2210   3.2251   3.2378   3.2556   3.2655   3.2767   3.2832
  3.3001   3.3241   3.3329   3.3393   3.3619   3.3731   3.3905   3.4040
  3.4196   3.4379   3.4515   3.4610   3.4652   3.4892   3.4933   3.5131
  3.5282   3.5482   3.5636   3.5698   3.5702   3.5853   3.6016   3.6196
  3.6345   3.6459   3.6588   3.6720   3.6848   3.7023   3.7183   3.7236
  3.7416   3.7525   3.7662   3.7826   3.7918   3.8278   3.8642   3.8718
  3.8935   3.9262   3.9414   3.9733   4.0026   4.0310   4.0638   4.1001
  4.1130   4.1644   4.1790   4.1904   4.2054   4.2197   4.2698   4.3157
  4.3933   4.4004   4.4277   4.4552   4.4686   4.5155   4.5717   4.5765
  4.6605   4.6806   4.6829   4.7179   4.7544   4.7921   4.8530   4.8579
  4.8783   4.9147   4.9323   4.9515   4.9801   5.0292   5.0898   5.1460
  5.1813   5.1950   5.2383   5.2994   5.3474   5.3753   5.3845   5.3888
  5.3946   5.4308   5.4452   5.4540   5.5256   5.5605   5.5962   5.7550
  5.7751   5.8300   5.8331   5.9539   6.0444   6.1752   6.2684   6.3121
  6.3649   6.3829   6.5932   6.6485   6.6790   6.7235   6.7450   6.7799
  6.8052   6.8181   6.8984   7.0066   7.0115   7.0572   7.0892   7.2800
  7.2832   7.3816   7.4005   7.4276   7.4384  22.6594  22.6671  22.8940
 22.9471  23.6940  23.8312  32.5164  44.3248  44.4312  44.4557
 --------------------------------------------------------------
 
          Ground-State Mulliken Net Atomic Charges

     Atom                 Charge (a.u.)
  ----------------------------------------
      1 C                     0.892695
      2 C                    -0.797089
      3 C                    -0.028559
      4 O                    -0.685946
      5 O                    -0.701238
      6 H                     0.284861
      7 H                    -0.616875
      8 H                     0.199597
      9 H                     0.191273
     10 H                     0.220222
     11 C                     0.805801
     12 C                    -1.207960
     13 C                     0.126552
     14 O                    -0.582156
     15 N                    -0.205670
     16 H                     0.264611
     17 H                    -0.399511
     18 H                     0.280328
     19 H                     0.368717
     20 H                     0.233749
     21 H                     0.177587
     22 H                     0.179014
  ----------------------------------------
  Sum of atomic charges =    -1.000000

 -----------------------------------------------------------------
                    Cartesian Multipole Moments
 -----------------------------------------------------------------
    Charge (ESU x 10^10)
                -4.8032
    Dipole Moment (Debye)
         X     -10.7978      Y     -15.9304      Z      -1.0979
       Tot      19.2763
    Quadrupole Moments (Debye-Ang)
        XX     -81.9850     XY     -17.9550     YY     -81.8857
        XZ      -6.7885     YZ      -3.8396     ZZ     -70.6816
    Octopole Moments (Debye-Ang^2)
       XXX     -22.8951    XXY     -49.7267    XYY     -41.4873
       YYY    -199.5852    XXZ     -21.7275    XYZ     -10.0664
       YYZ     -22.6550    XZZ      -2.5400    YZZ      -1.8268
       ZZZ      -2.1720
    Hexadecapole Moments (Debye-Ang^3)
      XXXX    -780.7565   XXXY    -279.4912   XXYY    -532.0161
      XYYY    -395.3275   YYYY   -2235.8508   XXXZ     -44.9138
      XXYZ     -53.3727   XYYZ     -44.8142   YYYZ    -137.2011
      XXZZ    -184.9559   XYZZ     -86.1364   YYZZ    -405.1269
      XZZZ     -18.7105   YZZZ    -137.3365   ZZZZ    -353.3538
 -----------------------------------------------------------------
Archival summary:
1\1\nid00534\SP\ProcedureUnspecified\BasisUnspecified\31612(1-,1)\meili\SunSep2611:48:582021SunSep2611:48:582021\0\\#,ProcedureUnspecified,BasisUnspecified,\\-1,1\O\C,1,1.22304\N,2,1.32683,1,126.358\H,3,1.00512,2,121.958,1,-177.953,0\H,3,1.0115,2,117.934,1,0.999798,0\C,2,1.49513,1,119.242,3,-179.828,0\H,6,1.0479,2,105.619,1,-37.7699,0\H,6,1.08914,2,107.768,1,82.4817,0\C,6,1.52423,2,109.528,1,-152.101,0\H,9,1.0877,6,120.139,2,2.9518,0\H,9,1.09178,6,102.965,2,115.387,0\H,9,1.1,6,113.376,2,-129.529,0\H,7,1.92767,6,132.281,2,10.0421,0\C,13,1.05982,7,120.512,6,-174.305,0\H,14,1.09335,13,110.407,7,38.7864,0\C,14,1.51171,13,101.693,7,157.421,0\O,16,1.25168,14,118.618,13,128.939,0\O,16,1.25261,14,117.705,13,-50.9165,0\C,14,1.5259,13,107.744,7,-82.4549,0\H,19,1.09046,14,110.799,13,160.395,0\H,19,1.09114,14,109.198,13,-79.6029,0\H,19,1.1,14,110.115,13,37.2193,0\\\@

 Total job time:  37160.03s(wall), 25706.11s(cpu) 
 Sun Sep 26 11:49:02 2021

        *************************************************************
        *                                                           *
        *  Thank you very much for using Q-Chem.  Have a nice day.  *
        *                                                           *
        *************************************************************


