
Running Job 1 of 1 SSI-079ARG-182ASP-1_SMD_TZVPD.in
qchem SSI-079ARG-182ASP-1_SMD_TZVPD.in_35370.0 /tmp/qchem35370/ 0
/global/common/cori/software/qchem/5.2/exe/qcprog.exe_s SSI-079ARG-182ASP-1_SMD_TZVPD.in_35370.0 /tmp/qchem35370/
                  Welcome to Q-Chem
     A Quantum Leap Into The Future Of Chemistry


 Q-Chem 5.2, Q-Chem, Inc., Pleasanton, CA (2019)

 License issued to: National Energy Research Scientific Computing Center

 Yihan Shao,  Zhengting Gan,  E. Epifanovsky,  A. T. B. Gilbert,  M. Wormit,  
 J. Kussmann,  A. W. Lange,  A. Behn,  Jia Deng,  Xintian Feng,  D. Ghosh,  
 M. Goldey,  P. R. Horn,  L. D. Jacobson,  I. Kaliman,  T. Kus,  A. Landau,  
 Jie Liu,  E. I. Proynov,  R. M. Richard,  R. P. Steele,  E. J. Sundstrom,  
 H. L. Woodcock III,  P. M. Zimmerman,  D. Zuev,  B. Albrecht,  E. Alguire,  
 S. A. Baeppler,  D. Barton,  Z. Benda,  Y. A. Bernard,  E. J. Berquist,  
 K. B. Bravaya,  H. Burton,  D. Casanova,  Chun-Min Chang,  Yunqing Chen,  
 A. Chien,  K. D. Closser,  M. P. Coons,  S. Coriani,  S. Dasgupta,  
 A. L. Dempwolff,  M. Diedenhofen,  Hainam Do,  R. G. Edgar,  Po-Tung Fang,  
 S. Faraji,  S. Fatehi,  Qingguo Feng,  K. D. Fenk,  J. Fosso-Tande,  
 J. Gayvert,  Qinghui Ge,  A. Ghysels,  G. Gidofalvi,  J. Gomes,  
 J. Gonthier,  A. Gunina,  D. Hait,  M. W. D. Hanson-Heine,  
 P. H. P. Harbach,  A. W. Hauser,  M. F. Herbst,  J. E. Herr,  
 E. G. Hohenstein,  Z. C. Holden,  Kerwin Hui,  B. C. Huynh,  T.-C. Jagau,  
 Hyunjun Ji,  B. Kaduk,  K. Khistyaev,  Jaehoon Kim,  P. Klunzinger,  K. Koh,  
 D. Kosenkov,  L. Koulias,  T. Kowalczyk,  C. M. Krauter,  A. Kunitsa,  
 Ka Un Lao,  A. Laurent,  K. V. Lawler,  Joonho Lee,  D. Lefrancois,  
 S. Lehtola,  D. S. Levine,  Yi-Pei Li,  You-Sheng Lin,  Fenglai Liu,  
 E. Livshits,  A. Luenser,  P. Manohar,  E. Mansoor,  S. F. Manzer,  
 Shan-Ping Mao,  Yuezhi Mao,  N. Mardirossian,  A. V. Marenich,  
 T. Markovich,  L. A. Martinez-Martinez,  S. A. Maurer,  N. J. Mayhall,  
 S. C. McKenzie,  J.-M. Mewes,  P. Morgante,  A. F. Morrison,  
 J. W. Mullinax,  K. Nanda,  T. S. Nguyen-Beck,  R. Olivares-Amaya,  
 J. A. Parkhill,  Zheng Pei,  T. M. Perrine,  F. Plasser,  P. Pokhilko,  
 S. Prager,  A. Prociuk,  E. Ramos,  D. R. Rehn,  F. Rob,  M. Scheurer,  
 M. Schneider,  N. Sergueev,  S. M. Sharada,  S. Sharma,  D. W. Small,  
 T. Stauch,  T. Stein,  Yu-Chuan Su,  A. J. W. Thom,  A. Tkatchenko,  
 T. Tsuchimochi,  N. M. Tubman,  L. Vogt,  M. L. Vidal,  O. Vydrov,  
 M. A. Watson,  J. Wenzel,  M. de Wergifosse,  T. A. Wesolowski,  A. White,  
 J. Witte,  A. Yamada,  Jun Yang,  K. Yao,  S. Yeganeh,  S. R. Yost,  
 Zhi-Qiang You,  A. Zech,  Igor Ying Zhang,  Xing Zhang,  Yan Zhao,  
 Ying Zhu,  B. R. Brooks,  G. K. L. Chan,  C. J. Cramer,  M. S. Gordon,  
 W. J. Hehre,  A. Klamt,  M. W. Schmidt,  C. D. Sherrill,  D. G. Truhlar,  
 A. Aspuru-Guzik,  R. Baer,  A. T. Bell,  N. A. Besley,  Jeng-Da Chai,  
 A. E. DePrince, III,  R. A. DiStasio Jr.,  A. Dreuw,  B. D. Dunietz,  
 T. R. Furlani,  Chao-Ping Hsu,  Yousung Jung,  Jing Kong,  D. S. Lambrecht,  
 WanZhen Liang,  C. Ochsenfeld,  V. A. Rassolov,  L. V. Slipchenko,  
 J. E. Subotnik,  T. Van Voorhis,  J. M. Herbert,  A. I. Krylov,  
 P. M. W. Gill,  M. Head-Gordon

 Contributors to earlier versions of Q-Chem not listed above: 
 R. D. Adamson,  B. Austin,  J. Baker,  G. J. O. Beran,  K. Brandhorst,  
 S. T. Brown,  E. F. C. Byrd,  A. K. Chakraborty,  C.-L. Cheng,  
 Siu Hung Chien,  D. M. Chipman,  D. L. Crittenden,  H. Dachsel,  
 R. J. Doerksen,  A. D. Dutoi,  L. Fusti-Molnar,  W. A. Goddard III,  
 A. Golubeva-Zadorozhnaya,  S. R. Gwaltney,  G. Hawkins,  A. Heyden,  
 S. Hirata,  G. Kedziora,  F. J. Keil,  C. Kelley,  Jihan Kim,  R. A. King,  
 R. Z. Khaliullin,  P. P. Korambath,  W. Kurlancheek,  A. M. Lee,  M. S. Lee,  
 S. V. Levchenko,  Ching Yeh Lin,  D. Liotard,  R. C. Lochan,  I. Lotan,  
 P. E. Maslen,  N. Nair,  D. P. O'Neill,  D. Neuhauser,  E. Neuscamman,  
 C. M. Oana,  R. Olson,  B. Peters,  R. Peverati,  P. A. Pieniazek,  
 Y. M. Rhee,  J. Ritchie,  M. A. Rohrdanz,  E. Rosta,  N. J. Russ,  
 H. F. Schaefer III,  N. E. Schultz,  N. Shenvi,  A. C. Simmonett,  A. Sodt,  
 D. Stuck,  K. S. Thanthiriwatte,  V. Vanovschi,  Tao Wang,  A. Warshel,  
 C. F. Williams,  Q. Wu,  X. Xu,  W. Zhang

 Please cite Q-Chem as follows:
 Y. Shao et al., Mol. Phys. 113, 184-215 (2015)
 DOI: 10.1080/00268976.2014.952696

 Q-Chem 5.2.0 for Intel X86 EM64T Linux

 Parts of Q-Chem use Armadillo 8.300.2 (Tropical Shenanigans).
 http://arma.sourceforge.net/

 Q-Chem begins on Sun Sep 26 11:25:44 2021  

Host: cori01
0

     Scratch files written to /tmp/qchem35370//
 May1019 |scratch|qcdevops|jenkins|workspace|build_RNUM -1
Processing $rem in /global/common/cori/software/qchem/5.2/config/preferences:
	 MEM_TOTAL  96000 
NAlpha2: 72
NElect   72
Mult     1
Symmetry turned off for PCM/SM12/SMD calculation

 Q-Chem warning in module libgen/rem_setup.C, line 2803:

 Neither GIA nor STOLL is specified by user. Use STOLL as the default


Checking the input file for inconsistencies... 	...done.

--------------------------------------------------------------
User input:
--------------------------------------------------------------
$comment
SSI-079ARG-182ASP-1.pdb
$end

$molecule
0 1
--
1 1
C   -2.739960847019    0.381447046424   -1.512119828971
C   -0.463960847019   -0.551552953576   -1.712119828971
N   -1.455960847019   -0.082552953576   -0.973119828971
N    0.655039152981   -0.944552953576   -1.141119828971
N   -0.589960847019   -0.632552953576   -3.023119828971
H   -1.270960847019    0.020447046424    0.020880171029
H   -3.145960847019   -0.368552953576   -2.197119828971
H   -2.591960847019    1.313447046424   -2.062119828971
H    0.853039152981   -0.628552953576   -0.185119828971
H    1.438039152981   -1.206552953576   -1.714119828971
H   -1.421960847019   -0.291552953576   -3.474119828971
H    0.165039152981   -0.982552953576   -3.592119828971
H   -3.484990847019    0.554327046424   -0.721520828971
--
-1 1
C    1.731039152981    0.906447046424    3.343880171029
C    1.112039152981    0.425447046424    2.044880171029
O   -0.111960847019    0.170447046424    2.021880171029
O    1.843039152981    0.314447046424    1.036880171029
H    1.026039152981    0.730447046424    4.159880171029
H    1.896039152981    1.982447046424    3.262880171029
H    2.686079152981    0.407697046424    3.565548171029
$end

$rem
JOBTYPE			EDA
EDA2			1
method			wB97X-V
BASIS			def2-TZVPD
XC_GRID			000099000590
NL_GRID			1
UNRESTRICTED		FALSE
MAX_SCF_CYCLES		200
SYMMETRY		FALSE
SYM_IGNORE		TRUE
MEM_STATIC		2000
BASIS_LIN_DEP_THRESH 	6
THRESH 			14
SCF_CONVERGENCE 	8
SCF_PRINT_FRGM 		TRUE
SOLVENT_METHOD          SMD
$end

$SMX
SOLVENT			WATER
$END
--------------------------------------------------------------
 ----------------------------------------------------------------
             Standard Nuclear Orientation (Angstroms)
    I     Atom           X                Y                Z
 ----------------------------------------------------------------
    1      C      -2.7399608470     0.3814470464    -1.5121198290
    2      C      -0.4639608470    -0.5515529536    -1.7121198290
    3      N      -1.4559608470    -0.0825529536    -0.9731198290
    4      N       0.6550391530    -0.9445529536    -1.1411198290
    5      N      -0.5899608470    -0.6325529536    -3.0231198290
    6      H      -1.2709608470     0.0204470464     0.0208801710
    7      H      -3.1459608470    -0.3685529536    -2.1971198290
    8      H      -2.5919608470     1.3134470464    -2.0621198290
    9      H       0.8530391530    -0.6285529536    -0.1851198290
   10      H       1.4380391530    -1.2065529536    -1.7141198290
   11      H      -1.4219608470    -0.2915529536    -3.4741198290
   12      H       0.1650391530    -0.9825529536    -3.5921198290
   13      H      -3.4849908470     0.5543270464    -0.7215208290
   14      C       1.7310391530     0.9064470464     3.3438801710
   15      C       1.1120391530     0.4254470464     2.0448801710
   16      O      -0.1119608470     0.1704470464     2.0218801710
   17      O       1.8430391530     0.3144470464     1.0368801710
   18      H       1.0260391530     0.7304470464     4.1598801710
   19      H       1.8960391530     1.9824470464     3.2628801710
   20      H       2.6860791530     0.4076970464     3.5655481710
 ----------------------------------------------------------------
 Nuclear Repulsion Energy =         459.12041131 hartrees
 There are       36 alpha and       36 beta electrons
 Requested basis set is def2-TZVPD
 There are 174 shells and 438 basis functions

 Total QAlloc Memory Limit  96000 MB
 Mega-Array Size      1956 MB
 MEM_STATIC part      2000 MB
 
 Citation of the SMD model:
 Marenich, A.V.; Cramer, C.J.; Truhlar, D.G.
 J. Phys. Chem. B 2009, 113, 6378-6396.
 iSolventCode=           1
 Solvent: water                                                           
 
 vradii
            1           2           3           4           5           6
    1   1.8500000   1.8500000   1.8900000   1.8900000   1.8900000   1.2000000
            7           8           9          10          11          12
    1   1.2000000   1.2000000   1.2000000   1.2000000   1.2000000   1.2000000
           13          14          15          16          17          18
    1   1.2000000   1.8500000   1.8500000   1.5200000   1.5200000   1.2000000
           19          20
    1   1.2000000   1.2000000
 Changing PCM_VDW_RADII to SMD_RADIUS
 Discretize the solute cavity surface with Lebedev spheres
	Using 110 Lebedev grid points for each H atom
	Using 194 Lebedev grid points for other atoms
	Atomic van der Waals radii will be scaled by 1.20
 Remove points where switching function is < 1.0e-08
 Keep 1518 surface tesserae and discard 1438 interior tesserae
 Molecular Surface Area = 181.047 Angst**2
 A cutoff of  1.0D-14 yielded  13460 shell pairs
 There are     86174 function pairs (    108343 Cartesian)
 Smallest overlap matrix eigenvalue = 7.74E-06

 Scale SEOQF with 1.000000e-01/1.000000e-01/1.000000e-01

 Standard Electronic Orientation quadrupole field applied
 Nucleus-field energy     =    -0.0000000266 hartrees

 -----------------------------------------------------------------------
  General SCF calculation program by
  Eric Jon Sundstrom, Paul Horn, Yuezhi Mao, Dmitri Zuev, Alec White,
  David Stuck, Shaama M.S., Shane Yost, Joonho Lee, David Small,
  Daniel Levine, Susi Lehtola, Hugh Burton, Evgeny Epifanovsky
 -----------------------------------------------------------------------
================================================================
                 ALMO-EDA with the EDA2 driver                  
================================================================
 The second-generation ALMO-EDA (for DFT):                      
 P. R. Horn, Y. Mao and M. Head-Gordon, PCCP, 18, 23067 (2016)  
 Decomposition of the frozen energy:                            
 P. R. Horn, Y. Mao and M. Head-Gordon, JCP, 144, 114107 (2016) 
 FERF model for polarization:                                   
 P. R. Horn and M. Head-Gordon, JCP, 143, 114111 (2015)         
Using eda2 option set 1
Option set summary: Frozen orbital wavefunction, initial wavefunction decomposition, and nDQ polarization.
--------------------------------
Printing EDA Options
--------------------------------
eda_child_super_basis      0
fragmo_guess_mode          0
child_mp                   1
child_mp_orders            232
cls_elec                   1
cls_disp                   0
scfmi_mode                 1
scfmi_occs                 0
scfmi_virts                0
frz_relax                  0
frz_relax_method           0
dc_pen_start               0
dc_pen_conv                0
dc_pen_increment           0
dc_pen_steps               0
dc_pen_thresh_factor       0
dc_pen_pre_newton_thresh   0
frz_ortho_decomp           1
frz_ortho_decomp_conv      6
frgm_method                2
scfmi_freeze_ss            0
separate_rehyb             0
plot_diff_den              0
eda_nocv                   0
eda_vct_relax              1
disp_free_x                0
disp_free_c                0
eda_bsse                   0
eda_pct_a                  0
eda_covp                   0
--------------------------------
Attempting to make child job directory: /tmp/qchem35370//Frg1/
Attempting to make child job directory: /tmp/qchem35370//Frg2/
Creating input file /tmp/qchem35370/Frg1.input
using default PutDataFrgm: nothing
calling putenv with: QCSCRATCH=/tmp/qchem35370/ 
calling putenv with: QCLOCALSCR=/tmp/qchem35370/ 
Spawning Job For Fragment 0
                  Welcome to Q-Chem
     A Quantum Leap Into The Future Of Chemistry


 Q-Chem 5.2, Q-Chem, Inc., Pleasanton, CA (2019)

 License issued to: National Energy Research Scientific Computing Center

 Yihan Shao,  Zhengting Gan,  E. Epifanovsky,  A. T. B. Gilbert,  M. Wormit,  
 J. Kussmann,  A. W. Lange,  A. Behn,  Jia Deng,  Xintian Feng,  D. Ghosh,  
 M. Goldey,  P. R. Horn,  L. D. Jacobson,  I. Kaliman,  T. Kus,  A. Landau,  
 Jie Liu,  E. I. Proynov,  R. M. Richard,  R. P. Steele,  E. J. Sundstrom,  
 H. L. Woodcock III,  P. M. Zimmerman,  D. Zuev,  B. Albrecht,  E. Alguire,  
 S. A. Baeppler,  D. Barton,  Z. Benda,  Y. A. Bernard,  E. J. Berquist,  
 K. B. Bravaya,  H. Burton,  D. Casanova,  Chun-Min Chang,  Yunqing Chen,  
 A. Chien,  K. D. Closser,  M. P. Coons,  S. Coriani,  S. Dasgupta,  
 A. L. Dempwolff,  M. Diedenhofen,  Hainam Do,  R. G. Edgar,  Po-Tung Fang,  
 S. Faraji,  S. Fatehi,  Qingguo Feng,  K. D. Fenk,  J. Fosso-Tande,  
 J. Gayvert,  Qinghui Ge,  A. Ghysels,  G. Gidofalvi,  J. Gomes,  
 J. Gonthier,  A. Gunina,  D. Hait,  M. W. D. Hanson-Heine,  
 P. H. P. Harbach,  A. W. Hauser,  M. F. Herbst,  J. E. Herr,  
 E. G. Hohenstein,  Z. C. Holden,  Kerwin Hui,  B. C. Huynh,  T.-C. Jagau,  
 Hyunjun Ji,  B. Kaduk,  K. Khistyaev,  Jaehoon Kim,  P. Klunzinger,  K. Koh,  
 D. Kosenkov,  L. Koulias,  T. Kowalczyk,  C. M. Krauter,  A. Kunitsa,  
 Ka Un Lao,  A. Laurent,  K. V. Lawler,  Joonho Lee,  D. Lefrancois,  
 S. Lehtola,  D. S. Levine,  Yi-Pei Li,  You-Sheng Lin,  Fenglai Liu,  
 E. Livshits,  A. Luenser,  P. Manohar,  E. Mansoor,  S. F. Manzer,  
 Shan-Ping Mao,  Yuezhi Mao,  N. Mardirossian,  A. V. Marenich,  
 T. Markovich,  L. A. Martinez-Martinez,  S. A. Maurer,  N. J. Mayhall,  
 S. C. McKenzie,  J.-M. Mewes,  P. Morgante,  A. F. Morrison,  
 J. W. Mullinax,  K. Nanda,  T. S. Nguyen-Beck,  R. Olivares-Amaya,  
 J. A. Parkhill,  Zheng Pei,  T. M. Perrine,  F. Plasser,  P. Pokhilko,  
 S. Prager,  A. Prociuk,  E. Ramos,  D. R. Rehn,  F. Rob,  M. Scheurer,  
 M. Schneider,  N. Sergueev,  S. M. Sharada,  S. Sharma,  D. W. Small,  
 T. Stauch,  T. Stein,  Yu-Chuan Su,  A. J. W. Thom,  A. Tkatchenko,  
 T. Tsuchimochi,  N. M. Tubman,  L. Vogt,  M. L. Vidal,  O. Vydrov,  
 M. A. Watson,  J. Wenzel,  M. de Wergifosse,  T. A. Wesolowski,  A. White,  
 J. Witte,  A. Yamada,  Jun Yang,  K. Yao,  S. Yeganeh,  S. R. Yost,  
 Zhi-Qiang You,  A. Zech,  Igor Ying Zhang,  Xing Zhang,  Yan Zhao,  
 Ying Zhu,  B. R. Brooks,  G. K. L. Chan,  C. J. Cramer,  M. S. Gordon,  
 W. J. Hehre,  A. Klamt,  M. W. Schmidt,  C. D. Sherrill,  D. G. Truhlar,  
 A. Aspuru-Guzik,  R. Baer,  A. T. Bell,  N. A. Besley,  Jeng-Da Chai,  
 A. E. DePrince, III,  R. A. DiStasio Jr.,  A. Dreuw,  B. D. Dunietz,  
 T. R. Furlani,  Chao-Ping Hsu,  Yousung Jung,  Jing Kong,  D. S. Lambrecht,  
 WanZhen Liang,  C. Ochsenfeld,  V. A. Rassolov,  L. V. Slipchenko,  
 J. E. Subotnik,  T. Van Voorhis,  J. M. Herbert,  A. I. Krylov,  
 P. M. W. Gill,  M. Head-Gordon

 Contributors to earlier versions of Q-Chem not listed above: 
 R. D. Adamson,  B. Austin,  J. Baker,  G. J. O. Beran,  K. Brandhorst,  
 S. T. Brown,  E. F. C. Byrd,  A. K. Chakraborty,  C.-L. Cheng,  
 Siu Hung Chien,  D. M. Chipman,  D. L. Crittenden,  H. Dachsel,  
 R. J. Doerksen,  A. D. Dutoi,  L. Fusti-Molnar,  W. A. Goddard III,  
 A. Golubeva-Zadorozhnaya,  S. R. Gwaltney,  G. Hawkins,  A. Heyden,  
 S. Hirata,  G. Kedziora,  F. J. Keil,  C. Kelley,  Jihan Kim,  R. A. King,  
 R. Z. Khaliullin,  P. P. Korambath,  W. Kurlancheek,  A. M. Lee,  M. S. Lee,  
 S. V. Levchenko,  Ching Yeh Lin,  D. Liotard,  R. C. Lochan,  I. Lotan,  
 P. E. Maslen,  N. Nair,  D. P. O'Neill,  D. Neuhauser,  E. Neuscamman,  
 C. M. Oana,  R. Olson,  B. Peters,  R. Peverati,  P. A. Pieniazek,  
 Y. M. Rhee,  J. Ritchie,  M. A. Rohrdanz,  E. Rosta,  N. J. Russ,  
 H. F. Schaefer III,  N. E. Schultz,  N. Shenvi,  A. C. Simmonett,  A. Sodt,  
 D. Stuck,  K. S. Thanthiriwatte,  V. Vanovschi,  Tao Wang,  A. Warshel,  
 C. F. Williams,  Q. Wu,  X. Xu,  W. Zhang

 Please cite Q-Chem as follows:
 Y. Shao et al., Mol. Phys. 113, 184-215 (2015)
 DOI: 10.1080/00268976.2014.952696

 Q-Chem 5.2.0 for Intel X86 EM64T Linux

 Parts of Q-Chem use Armadillo 8.300.2 (Tropical Shenanigans).
 http://arma.sourceforge.net/

 Q-Chem begins on Sun Sep 26 11:25:48 2021  

Host: cori01
0

     Scratch files written to /tmp/qchem35370//Frg1//
 May1019 |scratch|qcdevops|jenkins|workspace|build_RNUM -1
Processing $rem in /global/common/cori/software/qchem/5.2/config/preferences:
	 MEM_TOTAL  96000 
NAlpha2: 40
NElect   40
Mult     1
Symmetry turned off for PCM/SM12/SMD calculation

Checking the input file for inconsistencies... 	...done.

--------------------------------------------------------------
User input:
--------------------------------------------------------------
$molecule
1 1
 6	-2.7399608470	0.3814470464	-1.5121198290
 6	-0.4639608470	-0.5515529536	-1.7121198290
 7	-1.4559608470	-0.0825529536	-0.9731198290
 7	0.6550391530	-0.9445529536	-1.1411198290
 7	-0.5899608470	-0.6325529536	-3.0231198290
 1	-1.2709608470	0.0204470464	0.0208801710
 1	-3.1459608470	-0.3685529536	-2.1971198290
 1	-2.5919608470	1.3134470464	-2.0621198290
 1	0.8530391530	-0.6285529536	-0.1851198290
 1	1.4380391530	-1.2065529536	-1.7141198290
 1	-1.4219608470	-0.2915529536	-3.4741198290
 1	0.1650391530	-0.9825529536	-3.5921198290
 1	-3.4849908470	0.5543270464	-0.7215208290
$end
$rem
EDA2		1
METHOD		WB97X-V
BASIS		DEF2-TZVPD
XC_GRID		000099000590
NL_GRID		1
UNRESTRICTED		FALSE
MAX_SCF_CYCLES		200
SYMMETRY		FALSE
SYM_IGNORE		TRUE
BASIS_LIN_DEP_THRESH		6
THRESH		14
SCF_CONVERGENCE		8
SCF_PRINT_FRGM		TRUE
SOLVENT_METHOD		SMD
!required keywords
JOBTYPE		SP
SYM_IGNORE		TRUE
SUBSYSTEM		TRUE
GEN_SCFMAN		TRUE
CHILD_INSTRUCTION		2
SYM_IGNORE		TRUE
SCFMI		0
RI_K 0		
PARI_K 0		
MIN_PARI_K 0		
IARI_K 0		
OCC_RI_K 0		
PURECART		1111
MEM_STATIC		2000
MEM_TOTAL		96000
GUI		0
CHILD_MP		1
CHILD_MP_ORDERS		232
FRZ_RELAX		0
FRZ_RELAX_METHOD		0
EDA_CLS_ELEC		1
EDA_CLS_DISP		0
FRZ_ORTHO_DECOMP		1
EDA2		FALSE
FRGM_METHOD		FALSE
CIS_N_ROOTS  0
LOCAL_CIS    0
CIS_RLX_DNS  1
$end
$smx
SOLVENT			WATER
$end
--------------------------------------------------------------
 ----------------------------------------------------------------
             Standard Nuclear Orientation (Angstroms)
    I     Atom           X                Y                Z
 ----------------------------------------------------------------
    1      C      -2.7399608470     0.3814470464    -1.5121198290
    2      C      -0.4639608470    -0.5515529536    -1.7121198290
    3      N      -1.4559608470    -0.0825529536    -0.9731198290
    4      N       0.6550391530    -0.9445529536    -1.1411198290
    5      N      -0.5899608470    -0.6325529536    -3.0231198290
    6      H      -1.2709608470     0.0204470464     0.0208801710
    7      H      -3.1459608470    -0.3685529536    -2.1971198290
    8      H      -2.5919608470     1.3134470464    -2.0621198290
    9      H       0.8530391530    -0.6285529536    -0.1851198290
   10      H       1.4380391530    -1.2065529536    -1.7141198290
   11      H      -1.4219608470    -0.2915529536    -3.4741198290
   12      H       0.1650391530    -0.9825529536    -3.5921198290
   13      H      -3.4849908470     0.5543270464    -0.7215208290
 ----------------------------------------------------------------
 Nuclear Repulsion Energy =         194.45227068 hartrees
 There are       20 alpha and       20 beta electrons
 Requested basis set is def2-TZVPD
 There are 105 shells and 257 basis functions

 Total QAlloc Memory Limit  96000 MB
 Mega-Array Size      1956 MB
 MEM_STATIC part      2000 MB
 
 Citation of the SMD model:
 Marenich, A.V.; Cramer, C.J.; Truhlar, D.G.
 J. Phys. Chem. B 2009, 113, 6378-6396.
 iSolventCode=           1
 Solvent: water                                                           
 
 vradii
            1           2           3           4           5           6
    1   1.8500000   1.8500000   1.8900000   1.8900000   1.8900000   1.2000000
            7           8           9          10          11          12
    1   1.2000000   1.2000000   1.2000000   1.2000000   1.2000000   1.2000000
           13
    1   1.2000000
 Changing PCM_VDW_RADII to SMD_RADIUS
 Discretize the solute cavity surface with Lebedev spheres
	Using 110 Lebedev grid points for each H atom
	Using 194 Lebedev grid points for other atoms
	Atomic van der Waals radii will be scaled by 1.20
 Remove points where switching function is < 1.0e-08
 Keep 923 surface tesserae and discard 927 interior tesserae
 Molecular Surface Area = 113.577 Angst**2

                       Distance Matrix (Angstroms)
             C (  1)   C (  2)   N (  3)   N (  4)   N (  5)   H (  6)
   C (  2)  2.467927
   N (  3)  1.467812  1.322931
   N (  4)  3.663597  1.316302  2.286392
   N (  5)  2.816703  1.319529  2.292369  2.278002
   H (  6)  2.153688  1.995425  1.016302  2.447641  3.186865
   H (  7)  1.093874  2.731637  2.106198  3.986792  2.699094  2.930268
   H (  8)  1.092258  2.851159  2.103624  4.060765  2.952701  2.784920
   H (  9)  3.961146  2.017956  2.500108  1.026156  3.183788  2.230474
   H ( 10)  4.474174  2.011624  3.191817  1.005018  2.481077  3.443027
   H ( 11)  2.457539  2.022377  2.509948  3.191117  1.005935  3.512146
   H ( 12)  3.824385  2.028744  3.208863  2.499789  1.008110  4.015205
   H ( 13)  1.100002  3.366137  2.141467  4.422957  3.884230  2.395436
             H (  7)   H (  8)   H (  9)   H ( 10)   H ( 11)   H ( 12)
   H (  8)  1.776025
   H (  9)  4.484166  4.377501
   H ( 10)  4.684932  4.765753  1.736131
   H ( 11)  2.146820  2.436938  4.013317  3.480578
   H ( 12)  3.644961  3.900457  3.493753  2.279822  1.734928
   H ( 13)  1.773144  1.780722  4.528293  5.321858  3.542373  4.891325

 
 A cutoff of  1.0D-14 yielded   5441 shell pairs
 There are     33169 function pairs (     41505 Cartesian)
 Smallest overlap matrix eigenvalue = 1.65E-05

 Scale SEOQF with 1.000000e-01/1.000000e-01/1.000000e-01

 Standard Electronic Orientation quadrupole field applied
 Nucleus-field energy     =    -0.0000000111 hartrees
 Guess from superposition of atomic densities
 Warning:  Energy on first SCF cycle will be non-variational
 SAD guess density has 40.388232 electrons

 -----------------------------------------------------------------------
  General SCF calculation program by
  Eric Jon Sundstrom, Paul Horn, Yuezhi Mao, Dmitri Zuev, Alec White,
  David Stuck, Shaama M.S., Shane Yost, Joonho Lee, David Small,
  Daniel Levine, Susi Lehtola, Hugh Burton, Evgeny Epifanovsky
 -----------------------------------------------------------------------
 Exchange:     0.1670 Hartree-Fock + 1.0000 wB97X-V + LR-HF
 Correlation:  1.0000 wB97X-V
 Using Euler-Maclaurin-Lebedev (99,590) quadrature formula
 Nonlocal Correlation:  VV10 with C = 0.0100 and b = 6.00 and scale = 1.00000
 Grid used for NLC:  SG-1 standard quadrature
Energy prior to optimization (guess energy) = -244.725376056703
Begin Timing: Total SCF Calculation
begin iterations for algorithm: DIIS         
the SCF tolerance is set to 1.00e-08
    1    -244.7253760567      7.93e-03     00000 
    2    -244.9638513917      6.24e-03     00000 
    3    -245.2049444240      3.29e-04     00000 
    4    -245.2059148162      1.72e-04     00000 
    5    -245.2061474029      4.79e-05     00000 
    6    -245.2061676422      1.92e-05     00000 
    7    -245.2061707906      3.73e-06     00000 
    8    -245.2061710119      9.59e-07     00000 
    9    -245.2061710289      4.15e-07     00000 
   10    -245.2061710314      1.23e-07     00000 
   11    -245.2061710318      4.81e-08     00000 
   12    -245.2061710318      1.79e-08     00000 
   13    -245.2061710318      2.46e-09     00000 Convergence criterion met
Timing for Total SCF: 758.00s (wall), 1502.12s (cpu)
(3)  G-ENP(liq) elect-nuc-pol free energy of system     -245.206171032 a.u.
(4)  G-CDS(liq) cavity-dispersion-solvent structure 
     free energy                                                2.6885 kcal/mol
(6)  G-S(liq) free energy of system                     -245.201886615 a.u.
E_pcm = -0.1085766376
E_cds = 0.0042844170
Multipole orders to be included
        2
        3
computing dipole RHS
computing quadrupole RHS
total number of RHS in solve_reponses: 8
RHS batch sizes
        8
Beginning Block Conjugate Gradient Iterations. Batch Number: 0
computing hessian-vector products by finite difference
              1      4.96e-01     00000 Conjugate Gradient Iteration
computing hessian-vector products by finite difference
              2      1.94e-01     00000 Conjugate Gradient Iteration
computing hessian-vector products by finite difference
              3      5.13e-02     00000 Conjugate Gradient Iteration
computing hessian-vector products by finite difference
              4      1.27e-02     00000 Conjugate Gradient Iteration
computing hessian-vector products by finite difference
              5      1.68e-03     00000 Conjugate Gradient Iteration
computing hessian-vector products by finite difference
              6      2.79e-04     00000 Conjugate Gradient Iteration
computing hessian-vector products by finite difference
              7      4.30e-05     00000 Conjugate Gradient Iteration
computing hessian-vector products by finite difference
              8      6.17e-06     00000 Conjugate Gradient Iteration
computing hessian-vector products by finite difference
              9      8.98e-07     00000 Conjugate Gradient Iteration
computing hessian-vector products by finite difference
             10      9.89e-08     00000 Conjugate Gradient Iteration
computing hessian-vector products by finite difference
             11      1.29e-08     00000 Conjugate Gradient Iteration
computing hessian-vector products by finite difference
             12      2.12e-09     00000 CG Converged
batch 0 complete
Done Calculating Responses
TESTING ORTHOGONALIZATION OF MULTIPOLE BASIS
Multipole virts passed orthogonality test
Virts Per Order
           60
          100
 
 --------------------------------------------------------------
 
                    Orbital Energies (a.u.)
 --------------------------------------------------------------
 
 Alpha MOs
 -- Occupied --
-14.4558 -14.4481 -14.4454 -10.4213 -10.3062  -1.1746  -1.0551  -1.0428
 -0.8524  -0.7653  -0.7203  -0.6879  -0.6156  -0.6092  -0.5943  -0.5713
 -0.5251  -0.5061  -0.4007  -0.3774
 -- Virtual --
  0.0587   0.0848   0.0978   0.1015   0.1243   0.1258   0.1370   0.1501
  0.1736   0.1805   0.1904   0.1995   0.2012   0.2085   0.2237   0.2390
  0.2441   0.2469   0.2493   0.2720   0.2812   0.2841   0.2966   0.3011
  0.3121   0.3219   0.3240   0.3283   0.3389   0.3437   0.3534   0.3559
  0.3639   0.3764   0.3814   0.4025   0.4062   0.4085   0.4157   0.4362
  0.4429   0.4484   0.4545   0.4614   0.4708   0.4765   0.4898   0.5000
  0.5052   0.5080   0.5207   0.5272   0.5295   0.5378   0.5521   0.5592
  0.5601   0.5685   0.5781   0.5936   0.6161   0.6262   0.6387   0.6587
  0.6621   0.6716   0.6807   0.7053   0.7216   0.7364   0.7498   0.7571
  0.7875   0.7979   0.8180   0.8351   0.8383   0.8436   0.8566   0.8687
  0.8799   0.8911   0.9090   0.9254   0.9368   0.9677   0.9778   1.0171
  1.0216   1.0604   1.0648   1.0848   1.0917   1.1206   1.1305   1.1475
  1.1713   1.1832   1.2391   1.2486   1.2742   1.3321   1.3725   1.4232
  1.4286   1.4406   1.4854   1.4902   1.5566   1.5992   1.6469   1.6640
  1.6935   1.7333   1.7435   1.7765   1.8456   1.8562   1.8648   1.8856
  1.8952   1.9174   1.9243   1.9759   2.0017   2.0182   2.0364   2.0752
  2.0779   2.1064   2.1441   2.1891   2.2104   2.2401   2.2703   2.3068
  2.3313   2.3532   2.3907   2.4071   2.4540   2.4734   2.5188   2.5260
  2.5781   2.6045   2.6282   2.6370   2.6501   2.6666   2.7214   2.7521
  2.7982   2.8112   2.8350   2.8845   2.8998   2.9217   2.9268   2.9726
  3.0464   3.0948   3.1437   3.1615   3.1727   3.2018   3.2269   3.2589
  3.2745   3.2930   3.3120   3.3495   3.3675   3.3899   3.4135   3.4318
  3.4590   3.4810   3.5260   3.5861   3.6036   3.6387   3.6738   3.7616
  3.8036   3.8532   3.9318   3.9561   4.0095   4.1017   4.1437   4.2335
  4.2781   4.3314   4.3504   4.4117   4.4602   4.5134   4.5838   4.6260
  4.6685   4.8468   4.8601   4.8779   4.9456   4.9988   5.0244   5.0587
  5.1067   5.1128   5.1427   5.1739   5.1781   5.2162   5.2867   5.3218
  5.3907   5.4135   5.4423   5.4844   5.5079   5.5339   5.5777   5.6616
  5.7061   5.7769   5.8091   5.8937   6.1456   6.1946   6.3593   6.4790
 22.6751  23.6755  32.3381  32.4534  32.8121
 --------------------------------------------------------------
 
          Ground-State Mulliken Net Atomic Charges

     Atom                 Charge (a.u.)
  ----------------------------------------
      1 C                    -0.796827
      2 C                     0.369702
      3 N                    -0.102225
      4 N                    -0.324472
      5 N                    -0.278749
      6 H                     0.283389
      7 H                     0.294167
      8 H                     0.282539
      9 H                     0.279812
     10 H                     0.267424
     11 H                     0.217586
     12 H                     0.238987
     13 H                     0.268666
  ----------------------------------------
  Sum of atomic charges =     1.000000

 -----------------------------------------------------------------
                    Cartesian Multipole Moments
 -----------------------------------------------------------------
    Charge (ESU x 10^10)
                 4.8032
    Dipole Moment (Debye)
         X      -2.5061      Y      -1.4887      Z      -8.3274
       Tot       8.8228
    Quadrupole Moments (Debye-Ang)
        XX     -14.7619     XY      -4.5408     YY     -30.0513
        XZ       4.4635     YZ       5.2377     ZZ      -2.2896
    Octopole Moments (Debye-Ang^2)
       XXX      61.4116    XXY      10.5850    XYY      32.8290
       YYY      33.1806    XXZ      25.9970    XYZ       7.1672
       YYZ      47.0289    XZZ      15.0229    YZZ      -8.3543
       ZZZ      58.5243
    Hexadecapole Moments (Debye-Ang^3)
      XXXX    -384.9176   XXXY       6.1763   XXYY     -93.3365
      XYYY      20.4348   YYYY    -108.7743   XXXZ    -106.4608
      XXYZ     -14.9167   XYYZ     -55.3674   YYYZ     -60.8650
      XXZZ    -128.5612   XYZZ      -7.6624   YYZZ    -114.0153
      XZZZ     -96.9020   YZZZ       6.3647   ZZZZ    -331.4436
 -----------------------------------------------------------------
Archival summary:
1\1\nid00557\SP\ProcedureUnspecified\BasisUnspecified\328(1+,1)\meili\SunSep2614:58:522021SunSep2614:58:522021\0\\#,ProcedureUnspecified,BasisUnspecified,\\1,1\C\N,1,1.3163\H,2,1.00502,1,119.526\H,2,1.02616,1,118.439,3,155.422,0\N,1,1.31953,2,119.593,3,6.71492,0\H,5,1.00594,1,120.239,2,-176.865,0\H,5,1.00811,1,120.702,2,-0.673567,0\N,1,1.32293,2,120.065,3,-173.493,0\H,8,1.0163,1,116.473,2,4.71267,0\C,8,1.46781,1,124.256,2,179.922,0\H,10,1.09226,8,109.64,1,-69.7385,0\H,10,1.09387,8,109.748,1,49.5445,0\H,10,1.1,8,112.225,1,169.44,0\\\@

 Total job time:  12786.47s(wall), 25353.12s(cpu) 
 Sun Sep 26 14:58:54 2021

        *************************************************************
        *                                                           *
        *  Thank you very much for using Q-Chem.  Have a nice day.  *
        *                                                           *
        *************************************************************


Done Job For Fragment 0
calling putenv with: QCSCRATCH=/global/cscratch1/sd/meili 
calling putenv with: QCLOCALSCR=/tmp 
calling putenv with: QCTHREADS=32 
Creating input file /tmp/qchem35370/Frg2.input
using default PutDataFrgm: nothing
calling putenv with: QCSCRATCH=/tmp/qchem35370/ 
calling putenv with: QCLOCALSCR=/tmp/qchem35370/ 
Spawning Job For Fragment 1
                  Welcome to Q-Chem
     A Quantum Leap Into The Future Of Chemistry


 Q-Chem 5.2, Q-Chem, Inc., Pleasanton, CA (2019)

 License issued to: National Energy Research Scientific Computing Center

 Yihan Shao,  Zhengting Gan,  E. Epifanovsky,  A. T. B. Gilbert,  M. Wormit,  
 J. Kussmann,  A. W. Lange,  A. Behn,  Jia Deng,  Xintian Feng,  D. Ghosh,  
 M. Goldey,  P. R. Horn,  L. D. Jacobson,  I. Kaliman,  T. Kus,  A. Landau,  
 Jie Liu,  E. I. Proynov,  R. M. Richard,  R. P. Steele,  E. J. Sundstrom,  
 H. L. Woodcock III,  P. M. Zimmerman,  D. Zuev,  B. Albrecht,  E. Alguire,  
 S. A. Baeppler,  D. Barton,  Z. Benda,  Y. A. Bernard,  E. J. Berquist,  
 K. B. Bravaya,  H. Burton,  D. Casanova,  Chun-Min Chang,  Yunqing Chen,  
 A. Chien,  K. D. Closser,  M. P. Coons,  S. Coriani,  S. Dasgupta,  
 A. L. Dempwolff,  M. Diedenhofen,  Hainam Do,  R. G. Edgar,  Po-Tung Fang,  
 S. Faraji,  S. Fatehi,  Qingguo Feng,  K. D. Fenk,  J. Fosso-Tande,  
 J. Gayvert,  Qinghui Ge,  A. Ghysels,  G. Gidofalvi,  J. Gomes,  
 J. Gonthier,  A. Gunina,  D. Hait,  M. W. D. Hanson-Heine,  
 P. H. P. Harbach,  A. W. Hauser,  M. F. Herbst,  J. E. Herr,  
 E. G. Hohenstein,  Z. C. Holden,  Kerwin Hui,  B. C. Huynh,  T.-C. Jagau,  
 Hyunjun Ji,  B. Kaduk,  K. Khistyaev,  Jaehoon Kim,  P. Klunzinger,  K. Koh,  
 D. Kosenkov,  L. Koulias,  T. Kowalczyk,  C. M. Krauter,  A. Kunitsa,  
 Ka Un Lao,  A. Laurent,  K. V. Lawler,  Joonho Lee,  D. Lefrancois,  
 S. Lehtola,  D. S. Levine,  Yi-Pei Li,  You-Sheng Lin,  Fenglai Liu,  
 E. Livshits,  A. Luenser,  P. Manohar,  E. Mansoor,  S. F. Manzer,  
 Shan-Ping Mao,  Yuezhi Mao,  N. Mardirossian,  A. V. Marenich,  
 T. Markovich,  L. A. Martinez-Martinez,  S. A. Maurer,  N. J. Mayhall,  
 S. C. McKenzie,  J.-M. Mewes,  P. Morgante,  A. F. Morrison,  
 J. W. Mullinax,  K. Nanda,  T. S. Nguyen-Beck,  R. Olivares-Amaya,  
 J. A. Parkhill,  Zheng Pei,  T. M. Perrine,  F. Plasser,  P. Pokhilko,  
 S. Prager,  A. Prociuk,  E. Ramos,  D. R. Rehn,  F. Rob,  M. Scheurer,  
 M. Schneider,  N. Sergueev,  S. M. Sharada,  S. Sharma,  D. W. Small,  
 T. Stauch,  T. Stein,  Yu-Chuan Su,  A. J. W. Thom,  A. Tkatchenko,  
 T. Tsuchimochi,  N. M. Tubman,  L. Vogt,  M. L. Vidal,  O. Vydrov,  
 M. A. Watson,  J. Wenzel,  M. de Wergifosse,  T. A. Wesolowski,  A. White,  
 J. Witte,  A. Yamada,  Jun Yang,  K. Yao,  S. Yeganeh,  S. R. Yost,  
 Zhi-Qiang You,  A. Zech,  Igor Ying Zhang,  Xing Zhang,  Yan Zhao,  
 Ying Zhu,  B. R. Brooks,  G. K. L. Chan,  C. J. Cramer,  M. S. Gordon,  
 W. J. Hehre,  A. Klamt,  M. W. Schmidt,  C. D. Sherrill,  D. G. Truhlar,  
 A. Aspuru-Guzik,  R. Baer,  A. T. Bell,  N. A. Besley,  Jeng-Da Chai,  
 A. E. DePrince, III,  R. A. DiStasio Jr.,  A. Dreuw,  B. D. Dunietz,  
 T. R. Furlani,  Chao-Ping Hsu,  Yousung Jung,  Jing Kong,  D. S. Lambrecht,  
 WanZhen Liang,  C. Ochsenfeld,  V. A. Rassolov,  L. V. Slipchenko,  
 J. E. Subotnik,  T. Van Voorhis,  J. M. Herbert,  A. I. Krylov,  
 P. M. W. Gill,  M. Head-Gordon

 Contributors to earlier versions of Q-Chem not listed above: 
 R. D. Adamson,  B. Austin,  J. Baker,  G. J. O. Beran,  K. Brandhorst,  
 S. T. Brown,  E. F. C. Byrd,  A. K. Chakraborty,  C.-L. Cheng,  
 Siu Hung Chien,  D. M. Chipman,  D. L. Crittenden,  H. Dachsel,  
 R. J. Doerksen,  A. D. Dutoi,  L. Fusti-Molnar,  W. A. Goddard III,  
 A. Golubeva-Zadorozhnaya,  S. R. Gwaltney,  G. Hawkins,  A. Heyden,  
 S. Hirata,  G. Kedziora,  F. J. Keil,  C. Kelley,  Jihan Kim,  R. A. King,  
 R. Z. Khaliullin,  P. P. Korambath,  W. Kurlancheek,  A. M. Lee,  M. S. Lee,  
 S. V. Levchenko,  Ching Yeh Lin,  D. Liotard,  R. C. Lochan,  I. Lotan,  
 P. E. Maslen,  N. Nair,  D. P. O'Neill,  D. Neuhauser,  E. Neuscamman,  
 C. M. Oana,  R. Olson,  B. Peters,  R. Peverati,  P. A. Pieniazek,  
 Y. M. Rhee,  J. Ritchie,  M. A. Rohrdanz,  E. Rosta,  N. J. Russ,  
 H. F. Schaefer III,  N. E. Schultz,  N. Shenvi,  A. C. Simmonett,  A. Sodt,  
 D. Stuck,  K. S. Thanthiriwatte,  V. Vanovschi,  Tao Wang,  A. Warshel,  
 C. F. Williams,  Q. Wu,  X. Xu,  W. Zhang

 Please cite Q-Chem as follows:
 Y. Shao et al., Mol. Phys. 113, 184-215 (2015)
 DOI: 10.1080/00268976.2014.952696

 Q-Chem 5.2.0 for Intel X86 EM64T Linux

 Parts of Q-Chem use Armadillo 8.300.2 (Tropical Shenanigans).
 http://arma.sourceforge.net/

 Q-Chem begins on Sun Sep 26 14:58:57 2021  

Host: cori01
0

     Scratch files written to /tmp/qchem35370//Frg2//
 May1019 |scratch|qcdevops|jenkins|workspace|build_RNUM -1
Processing $rem in /global/common/cori/software/qchem/5.2/config/preferences:
	 MEM_TOTAL  96000 
NAlpha2: 32
NElect   32
Mult     1
Symmetry turned off for PCM/SM12/SMD calculation

Checking the input file for inconsistencies... 	...done.

--------------------------------------------------------------
User input:
--------------------------------------------------------------
$molecule
-1 1
 6	1.7310391530	0.9064470464	3.3438801710
 6	1.1120391530	0.4254470464	2.0448801710
 8	-0.1119608470	0.1704470464	2.0218801710
 8	1.8430391530	0.3144470464	1.0368801710
 1	1.0260391530	0.7304470464	4.1598801710
 1	1.8960391530	1.9824470464	3.2628801710
 1	2.6860791530	0.4076970464	3.5655481710
$end
$rem
EDA2		1
METHOD		WB97X-V
BASIS		DEF2-TZVPD
XC_GRID		000099000590
NL_GRID		1
UNRESTRICTED		FALSE
MAX_SCF_CYCLES		200
SYMMETRY		FALSE
SYM_IGNORE		TRUE
BASIS_LIN_DEP_THRESH		6
THRESH		14
SCF_CONVERGENCE		8
SCF_PRINT_FRGM		TRUE
SOLVENT_METHOD		SMD
!required keywords
JOBTYPE		SP
SYM_IGNORE		TRUE
SUBSYSTEM		TRUE
GEN_SCFMAN		TRUE
CHILD_INSTRUCTION		2
SYM_IGNORE		TRUE
SCFMI		0
RI_K 0		
PARI_K 0		
MIN_PARI_K 0		
IARI_K 0		
OCC_RI_K 0		
PURECART		1111
MEM_STATIC		2000
MEM_TOTAL		96000
GUI		0
CHILD_MP		1
CHILD_MP_ORDERS		232
FRZ_RELAX		0
FRZ_RELAX_METHOD		0
EDA_CLS_ELEC		1
EDA_CLS_DISP		0
FRZ_ORTHO_DECOMP		1
EDA2		FALSE
FRGM_METHOD		FALSE
CIS_N_ROOTS  0
LOCAL_CIS    0
CIS_RLX_DNS  1
$end
$smx
SOLVENT			WATER
$end
--------------------------------------------------------------
 ----------------------------------------------------------------
             Standard Nuclear Orientation (Angstroms)
    I     Atom           X                Y                Z
 ----------------------------------------------------------------
    1      C       1.7310391530     0.9064470464     3.3438801710
    2      C       1.1120391530     0.4254470464     2.0448801710
    3      O      -0.1119608470     0.1704470464     2.0218801710
    4      O       1.8430391530     0.3144470464     1.0368801710
    5      H       1.0260391530     0.7304470464     4.1598801710
    6      H       1.8960391530     1.9824470464     3.2628801710
    7      H       2.6860791530     0.4076970464     3.5655481710
 ----------------------------------------------------------------
 Nuclear Repulsion Energy =         112.80584465 hartrees
 There are       16 alpha and       16 beta electrons
 Requested basis set is def2-TZVPD
 There are 69 shells and 181 basis functions

 Total QAlloc Memory Limit  96000 MB
 Mega-Array Size      1956 MB
 MEM_STATIC part      2000 MB
 
 Citation of the SMD model:
 Marenich, A.V.; Cramer, C.J.; Truhlar, D.G.
 J. Phys. Chem. B 2009, 113, 6378-6396.
 iSolventCode=           1
 Solvent: water                                                           
 
 vradii
            1           2           3           4           5           6
    1   1.8500000   1.8500000   1.5200000   1.5200000   1.2000000   1.2000000
            7
    1   1.2000000
 Changing PCM_VDW_RADII to SMD_RADIUS
 Discretize the solute cavity surface with Lebedev spheres
	Using 110 Lebedev grid points for each H atom
	Using 194 Lebedev grid points for other atoms
	Atomic van der Waals radii will be scaled by 1.20
 Remove points where switching function is < 1.0e-08
 Keep 649 surface tesserae and discard 457 interior tesserae
 Molecular Surface Area = 79.882 Angst**2

                       Distance Matrix (Angstroms)
             C (  1)   C (  2)   O (  3)   O (  4)   H (  5)   H (  6)
   C (  2)  1.517209
   O (  3)  2.384540  1.250492
   O (  4)  2.384378  1.250098  2.193852
   H (  5)  1.092638  2.138608  2.485898  3.254792
   H (  6)  1.091587  2.126600  2.975817  2.782105  1.768902
   H (  7)  1.099995  2.188686  3.204407  2.667128  1.792521  1.787627

 
 A cutoff of  1.0D-14 yielded   2391 shell pairs
 There are     16695 function pairs (     21491 Cartesian)
 Smallest overlap matrix eigenvalue = 1.64E-05

 Scale SEOQF with 1.000000e-01/1.000000e-01/1.000000e-01

 Standard Electronic Orientation quadrupole field applied
 Nucleus-field energy     =    -0.0000000155 hartrees
 Guess from superposition of atomic densities
 Warning:  Energy on first SCF cycle will be non-variational
 SAD guess density has 30.625312 electrons

 -----------------------------------------------------------------------
  General SCF calculation program by
  Eric Jon Sundstrom, Paul Horn, Yuezhi Mao, Dmitri Zuev, Alec White,
  David Stuck, Shaama M.S., Shane Yost, Joonho Lee, David Small,
  Daniel Levine, Susi Lehtola, Hugh Burton, Evgeny Epifanovsky
 -----------------------------------------------------------------------
 Exchange:     0.1670 Hartree-Fock + 1.0000 wB97X-V + LR-HF
 Correlation:  1.0000 wB97X-V
 Using Euler-Maclaurin-Lebedev (99,590) quadrature formula
 Nonlocal Correlation:  VV10 with C = 0.0100 and b = 6.00 and scale = 1.00000
 Grid used for NLC:  SG-1 standard quadrature
Energy prior to optimization (guess energy) = -227.762230743239
Begin Timing: Total SCF Calculation
begin iterations for algorithm: DIIS         
the SCF tolerance is set to 1.00e-08
    1    -227.7622307432      1.66e-02     00000 
    2    -225.6207955091      2.50e-02     00000 
    3    -228.6066101812      4.07e-03     00000 
    4    -228.6593804309      1.37e-03     00000 
    5    -228.6652721679      2.45e-04     00000 
    6    -228.6655208969      1.59e-04     00000 
    7    -228.6655864829      5.53e-05     00000 
    8    -228.6655972347      1.33e-05     00000 
    9    -228.6655983510      3.78e-06     00000 
   10    -228.6655984595      1.10e-06     00000 
   11    -228.6655984695      2.20e-07     00000 
   12    -228.6655984698      4.82e-08     00000 
   13    -228.6655984699      1.18e-08     00000 
   14    -228.6655984699      3.01e-09     00000 Convergence criterion met
Timing for Total SCF: 277.00s (wall), 540.03s (cpu)
(3)  G-ENP(liq) elect-nuc-pol free energy of system     -228.665598470 a.u.
(4)  G-CDS(liq) cavity-dispersion-solvent structure 
     free energy                                                3.9100 kcal/mol
(6)  G-S(liq) free energy of system                     -228.659367477 a.u.
E_pcm = -0.1311476965
E_cds = 0.0062309928
Multipole orders to be included
        2
        3
computing dipole RHS
computing quadrupole RHS
total number of RHS in solve_reponses: 8
RHS batch sizes
        8
Beginning Block Conjugate Gradient Iterations. Batch Number: 0
computing hessian-vector products by finite difference
              1      7.36e-01     00000 Conjugate Gradient Iteration
computing hessian-vector products by finite difference
              2      2.33e-01     00000 Conjugate Gradient Iteration
computing hessian-vector products by finite difference
              3      6.39e-02     00000 Conjugate Gradient Iteration
computing hessian-vector products by finite difference
              4      1.69e-02     00000 Conjugate Gradient Iteration
computing hessian-vector products by finite difference
              5      2.48e-03     00000 Conjugate Gradient Iteration
computing hessian-vector products by finite difference
              6      6.45e-04     00000 Conjugate Gradient Iteration
computing hessian-vector products by finite difference
              7      9.12e-05     00000 Conjugate Gradient Iteration
computing hessian-vector products by finite difference
              8      1.12e-05     00000 Conjugate Gradient Iteration
computing hessian-vector products by finite difference
              9      1.75e-06     00000 Conjugate Gradient Iteration
computing hessian-vector products by finite difference
             10      1.77e-07     00000 Conjugate Gradient Iteration
computing hessian-vector products by finite difference
             11      2.23e-08     00000 Conjugate Gradient Iteration
computing hessian-vector products by finite difference
             12      3.98e-09     00000 CG Converged
batch 0 complete
Done Calculating Responses
TESTING ORTHOGONALIZATION OF MULTIPOLE BASIS
Multipole virts passed orthogonality test
Virts Per Order
        48
        80
 
 --------------------------------------------------------------
 
                    Orbital Energies (a.u.)
 --------------------------------------------------------------
 
 Alpha MOs
 -- Occupied --
-19.1528 -19.1519 -10.3531 -10.2466  -1.1661  -1.0653  -0.8410  -0.6169
 -0.5480  -0.5465  -0.5418  -0.4818  -0.4633  -0.3653  -0.3578  -0.3441
 -- Virtual --
  0.0671   0.1000   0.1009   0.1073   0.1353   0.1445   0.1461   0.1504
  0.1565   0.1900   0.2035   0.2233   0.2346   0.2395   0.2592   0.2669
  0.2991   0.3148   0.3330   0.3463   0.3556   0.3609   0.3726   0.3827
  0.3861   0.4022   0.4161   0.4248   0.4300   0.4539   0.4664   0.4731
  0.4840   0.4896   0.5046   0.5095   0.5487   0.5624   0.5785   0.5984
  0.6116   0.6287   0.6317   0.6405   0.6542   0.6687   0.6868   0.6941
  0.7095   0.7213   0.7724   0.7946   0.8041   0.8093   0.8343   0.8486
  0.8581   0.9549   0.9717   0.9808   0.9890   1.0290   1.0427   1.0990
  1.1436   1.2067   1.2402   1.2622   1.2682   1.2997   1.3345   1.3519
  1.4316   1.5469   1.5832   1.7339   1.8045   1.8519   1.8543   1.8975
  1.9157   1.9374   1.9460   1.9587   2.0011   2.0963   2.1109   2.1668
  2.1870   2.2053   2.2961   2.3263   2.4025   2.4367   2.4582   2.4718
  2.5612   2.5726   2.6190   2.6321   2.7885   2.7992   2.8714   2.8997
  2.9358   2.9943   3.0325   3.1575   3.1972   3.2348   3.2626   3.2906
  3.3307   3.3345   3.3815   3.3932   3.4140   3.5144   3.5518   3.5741
  3.5895   3.6510   3.6803   3.7172   3.7485   3.8516   3.9451   4.0493
  4.0788   4.1839   4.3303   4.5332   4.6256   4.6578   4.7805   4.8127
  4.9779   5.2965   5.3240   5.3335   5.3410   5.4681   5.6832   5.7437
  5.7914   5.9974   6.2095   6.3130   6.3294   6.5921   6.5981   6.6900
  6.7145   6.7291   6.9297   6.9476   7.0116   7.2184   7.3212   7.3581
  7.3839  22.5838  23.7204  44.1916  44.3298
 --------------------------------------------------------------
 
          Ground-State Mulliken Net Atomic Charges

     Atom                 Charge (a.u.)
  ----------------------------------------
      1 C                    -0.584561
      2 C                     0.496919
      3 O                    -0.770161
      4 O                    -0.776744
      5 H                     0.205925
      6 H                     0.195859
      7 H                     0.232763
  ----------------------------------------
  Sum of atomic charges =    -1.000000

 -----------------------------------------------------------------
                    Cartesian Multipole Moments
 -----------------------------------------------------------------
    Charge (ESU x 10^10)
                -4.8032
    Dipole Moment (Debye)
         X      -3.2200      Y      -0.4006      Z      -5.3499
       Tot       6.2570
    Quadrupole Moments (Debye-Ang)
        XX     -35.5595     XY      -0.6451     YY     -24.7329
        XZ       1.5856     YZ       0.4707     ZZ     -31.8284
    Octopole Moments (Debye-Ang^2)
       XXX    -111.6806    XXY     -15.6496    XYY     -28.8595
       YYY     -34.4445    XXZ     -60.2475    XYZ       1.2587
       YYZ     -53.2693    XZZ     -17.7290    YZZ     -10.0541
       ZZZ    -174.0521
    Hexadecapole Moments (Debye-Ang^3)
      XXXX    -392.2982   XXXY     -64.9196   XXYY     -71.8491
      XYYY     -51.0770   YYYY     -76.9886   XXXZ    -212.5404
      XXYZ     -35.1137   XYYZ     -62.8700   YYYZ     -91.5828
      XXZZ    -196.4404   XYZZ     -13.8497   YYZZ    -156.6193
      XZZZ    -166.6259   YZZZ     -93.4881   ZZZZ    -892.0702
 -----------------------------------------------------------------
Archival summary:
1\1\nid00557\SP\ProcedureUnspecified\BasisUnspecified\223(1-,1)\meili\SunSep2616:15:202021SunSep2616:15:202021\0\\#,ProcedureUnspecified,BasisUnspecified,\\-1,1\C\O,1,1.2501\O,1,1.25049,2,122.645\C,1,1.51721,2,118.682,3,-179.17,0\H,4,1.09159,1,108.098,2,75.4292,0\H,4,1.09264,1,108.971,2,-167.24,0\H,4,1.1,1,112.52,2,-45.3735,0\\\@

 Total job time:  4585.17s(wall), 8961.80s(cpu) 
 Sun Sep 26 16:15:22 2021

        *************************************************************
        *                                                           *
        *  Thank you very much for using Q-Chem.  Have a nice day.  *
        *                                                           *
        *************************************************************


Done Job For Fragment 1
calling putenv with: QCSCRATCH=/global/cscratch1/sd/meili 
calling putenv with: QCLOCALSCR=/tmp 
calling putenv with: QCTHREADS=32 
Doing General SCFMI
 Exchange:     0.1670 Hartree-Fock + 1.0000 wB97X-V + LR-HF
 Correlation:  1.0000 wB97X-V
 Using Euler-Maclaurin-Lebedev (99,590) quadrature formula
 Nonlocal Correlation:  VV10 with C = 0.0100 and b = 6.00 and scale = 1.00000
 Grid used for NLC:  SG-1 standard quadrature
performing fock build before subrot guess so that all methods have access
Printing subrot_rss_gen Method Specification:
Occupied Subspace Method is 0
Virtual Subspace Method is 0
Energy of the unrelaxed supersystem initial determinant -473.792244517762
performing fock build before subrot guess so that all methods have access
Printing subrot_rss_gen Method Specification:
Occupied Subspace Method is 0
Virtual Subspace Method is 0
Energy of the unrelaxed supersystem initial determinant w/ solvent -473.871152787367
write pseudocanon occs and virts to disk
write pseudocanon orbital energies to disk
Tolerance of ortho_decomp_scf: 1.00e-06
GDM subspace size: 20
Beginning the Orthogonal Decomposition of the Initial Supersystem Wavefunction
    1    -473.5498293337      9.17e-02     ortho_decomp Preconditoned Steepest Descent
    2    -473.5645641282      2.77e-03     ortho_decomp BFGS Step
    3    -473.5646312668      2.25e-04     ortho_decomp BFGS Step
    4    -473.5646313862      1.03e-05     ortho_decomp BFGS Step
    5    -473.5646313868      4.28e-07     ortho_decomp 00000 Convergence criterion met
 Hartree-Fock
 Hartree-Fock
 Hartree-Fock
Doing General SCFMI
 Exchange:     0.1670 Hartree-Fock + 1.0000 wB97X-V + LR-HF
 Correlation:  1.0000 wB97X-V
 Using Euler-Maclaurin-Lebedev (99,590) quadrature formula
 Nonlocal Correlation:  VV10 with C = 0.0100 and b = 6.00 and scale = 1.00000
 Grid used for NLC:  SG-1 standard quadrature
performing fock build at end of subrot_r(subrot) constructor so that all methods have access
<S^2> of initial wavefunction before polarization iterations 0.0000000000
Beginning iterations for the determination of the polarized wavefunction
Energy prior to optimization (guess energy) = -473.871152787367
Begin Timing: Total SCF Calculation
begin iterations for algorithm: DIIS         
the SCF tolerance is set to 1.00e-08
    1    -473.8711527874      2.07e-04     00000 
    2    -473.8731355590      9.95e-05     00000 
    3    -473.8733786598      5.76e-05     00000 
    4    -473.8734731238      1.46e-05     00000 
    5    -473.8734837005      7.40e-06     00000 
    6    -473.8734868107      3.41e-06     00000 
    7    -473.8734874191      1.57e-06     00000 
    8    -473.8734875542      5.69e-07     00000 
    9    -473.8734875711      2.41e-07     00000 
   10    -473.8734875728      5.67e-08     00000 
   11    -473.8734875730      2.69e-08     00000 
   12    -473.8734875731      1.09e-08     00000 
   13    -473.8734875731      3.35e-09     00000 Convergence criterion met
write pseudocanon occs and virts to disk
write pseudocanon orbital energies to disk
Timing for Total SCF: 2924.00s (wall), 5809.52s (cpu)
<S^2> of polarized wavefunction after polarization iterations 0.0000000000
relaxing scfmi constraint to allow all rotations in the entire AO span
Doing General SCFMI
 Exchange:     0.1670 Hartree-Fock + 1.0000 wB97X-V + LR-HF
 Correlation:  1.0000 wB97X-V
 Using Euler-Maclaurin-Lebedev (99,590) quadrature formula
 Nonlocal Correlation:  VV10 with C = 0.0100 and b = 6.00 and scale = 1.00000
 Grid used for NLC:  SG-1 standard quadrature
performing fock build at end of subrot_r(subrot) constructor so that all methods have access
<S^2> of polarized wavefunction before ct-allowed iterations 0.0000000000
Beginning iterations for the determination of the CT-Allowed wavefunction
Energy prior to optimization (guess energy) = -473.873487573064
Begin Timing: Total SCF Calculation
begin iterations for algorithm: DIIS         
the SCF tolerance is set to 1.00e-08
    1    -473.8734875731      2.34e-04     00000 
    2    -473.8802614247      4.06e-05     00000 
    3    -473.8805836619      1.94e-05     00000 
    4    -473.8806114149      9.00e-06     00000 
    5    -473.8806193599      2.29e-06     00000 
    6    -473.8806198714      8.42e-07     00000 
    7    -473.8806199686      3.60e-07     00000 
    8    -473.8806199826      6.74e-08     00000 
    9    -473.8806199836      2.99e-08     00000 
   10    -473.8806199838      1.02e-08     00000 
   11    -473.8806199838      3.00e-09     00000 Convergence criterion met
write pseudocanon occs and virts to disk
write pseudocanon orbital energies to disk
Timing for Total SCF: 2451.00s (wall), 4871.74s (cpu)
<S^2> of ct_allowed wavefunction after ct-allowed iterations 0.0000000000

================================
        Results of EDA2         
================================
Basic EDA Quantities
--------------------
Fragment Energies (Ha):
1 -245.2018866148
2 -228.6593674771
--------------------
  E_prp (kJ/mol) = -0.0000
  E_sol (kJ/mol) = 416.7938
  E_frz (kJ/mol) = -420.6084
  E_pol (kJ/mol) = -6.1301
  E_vct (kJ/mol) = -18.7264
  E_int (kJ/mol) = -28.6710
--------------------


Initial Wavefunction Decomposition
--------------------
  --------------------
  Orthogonal Fragment Subspace Decomposition:
  --------------------
     E_elec   (ELEC)   (kJ/mol) = -545.1458
     E_pauli  (PAULI)  (kJ/mol) = 145.9120
     E_disp   (DISP)   (kJ/mol) = -21.3747
     --------------------
     Terms summing to E_pauli:
     --------------------
        E_kep_pauli       (kJ/mol) = 176.9970
        E_disp_free_pauli (kJ/mol) = -31.0849
  --------------------
  Classical Frozen Decomposition:
  --------------------
     E_cls_elec  (CLS ELEC)  (kJ/mol) = -490.7889
     E_cls_pauli (CLS PAULI) (kJ/mol) = 70.1805
    [E_mod_pauli (MOD PAULI) (kJ/mol) = 91.5552 (CLS PAULI - DISP from orthogonal decomposition) ]
  --------------------
--------------------

Simplified EDA Summary (kJ/mol)
--------------------
 PREPARATION     -0.0000
 SOLVATION       416.7938
 FROZEN          -399.2337      (does not include dispersion)
[PAULI           145.9120]     (if this is negligible, then frozen describes electrostatics)
 DISPERSION      -21.3747
 POLARIZATION    -6.1301
 CHARGE TRANSFER -18.7264
 TOTAL           -28.6710     (PRP + SOL + FRZ + DISP + POL + CT)
--------------------
 
 --------------------------------------------------------------
 
                    Orbital Energies (a.u.)
 --------------------------------------------------------------
 
 Alpha MOs
 -- Occupied --
-19.1600 -19.1596 -14.4462 -14.4414 -14.4248 -10.4112 -10.3597 -10.3024
-10.2493  -1.1753  -1.1645  -1.0738  -1.0464  -1.0317  -0.8466  -0.8447
 -0.7577  -0.7118  -0.6780  -0.6300  -0.6077  -0.5975  -0.5865  -0.5645
 -0.5529  -0.5526  -0.5439  -0.5193  -0.5022  -0.4855  -0.4677  -0.3925
 -0.3736  -0.3695  -0.3601  -0.3515
 -- Virtual --
  0.0577   0.0778   0.0837   0.0937   0.1041   0.1067   0.1141   0.1263
  0.1280   0.1370   0.1408   0.1415   0.1515   0.1547   0.1670   0.1726
  0.1842   0.1887   0.1918   0.1977   0.2061   0.2182   0.2247   0.2331
  0.2370   0.2392   0.2491   0.2560   0.2597   0.2641   0.2681   0.2745
  0.2815   0.2837   0.2923   0.3007   0.3097   0.3106   0.3191   0.3227
  0.3331   0.3366   0.3377   0.3416   0.3455   0.3459   0.3521   0.3557
  0.3621   0.3635   0.3674   0.3704   0.3811   0.3846   0.3878   0.3923
  0.3965   0.4059   0.4073   0.4201   0.4262   0.4294   0.4358   0.4469
  0.4510   0.4557   0.4570   0.4609   0.4666   0.4736   0.4782   0.4831
  0.4888   0.4978   0.4994   0.5045   0.5133   0.5165   0.5168   0.5285
  0.5344   0.5355   0.5441   0.5492   0.5561   0.5584   0.5668   0.5709
  0.5754   0.5794   0.5869   0.5917   0.6049   0.6066   0.6111   0.6261
  0.6315   0.6373   0.6477   0.6591   0.6613   0.6671   0.6778   0.6834
  0.6930   0.6995   0.7097   0.7155   0.7214   0.7273   0.7320   0.7461
  0.7503   0.7573   0.7696   0.7722   0.7810   0.7883   0.7995   0.8029
  0.8112   0.8149   0.8231   0.8303   0.8418   0.8518   0.8537   0.8633
  0.8695   0.8782   0.8881   0.8940   0.8965   0.9115   0.9252   0.9356
  0.9489   0.9653   0.9711   0.9828   0.9899   0.9953   1.0139   1.0241
  1.0312   1.0424   1.0563   1.0638   1.0670   1.0825   1.0973   1.1054
  1.1134   1.1243   1.1400   1.1508   1.1588   1.1731   1.1976   1.1989
  1.2165   1.2326   1.2445   1.2639   1.2764   1.2860   1.3011   1.3190
  1.3267   1.3417   1.3545   1.3697   1.3857   1.4114   1.4303   1.4461
  1.4569   1.4879   1.5146   1.5265   1.5350   1.5979   1.6405   1.6534
  1.6657   1.6960   1.7186   1.7435   1.7453   1.7578   1.7820   1.8194
  1.8578   1.8618   1.8829   1.8901   1.8959   1.9161   1.9219   1.9281
  1.9408   1.9464   1.9512   1.9598   1.9776   1.9916   2.0030   2.0273
  2.0358   2.0495   2.0687   2.0846   2.1058   2.1208   2.1328   2.1609
  2.1732   2.1755   2.2055   2.2254   2.2427   2.2530   2.2640   2.2832
  2.3214   2.3302   2.3404   2.3690   2.3849   2.3950   2.4288   2.4413
  2.4625   2.4797   2.5001   2.5049   2.5192   2.5291   2.5594   2.5823
  2.5939   2.6239   2.6322   2.6370   2.6427   2.6654   2.6874   2.7102
  2.7140   2.7300   2.7610   2.7812   2.8181   2.8262   2.8483   2.8573
  2.8624   2.8913   2.9247   2.9364   2.9432   2.9558   2.9690   2.9854
  3.0104   3.0371   3.0756   3.0893   3.1519   3.1709   3.1789   3.1957
  3.2125   3.2284   3.2364   3.2442   3.2759   3.2895   3.3025   3.3103
  3.3325   3.3359   3.3434   3.3545   3.3563   3.3723   3.3992   3.4130
  3.4206   3.4268   3.4503   3.4549   3.4677   3.4919   3.5079   3.5266
  3.5487   3.5853   3.5910   3.6099   3.6191   3.6370   3.6660   3.6793
  3.6877   3.7218   3.7403   3.7533   3.7896   3.8200   3.8636   3.8748
  3.9533   3.9619   3.9950   4.0494   4.0801   4.1008   4.1331   4.1677
  4.1958   4.2560   4.3084   4.3488   4.3520   4.3725   4.4359   4.4851
  4.5421   4.5493   4.6062   4.6428   4.6531   4.6690   4.6823   4.8162
  4.8483   4.8662   4.8799   4.9318   4.9862   5.0086   5.0386   5.0522
  5.0925   5.1308   5.1595   5.1650   5.1980   5.2118   5.2496   5.2942
  5.3229   5.3322   5.3452   5.3603   5.3849   5.4204   5.4314   5.4645
  5.4738   5.5132   5.5397   5.5724   5.6049   5.6871   5.7289   5.7382
  5.7457   5.7920   5.8114   5.8381   5.9216   6.0183   6.1761   6.2209
  6.2283   6.3190   6.3507   6.3842   6.5043   6.6179   6.6599   6.7215
  6.7483   6.8281   6.9633   6.9907   7.0182   7.2383   7.3319   7.4152
  7.4315  22.6066  22.6909  23.7215  23.7505  32.4006  32.5440  32.9318
 44.2350  44.3586
 --------------------------------------------------------------
 
          Ground-State Mulliken Net Atomic Charges

     Atom                 Charge (a.u.)
  ----------------------------------------
      1 C                    -0.855343
      2 C                     0.366669
      3 N                     0.045683
      4 N                    -0.186989
      5 N                    -0.277174
      6 H                     0.192018
      7 H                     0.315346
      8 H                     0.287069
      9 H                     0.156707
     10 H                     0.286158
     11 H                     0.207310
     12 H                     0.245802
     13 H                     0.270868
     14 C                    -0.826587
     15 C                     0.657963
     16 O                    -0.765003
     17 O                    -0.830889
     18 H                     0.236576
     19 H                     0.213753
     20 H                     0.260063
  ----------------------------------------
  Sum of atomic charges =     0.000000

 -----------------------------------------------------------------
                    Cartesian Multipole Moments
 -----------------------------------------------------------------
    Charge (ESU x 10^10)
                 0.0000
    Dipole Moment (Debye)
         X      -5.2580      Y      -1.6295      Z     -12.8135
       Tot      13.9459
    Quadrupole Moments (Debye-Ang)
        XX     -50.3191     XY      -4.9098     YY     -54.9977
        XZ       6.0595     YZ       5.5155     ZZ     -34.6600
    Octopole Moments (Debye-Ang^2)
       XXX     -46.3423    XXY      -4.6343    XYY       4.4322
       YYY      -0.3290    XXZ     -31.5986    XYZ       8.5510
       YYZ      -4.8750    XZZ      -0.6316    YZZ     -16.7539
       ZZZ    -107.2942
    Hexadecapole Moments (Debye-Ang^3)
      XXXX    -779.1636   XXXY     -56.7834   XXYY    -165.3357
      XYYY     -29.6807   YYYY    -186.9526   XXXZ    -319.2887
      XXYZ     -49.3428   XYYZ    -117.7452   YYYZ    -152.9250
      XXZZ    -325.3493   XYZZ     -20.0750   YYZZ    -271.3776
      XZZZ    -262.6457   YZZZ     -87.5743   ZZZZ   -1226.8641
 -----------------------------------------------------------------
Archival summary:
1\1\nid00557\SP\ProcedureUnspecified\BasisUnspecified\23411\meili\SunSep2618:45:522021SunSep2618:45:522021\0\\#,ProcedureUnspecified,BasisUnspecified,\\0,1\N\H,1,1.0163\C,1,1.32293,2,116.473\N,3,1.3163,1,120.065,2,4.71267,0\H,4,1.00502,3,119.526,1,-173.493,0\H,4,1.02616,3,118.439,1,-18.0705,0\N,3,1.31953,1,120.342,2,-175.497,0\H,7,1.00594,3,120.239,1,3.34338,0\H,7,1.00811,3,120.702,1,179.535,0\C,1,1.46781,2,119.101,3,-175.468,0\H,10,1.09226,1,109.64,2,105.353,0\H,10,1.09387,1,109.748,2,-135.364,0\H,10,1.1,1,112.225,2,-15.4688,0\O,6,1.83375,4,152.051,3,-114.945,0\C,14,1.2501,6,105.504,4,162.029,0\O,15,1.25049,14,122.645,6,-13.2617,0\C,15,1.51721,14,118.682,6,167.568,0\H,17,1.09159,15,108.098,14,75.4292,0\H,17,1.09264,15,108.971,14,-167.24,0\H,17,1.1,15,112.52,14,-45.3735,0\\\@

 Total job time:  26410.61s(wall), 17969.12s(cpu) 
 Sun Sep 26 18:45:54 2021

        *************************************************************
        *                                                           *
        *  Thank you very much for using Q-Chem.  Have a nice day.  *
        *                                                           *
        *************************************************************


