
Running Job 1 of 1 SSI-012ASP-069TYR-1_SMD_TZVPD.in
qchem SSI-012ASP-069TYR-1_SMD_TZVPD.in_17373.0 /tmp/qchem17373/ 0
/global/common/cori/software/qchem/5.2/exe/qcprog.exe_s SSI-012ASP-069TYR-1_SMD_TZVPD.in_17373.0 /tmp/qchem17373/
                  Welcome to Q-Chem
     A Quantum Leap Into The Future Of Chemistry


 Q-Chem 5.2, Q-Chem, Inc., Pleasanton, CA (2019)

 License issued to: National Energy Research Scientific Computing Center

 Yihan Shao,  Zhengting Gan,  E. Epifanovsky,  A. T. B. Gilbert,  M. Wormit,  
 J. Kussmann,  A. W. Lange,  A. Behn,  Jia Deng,  Xintian Feng,  D. Ghosh,  
 M. Goldey,  P. R. Horn,  L. D. Jacobson,  I. Kaliman,  T. Kus,  A. Landau,  
 Jie Liu,  E. I. Proynov,  R. M. Richard,  R. P. Steele,  E. J. Sundstrom,  
 H. L. Woodcock III,  P. M. Zimmerman,  D. Zuev,  B. Albrecht,  E. Alguire,  
 S. A. Baeppler,  D. Barton,  Z. Benda,  Y. A. Bernard,  E. J. Berquist,  
 K. B. Bravaya,  H. Burton,  D. Casanova,  Chun-Min Chang,  Yunqing Chen,  
 A. Chien,  K. D. Closser,  M. P. Coons,  S. Coriani,  S. Dasgupta,  
 A. L. Dempwolff,  M. Diedenhofen,  Hainam Do,  R. G. Edgar,  Po-Tung Fang,  
 S. Faraji,  S. Fatehi,  Qingguo Feng,  K. D. Fenk,  J. Fosso-Tande,  
 J. Gayvert,  Qinghui Ge,  A. Ghysels,  G. Gidofalvi,  J. Gomes,  
 J. Gonthier,  A. Gunina,  D. Hait,  M. W. D. Hanson-Heine,  
 P. H. P. Harbach,  A. W. Hauser,  M. F. Herbst,  J. E. Herr,  
 E. G. Hohenstein,  Z. C. Holden,  Kerwin Hui,  B. C. Huynh,  T.-C. Jagau,  
 Hyunjun Ji,  B. Kaduk,  K. Khistyaev,  Jaehoon Kim,  P. Klunzinger,  K. Koh,  
 D. Kosenkov,  L. Koulias,  T. Kowalczyk,  C. M. Krauter,  A. Kunitsa,  
 Ka Un Lao,  A. Laurent,  K. V. Lawler,  Joonho Lee,  D. Lefrancois,  
 S. Lehtola,  D. S. Levine,  Yi-Pei Li,  You-Sheng Lin,  Fenglai Liu,  
 E. Livshits,  A. Luenser,  P. Manohar,  E. Mansoor,  S. F. Manzer,  
 Shan-Ping Mao,  Yuezhi Mao,  N. Mardirossian,  A. V. Marenich,  
 T. Markovich,  L. A. Martinez-Martinez,  S. A. Maurer,  N. J. Mayhall,  
 S. C. McKenzie,  J.-M. Mewes,  P. Morgante,  A. F. Morrison,  
 J. W. Mullinax,  K. Nanda,  T. S. Nguyen-Beck,  R. Olivares-Amaya,  
 J. A. Parkhill,  Zheng Pei,  T. M. Perrine,  F. Plasser,  P. Pokhilko,  
 S. Prager,  A. Prociuk,  E. Ramos,  D. R. Rehn,  F. Rob,  M. Scheurer,  
 M. Schneider,  N. Sergueev,  S. M. Sharada,  S. Sharma,  D. W. Small,  
 T. Stauch,  T. Stein,  Yu-Chuan Su,  A. J. W. Thom,  A. Tkatchenko,  
 T. Tsuchimochi,  N. M. Tubman,  L. Vogt,  M. L. Vidal,  O. Vydrov,  
 M. A. Watson,  J. Wenzel,  M. de Wergifosse,  T. A. Wesolowski,  A. White,  
 J. Witte,  A. Yamada,  Jun Yang,  K. Yao,  S. Yeganeh,  S. R. Yost,  
 Zhi-Qiang You,  A. Zech,  Igor Ying Zhang,  Xing Zhang,  Yan Zhao,  
 Ying Zhu,  B. R. Brooks,  G. K. L. Chan,  C. J. Cramer,  M. S. Gordon,  
 W. J. Hehre,  A. Klamt,  M. W. Schmidt,  C. D. Sherrill,  D. G. Truhlar,  
 A. Aspuru-Guzik,  R. Baer,  A. T. Bell,  N. A. Besley,  Jeng-Da Chai,  
 A. E. DePrince, III,  R. A. DiStasio Jr.,  A. Dreuw,  B. D. Dunietz,  
 T. R. Furlani,  Chao-Ping Hsu,  Yousung Jung,  Jing Kong,  D. S. Lambrecht,  
 WanZhen Liang,  C. Ochsenfeld,  V. A. Rassolov,  L. V. Slipchenko,  
 J. E. Subotnik,  T. Van Voorhis,  J. M. Herbert,  A. I. Krylov,  
 P. M. W. Gill,  M. Head-Gordon

 Contributors to earlier versions of Q-Chem not listed above: 
 R. D. Adamson,  B. Austin,  J. Baker,  G. J. O. Beran,  K. Brandhorst,  
 S. T. Brown,  E. F. C. Byrd,  A. K. Chakraborty,  C.-L. Cheng,  
 Siu Hung Chien,  D. M. Chipman,  D. L. Crittenden,  H. Dachsel,  
 R. J. Doerksen,  A. D. Dutoi,  L. Fusti-Molnar,  W. A. Goddard III,  
 A. Golubeva-Zadorozhnaya,  S. R. Gwaltney,  G. Hawkins,  A. Heyden,  
 S. Hirata,  G. Kedziora,  F. J. Keil,  C. Kelley,  Jihan Kim,  R. A. King,  
 R. Z. Khaliullin,  P. P. Korambath,  W. Kurlancheek,  A. M. Lee,  M. S. Lee,  
 S. V. Levchenko,  Ching Yeh Lin,  D. Liotard,  R. C. Lochan,  I. Lotan,  
 P. E. Maslen,  N. Nair,  D. P. O'Neill,  D. Neuhauser,  E. Neuscamman,  
 C. M. Oana,  R. Olson,  B. Peters,  R. Peverati,  P. A. Pieniazek,  
 Y. M. Rhee,  J. Ritchie,  M. A. Rohrdanz,  E. Rosta,  N. J. Russ,  
 H. F. Schaefer III,  N. E. Schultz,  N. Shenvi,  A. C. Simmonett,  A. Sodt,  
 D. Stuck,  K. S. Thanthiriwatte,  V. Vanovschi,  Tao Wang,  A. Warshel,  
 C. F. Williams,  Q. Wu,  X. Xu,  W. Zhang

 Please cite Q-Chem as follows:
 Y. Shao et al., Mol. Phys. 113, 184-215 (2015)
 DOI: 10.1080/00268976.2014.952696

 Q-Chem 5.2.0 for Intel X86 EM64T Linux

 Parts of Q-Chem use Armadillo 8.300.2 (Tropical Shenanigans).
 http://arma.sourceforge.net/

 Q-Chem begins on Sun Sep 26 02:54:22 2021  

Host: cori01
0

     Scratch files written to /tmp/qchem17373//
 May1019 |scratch|qcdevops|jenkins|workspace|build_RNUM -1
Processing $rem in /global/common/cori/software/qchem/5.2/config/preferences:
	 MEM_TOTAL  96000 
NAlpha2: 98
NElect   98
Mult     1
Symmetry turned off for PCM/SM12/SMD calculation

 Q-Chem warning in module libgen/rem_setup.C, line 2803:

 Neither GIA nor STOLL is specified by user. Use STOLL as the default


Checking the input file for inconsistencies... 	...done.

--------------------------------------------------------------
User input:
--------------------------------------------------------------
$comment
SSI-012ASP-069TYR-1.pdb
$end

$molecule
-1 1
--
-1 1
C   -0.682336749400    2.907232976637   -0.665663603258
C   -1.198336749400    4.350232976637   -0.662663603258
C    0.608663250600    2.740232976637    0.096336396742
O    1.679663250600    3.042232976637   -0.474663603258
O    0.555663250600    2.274232976637    1.244336396742
H   -1.459336749400    2.265232976637   -0.253663603258
H   -0.494336749400    2.568232976637   -1.675663603258
H   -1.538336749400    4.574232976637    0.349336396742
H   -2.030981749400    4.435010976637   -1.376467603258
H   -0.409793749400    5.073063976637   -0.919012603258
--
0 1
C   -0.883336749400   -3.961767023363   -2.070663603258
C   -0.768336749400   -0.830767023363    0.130336396742
C    0.218663250600   -1.188767023363    1.053336396742
C   -1.134336749400   -1.723767023363   -0.879663603258
C   -0.530336749400   -2.984767023363   -0.970663603258
C    0.831663250600   -2.441767023363    0.965336396742
C    0.449663250600   -3.330767023363   -0.033663603258
O    0.589663250600   -0.298767023363    2.023336396742
H   -1.250336749400    0.128232976637    0.218336396742
H   -1.875336749400   -1.413767023363   -1.592663603258
H    1.591663250600   -2.725767023363    1.680336396742
H    1.266663250600   -0.652767023363    2.605336396742
H   -0.489336749400   -4.952767023363   -1.833663603258
H   -0.348336749400   -3.614767023363   -2.956663603258
H    0.928663250600   -4.300767023363   -0.089663603258
H   -1.952831749400   -4.044207023363   -2.314354603258
$end

$rem
JOBTYPE			EDA
EDA2			1
method			wB97X-V
BASIS			def2-TZVPD
XC_GRID			000099000590
NL_GRID			1
UNRESTRICTED		FALSE
MAX_SCF_CYCLES		200
SYMMETRY		FALSE
SYM_IGNORE		TRUE
MEM_STATIC		2000
BASIS_LIN_DEP_THRESH 	6
THRESH 			14
SCF_CONVERGENCE 	8
SCF_PRINT_FRGM 		TRUE
SOLVENT_METHOD          SMD
$end

$SMX
SOLVENT			WATER
$END
--------------------------------------------------------------
 ----------------------------------------------------------------
             Standard Nuclear Orientation (Angstroms)
    I     Atom           X                Y                Z
 ----------------------------------------------------------------
    1      C      -0.6823367494     2.9072329766    -0.6656636033
    2      C      -1.1983367494     4.3502329766    -0.6626636033
    3      C       0.6086632506     2.7402329766     0.0963363967
    4      O       1.6796632506     3.0422329766    -0.4746636033
    5      O       0.5556632506     2.2742329766     1.2443363967
    6      H      -1.4593367494     2.2652329766    -0.2536636033
    7      H      -0.4943367494     2.5682329766    -1.6756636033
    8      H      -1.5383367494     4.5742329766     0.3493363967
    9      H      -2.0309817494     4.4350109766    -1.3764676033
   10      H      -0.4097937494     5.0730639766    -0.9190126033
   11      C      -0.8833367494    -3.9617670234    -2.0706636033
   12      C      -0.7683367494    -0.8307670234     0.1303363967
   13      C       0.2186632506    -1.1887670234     1.0533363967
   14      C      -1.1343367494    -1.7237670234    -0.8796636033
   15      C      -0.5303367494    -2.9847670234    -0.9706636033
   16      C       0.8316632506    -2.4417670234     0.9653363967
   17      C       0.4496632506    -3.3307670234    -0.0336636033
   18      O       0.5896632506    -0.2987670234     2.0233363967
   19      H      -1.2503367494     0.1282329766     0.2183363967
   20      H      -1.8753367494    -1.4137670234    -1.5926636033
   21      H       1.5916632506    -2.7257670234     1.6803363967
   22      H       1.2666632506    -0.6527670234     2.6053363967
   23      H      -0.4893367494    -4.9527670234    -1.8336636033
   24      H      -0.3483367494    -3.6147670234    -2.9566636033
   25      H       0.9286632506    -4.3007670234    -0.0896636033
   26      H      -1.9528317494    -4.0442070234    -2.3143546033
 ----------------------------------------------------------------
 Nuclear Repulsion Energy =         740.09188489 hartrees
 There are       49 alpha and       49 beta electrons
 Requested basis set is def2-TZVPD
 There are 237 shells and 607 basis functions

 Total QAlloc Memory Limit  96000 MB
 Mega-Array Size      1956 MB
 MEM_STATIC part      2000 MB
 
 Citation of the SMD model:
 Marenich, A.V.; Cramer, C.J.; Truhlar, D.G.
 J. Phys. Chem. B 2009, 113, 6378-6396.
 iSolventCode=           1
 Solvent: water                                                           
 
 vradii
            1           2           3           4           5           6
    1   1.8500000   1.8500000   1.8500000   1.5200000   1.5200000   1.2000000
            7           8           9          10          11          12
    1   1.2000000   1.2000000   1.2000000   1.2000000   1.8500000   1.8500000
           13          14          15          16          17          18
    1   1.8500000   1.8500000   1.8500000   1.8500000   1.8500000   1.5200000
           19          20          21          22          23          24
    1   1.2000000   1.2000000   1.2000000   1.2000000   1.2000000   1.2000000
           25          26
    1   1.2000000   1.2000000
 Changing PCM_VDW_RADII to SMD_RADIUS
 Discretize the solute cavity surface with Lebedev spheres
	Using 110 Lebedev grid points for each H atom
	Using 194 Lebedev grid points for other atoms
	Atomic van der Waals radii will be scaled by 1.20
 Remove points where switching function is < 1.0e-08
 Keep 1995 surface tesserae and discard 1957 interior tesserae
 Molecular Surface Area = 236.493 Angst**2
 A cutoff of  1.0D-14 yielded  23869 shell pairs
 There are    157885 function pairs (    199690 Cartesian)
 Smallest overlap matrix eigenvalue = 5.01E-07
 Linear dependence detected in AO basis
 Tighter screening thresholds may be required for diffuse basis sets
 Use S2THRESH > 14 and THRESH = 14 in case of SCF convergence issues
 Number of orthogonalized atomic orbitals = 605
 Maximum deviation from orthogonality = 3.391E-10

 Scale SEOQF with 1.000000e-01/1.000000e-01/1.000000e-01

 Standard Electronic Orientation quadrupole field applied
 Nucleus-field energy     =     0.0000000433 hartrees

 -----------------------------------------------------------------------
  General SCF calculation program by
  Eric Jon Sundstrom, Paul Horn, Yuezhi Mao, Dmitri Zuev, Alec White,
  David Stuck, Shaama M.S., Shane Yost, Joonho Lee, David Small,
  Daniel Levine, Susi Lehtola, Hugh Burton, Evgeny Epifanovsky
 -----------------------------------------------------------------------
================================================================
                 ALMO-EDA with the EDA2 driver                  
================================================================
 The second-generation ALMO-EDA (for DFT):                      
 P. R. Horn, Y. Mao and M. Head-Gordon, PCCP, 18, 23067 (2016)  
 Decomposition of the frozen energy:                            
 P. R. Horn, Y. Mao and M. Head-Gordon, JCP, 144, 114107 (2016) 
 FERF model for polarization:                                   
 P. R. Horn and M. Head-Gordon, JCP, 143, 114111 (2015)         
Using eda2 option set 1
Option set summary: Frozen orbital wavefunction, initial wavefunction decomposition, and nDQ polarization.
--------------------------------
Printing EDA Options
--------------------------------
eda_child_super_basis      0
fragmo_guess_mode          0
child_mp                   1
child_mp_orders            232
cls_elec                   1
cls_disp                   0
scfmi_mode                 1
scfmi_occs                 0
scfmi_virts                0
frz_relax                  0
frz_relax_method           0
dc_pen_start               0
dc_pen_conv                0
dc_pen_increment           0
dc_pen_steps               0
dc_pen_thresh_factor       0
dc_pen_pre_newton_thresh   0
frz_ortho_decomp           1
frz_ortho_decomp_conv      6
frgm_method                2
scfmi_freeze_ss            0
separate_rehyb             0
plot_diff_den              0
eda_nocv                   0
eda_vct_relax              1
disp_free_x                0
disp_free_c                0
eda_bsse                   0
eda_pct_a                  0
eda_covp                   0
--------------------------------
Attempting to make child job directory: /tmp/qchem17373//Frg1/
Attempting to make child job directory: /tmp/qchem17373//Frg2/
Creating input file /tmp/qchem17373/Frg1.input
using default PutDataFrgm: nothing
calling putenv with: QCSCRATCH=/tmp/qchem17373/ 
calling putenv with: QCLOCALSCR=/tmp/qchem17373/ 
Spawning Job For Fragment 0
                  Welcome to Q-Chem
     A Quantum Leap Into The Future Of Chemistry


 Q-Chem 5.2, Q-Chem, Inc., Pleasanton, CA (2019)

 License issued to: National Energy Research Scientific Computing Center

 Yihan Shao,  Zhengting Gan,  E. Epifanovsky,  A. T. B. Gilbert,  M. Wormit,  
 J. Kussmann,  A. W. Lange,  A. Behn,  Jia Deng,  Xintian Feng,  D. Ghosh,  
 M. Goldey,  P. R. Horn,  L. D. Jacobson,  I. Kaliman,  T. Kus,  A. Landau,  
 Jie Liu,  E. I. Proynov,  R. M. Richard,  R. P. Steele,  E. J. Sundstrom,  
 H. L. Woodcock III,  P. M. Zimmerman,  D. Zuev,  B. Albrecht,  E. Alguire,  
 S. A. Baeppler,  D. Barton,  Z. Benda,  Y. A. Bernard,  E. J. Berquist,  
 K. B. Bravaya,  H. Burton,  D. Casanova,  Chun-Min Chang,  Yunqing Chen,  
 A. Chien,  K. D. Closser,  M. P. Coons,  S. Coriani,  S. Dasgupta,  
 A. L. Dempwolff,  M. Diedenhofen,  Hainam Do,  R. G. Edgar,  Po-Tung Fang,  
 S. Faraji,  S. Fatehi,  Qingguo Feng,  K. D. Fenk,  J. Fosso-Tande,  
 J. Gayvert,  Qinghui Ge,  A. Ghysels,  G. Gidofalvi,  J. Gomes,  
 J. Gonthier,  A. Gunina,  D. Hait,  M. W. D. Hanson-Heine,  
 P. H. P. Harbach,  A. W. Hauser,  M. F. Herbst,  J. E. Herr,  
 E. G. Hohenstein,  Z. C. Holden,  Kerwin Hui,  B. C. Huynh,  T.-C. Jagau,  
 Hyunjun Ji,  B. Kaduk,  K. Khistyaev,  Jaehoon Kim,  P. Klunzinger,  K. Koh,  
 D. Kosenkov,  L. Koulias,  T. Kowalczyk,  C. M. Krauter,  A. Kunitsa,  
 Ka Un Lao,  A. Laurent,  K. V. Lawler,  Joonho Lee,  D. Lefrancois,  
 S. Lehtola,  D. S. Levine,  Yi-Pei Li,  You-Sheng Lin,  Fenglai Liu,  
 E. Livshits,  A. Luenser,  P. Manohar,  E. Mansoor,  S. F. Manzer,  
 Shan-Ping Mao,  Yuezhi Mao,  N. Mardirossian,  A. V. Marenich,  
 T. Markovich,  L. A. Martinez-Martinez,  S. A. Maurer,  N. J. Mayhall,  
 S. C. McKenzie,  J.-M. Mewes,  P. Morgante,  A. F. Morrison,  
 J. W. Mullinax,  K. Nanda,  T. S. Nguyen-Beck,  R. Olivares-Amaya,  
 J. A. Parkhill,  Zheng Pei,  T. M. Perrine,  F. Plasser,  P. Pokhilko,  
 S. Prager,  A. Prociuk,  E. Ramos,  D. R. Rehn,  F. Rob,  M. Scheurer,  
 M. Schneider,  N. Sergueev,  S. M. Sharada,  S. Sharma,  D. W. Small,  
 T. Stauch,  T. Stein,  Yu-Chuan Su,  A. J. W. Thom,  A. Tkatchenko,  
 T. Tsuchimochi,  N. M. Tubman,  L. Vogt,  M. L. Vidal,  O. Vydrov,  
 M. A. Watson,  J. Wenzel,  M. de Wergifosse,  T. A. Wesolowski,  A. White,  
 J. Witte,  A. Yamada,  Jun Yang,  K. Yao,  S. Yeganeh,  S. R. Yost,  
 Zhi-Qiang You,  A. Zech,  Igor Ying Zhang,  Xing Zhang,  Yan Zhao,  
 Ying Zhu,  B. R. Brooks,  G. K. L. Chan,  C. J. Cramer,  M. S. Gordon,  
 W. J. Hehre,  A. Klamt,  M. W. Schmidt,  C. D. Sherrill,  D. G. Truhlar,  
 A. Aspuru-Guzik,  R. Baer,  A. T. Bell,  N. A. Besley,  Jeng-Da Chai,  
 A. E. DePrince, III,  R. A. DiStasio Jr.,  A. Dreuw,  B. D. Dunietz,  
 T. R. Furlani,  Chao-Ping Hsu,  Yousung Jung,  Jing Kong,  D. S. Lambrecht,  
 WanZhen Liang,  C. Ochsenfeld,  V. A. Rassolov,  L. V. Slipchenko,  
 J. E. Subotnik,  T. Van Voorhis,  J. M. Herbert,  A. I. Krylov,  
 P. M. W. Gill,  M. Head-Gordon

 Contributors to earlier versions of Q-Chem not listed above: 
 R. D. Adamson,  B. Austin,  J. Baker,  G. J. O. Beran,  K. Brandhorst,  
 S. T. Brown,  E. F. C. Byrd,  A. K. Chakraborty,  C.-L. Cheng,  
 Siu Hung Chien,  D. M. Chipman,  D. L. Crittenden,  H. Dachsel,  
 R. J. Doerksen,  A. D. Dutoi,  L. Fusti-Molnar,  W. A. Goddard III,  
 A. Golubeva-Zadorozhnaya,  S. R. Gwaltney,  G. Hawkins,  A. Heyden,  
 S. Hirata,  G. Kedziora,  F. J. Keil,  C. Kelley,  Jihan Kim,  R. A. King,  
 R. Z. Khaliullin,  P. P. Korambath,  W. Kurlancheek,  A. M. Lee,  M. S. Lee,  
 S. V. Levchenko,  Ching Yeh Lin,  D. Liotard,  R. C. Lochan,  I. Lotan,  
 P. E. Maslen,  N. Nair,  D. P. O'Neill,  D. Neuhauser,  E. Neuscamman,  
 C. M. Oana,  R. Olson,  B. Peters,  R. Peverati,  P. A. Pieniazek,  
 Y. M. Rhee,  J. Ritchie,  M. A. Rohrdanz,  E. Rosta,  N. J. Russ,  
 H. F. Schaefer III,  N. E. Schultz,  N. Shenvi,  A. C. Simmonett,  A. Sodt,  
 D. Stuck,  K. S. Thanthiriwatte,  V. Vanovschi,  Tao Wang,  A. Warshel,  
 C. F. Williams,  Q. Wu,  X. Xu,  W. Zhang

 Please cite Q-Chem as follows:
 Y. Shao et al., Mol. Phys. 113, 184-215 (2015)
 DOI: 10.1080/00268976.2014.952696

 Q-Chem 5.2.0 for Intel X86 EM64T Linux

 Parts of Q-Chem use Armadillo 8.300.2 (Tropical Shenanigans).
 http://arma.sourceforge.net/

 Q-Chem begins on Sun Sep 26 02:54:27 2021  

Host: cori01
0

     Scratch files written to /tmp/qchem17373//Frg1//
 May1019 |scratch|qcdevops|jenkins|workspace|build_RNUM -1
Processing $rem in /global/common/cori/software/qchem/5.2/config/preferences:
	 MEM_TOTAL  96000 
NAlpha2: 40
NElect   40
Mult     1
Symmetry turned off for PCM/SM12/SMD calculation

Checking the input file for inconsistencies... 	...done.

--------------------------------------------------------------
User input:
--------------------------------------------------------------
$molecule
-1 1
 6	-0.6823367494	2.9072329766	-0.6656636033
 6	-1.1983367494	4.3502329766	-0.6626636033
 6	0.6086632506	2.7402329766	0.0963363967
 8	1.6796632506	3.0422329766	-0.4746636033
 8	0.5556632506	2.2742329766	1.2443363967
 1	-1.4593367494	2.2652329766	-0.2536636033
 1	-0.4943367494	2.5682329766	-1.6756636033
 1	-1.5383367494	4.5742329766	0.3493363967
 1	-2.0309817494	4.4350109766	-1.3764676033
 1	-0.4097937494	5.0730639766	-0.9190126033
$end
$rem
EDA2		1
METHOD		WB97X-V
BASIS		DEF2-TZVPD
XC_GRID		000099000590
NL_GRID		1
UNRESTRICTED		FALSE
MAX_SCF_CYCLES		200
SYMMETRY		FALSE
SYM_IGNORE		TRUE
BASIS_LIN_DEP_THRESH		6
THRESH		14
SCF_CONVERGENCE		8
SCF_PRINT_FRGM		TRUE
SOLVENT_METHOD		SMD
!required keywords
JOBTYPE		SP
SYM_IGNORE		TRUE
SUBSYSTEM		TRUE
GEN_SCFMAN		TRUE
CHILD_INSTRUCTION		2
SYM_IGNORE		TRUE
SCFMI		0
RI_K 0		
PARI_K 0		
MIN_PARI_K 0		
IARI_K 0		
OCC_RI_K 0		
PURECART		1111
MEM_STATIC		2000
MEM_TOTAL		96000
GUI		0
CHILD_MP		1
CHILD_MP_ORDERS		232
FRZ_RELAX		0
FRZ_RELAX_METHOD		0
EDA_CLS_ELEC		1
EDA_CLS_DISP		0
FRZ_ORTHO_DECOMP		1
EDA2		FALSE
FRGM_METHOD		FALSE
CIS_N_ROOTS  0
LOCAL_CIS    0
CIS_RLX_DNS  1
$end
$smx
SOLVENT			WATER
$end
--------------------------------------------------------------
 ----------------------------------------------------------------
             Standard Nuclear Orientation (Angstroms)
    I     Atom           X                Y                Z
 ----------------------------------------------------------------
    1      C      -0.6823367494     2.9072329766    -0.6656636033
    2      C      -1.1983367494     4.3502329766    -0.6626636033
    3      C       0.6086632506     2.7402329766     0.0963363967
    4      O       1.6796632506     3.0422329766    -0.4746636033
    5      O       0.5556632506     2.2742329766     1.2443363967
    6      H      -1.4593367494     2.2652329766    -0.2536636033
    7      H      -0.4943367494     2.5682329766    -1.6756636033
    8      H      -1.5383367494     4.5742329766     0.3493363967
    9      H      -2.0309817494     4.4350109766    -1.3764676033
   10      H      -0.4097937494     5.0730639766    -0.9190126033
 ----------------------------------------------------------------
 Nuclear Repulsion Energy =         169.50983351 hartrees
 There are       20 alpha and       20 beta electrons
 Requested basis set is def2-TZVPD
 There are 92 shells and 236 basis functions

 Total QAlloc Memory Limit  96000 MB
 Mega-Array Size      1956 MB
 MEM_STATIC part      2000 MB
 
 Citation of the SMD model:
 Marenich, A.V.; Cramer, C.J.; Truhlar, D.G.
 J. Phys. Chem. B 2009, 113, 6378-6396.
 iSolventCode=           1
 Solvent: water                                                           
 
 vradii
            1           2           3           4           5           6
    1   1.8500000   1.8500000   1.8500000   1.5200000   1.5200000   1.2000000
            7           8           9          10
    1   1.2000000   1.2000000   1.2000000   1.2000000
 Changing PCM_VDW_RADII to SMD_RADIUS
 Discretize the solute cavity surface with Lebedev spheres
	Using 110 Lebedev grid points for each H atom
	Using 194 Lebedev grid points for other atoms
	Atomic van der Waals radii will be scaled by 1.20
 Remove points where switching function is < 1.0e-08
 Keep 832 surface tesserae and discard 688 interior tesserae
 Molecular Surface Area = 99.911 Angst**2

                       Distance Matrix (Angstroms)
             C (  1)   C (  2)   C (  3)   O (  4)   O (  5)   H (  6)
   C (  2)  1.532486
   C (  3)  1.508381  2.536421
   O (  4)  2.373552  3.166874  1.250714
   O (  5)  2.362506  3.320081  1.240108  2.192752
   H (  6)  1.088870  2.140707  2.150523  3.241279  2.510839
   H (  7)  1.081834  2.167328  2.094320  2.528508  3.116943  1.745027
   H (  8)  2.131162  1.090835  2.834991  3.658077  3.236643  2.387746
   H (  9)  2.158284  1.100001  3.465422  4.064722  4.269462  2.509064
   H ( 10)  2.197564  1.100000  2.740491  2.947465  3.666830  3.070528
             H (  7)   H (  8)   H (  9)
   H (  8)  3.035555
   H (  9)  2.436320  1.800134
   H ( 10)  2.617985  1.769506  1.801285
 
 A cutoff of  1.0D-14 yielded   4191 shell pairs
 There are     28055 function pairs (     35756 Cartesian)
 Smallest overlap matrix eigenvalue = 1.11E-05

 Scale SEOQF with 1.000000e-01/1.000000e-01/1.000000e-01

 Standard Electronic Orientation quadrupole field applied
 Nucleus-field energy     =     0.0000000278 hartrees
 Guess from superposition of atomic densities
 Warning:  Energy on first SCF cycle will be non-variational
 SAD guess density has 38.612942 electrons

 -----------------------------------------------------------------------
  General SCF calculation program by
  Eric Jon Sundstrom, Paul Horn, Yuezhi Mao, Dmitri Zuev, Alec White,
  David Stuck, Shaama M.S., Shane Yost, Joonho Lee, David Small,
  Daniel Levine, Susi Lehtola, Hugh Burton, Evgeny Epifanovsky
 -----------------------------------------------------------------------
 Exchange:     0.1670 Hartree-Fock + 1.0000 wB97X-V + LR-HF
 Correlation:  1.0000 wB97X-V
 Using Euler-Maclaurin-Lebedev (99,590) quadrature formula
 Nonlocal Correlation:  VV10 with C = 0.0100 and b = 6.00 and scale = 1.00000
 Grid used for NLC:  SG-1 standard quadrature
Energy prior to optimization (guess energy) = -267.079668308092
Begin Timing: Total SCF Calculation
begin iterations for algorithm: DIIS         
the SCF tolerance is set to 1.00e-08
    1    -267.0796683081      1.27e-02     00000 
    2    -263.2543239490      2.02e-02     00000 
    3    -267.8313512120      5.01e-03     00000 
    4    -267.9531747491      2.19e-03     00000 
    5    -267.9784263611      3.69e-04     00000 
    6    -267.9795389122      1.75e-04     00000 
    7    -267.9796717820      7.80e-05     00000 
    8    -267.9797023843      1.61e-05     00000 
    9    -267.9797044016      5.77e-06     00000 
   10    -267.9797047019      2.02e-06     00000 
   11    -267.9797047584      2.59e-07     00000 
   12    -267.9797047605      6.49e-08     00000 
   13    -267.9797047606      2.49e-08     00000 
   14    -267.9797047606      8.31e-09     00000 Convergence criterion met
Timing for Total SCF: 564.00s (wall), 1119.45s (cpu)
(3)  G-ENP(liq) elect-nuc-pol free energy of system     -267.979704761 a.u.
(4)  G-CDS(liq) cavity-dispersion-solvent structure 
     free energy                                                4.0735 kcal/mol
(6)  G-S(liq) free energy of system                     -267.973213201 a.u.
E_pcm = -0.1308697664
E_cds = 0.0064915598
Multipole orders to be included
        2
        3
computing dipole RHS
computing quadrupole RHS
total number of RHS in solve_reponses: 8
RHS batch sizes
        8
Beginning Block Conjugate Gradient Iterations. Batch Number: 0
computing hessian-vector products by finite difference
              1      6.48e-01     00000 Conjugate Gradient Iteration
computing hessian-vector products by finite difference
              2      2.01e-01     00000 Conjugate Gradient Iteration
computing hessian-vector products by finite difference
              3      5.57e-02     00000 Conjugate Gradient Iteration
computing hessian-vector products by finite difference
              4      1.45e-02     00000 Conjugate Gradient Iteration
computing hessian-vector products by finite difference
              5      2.13e-03     00000 Conjugate Gradient Iteration
computing hessian-vector products by finite difference
              6      4.95e-04     00000 Conjugate Gradient Iteration
computing hessian-vector products by finite difference
              7      7.34e-05     00000 Conjugate Gradient Iteration
computing hessian-vector products by finite difference
              8      9.52e-06     00000 Conjugate Gradient Iteration
computing hessian-vector products by finite difference
              9      1.53e-06     00000 Conjugate Gradient Iteration
computing hessian-vector products by finite difference
             10      2.32e-07     00000 Conjugate Gradient Iteration
computing hessian-vector products by finite difference
             11      2.94e-08     00000 Conjugate Gradient Iteration
computing hessian-vector products by finite difference
             12      6.11e-09     00000 CG Converged
batch 0 complete
Done Calculating Responses
TESTING ORTHOGONALIZATION OF MULTIPOLE BASIS
Multipole virts passed orthogonality test
Virts Per Order
           60
          100
 
 --------------------------------------------------------------
 
                    Orbital Energies (a.u.)
 --------------------------------------------------------------
 
 Alpha MOs
 -- Occupied --
-19.1522 -19.1510 -10.3471 -10.2507 -10.2469  -1.1680  -1.0672  -0.8904
 -0.7533  -0.6178  -0.5610  -0.5595  -0.5298  -0.5134  -0.4784  -0.4475
 -0.4379  -0.3649  -0.3518  -0.3439
 -- Virtual --
  0.0672   0.0927   0.0972   0.0992   0.1261   0.1362   0.1417   0.1489
  0.1505   0.1607   0.1877   0.1972   0.1997   0.2078   0.2193   0.2301
  0.2545   0.2633   0.2768   0.2912   0.2992   0.3056   0.3239   0.3364
  0.3427   0.3454   0.3541   0.3610   0.3651   0.3764   0.3814   0.3896
  0.4002   0.4066   0.4190   0.4238   0.4322   0.4455   0.4626   0.4641
  0.4818   0.4941   0.4965   0.5064   0.5140   0.5246   0.5264   0.5352
  0.5409   0.5521   0.5633   0.5803   0.5958   0.6133   0.6279   0.6383
  0.6631   0.6671   0.6713   0.6796   0.7040   0.7191   0.7276   0.7438
  0.7506   0.7646   0.7744   0.7923   0.8012   0.8058   0.8150   0.8196
  0.8358   0.8521   0.8676   0.8863   0.9001   0.9211   0.9666   1.0005
  1.0152   1.0490   1.0650   1.0680   1.1045   1.1495   1.1725   1.1981
  1.2354   1.2640   1.2831   1.2993   1.3223   1.3699   1.3856   1.4104
  1.4550   1.4748   1.5150   1.5836   1.6238   1.7566   1.8497   1.8568
  1.8761   1.8973   1.9010   1.9321   1.9487   1.9653   1.9838   1.9963
  2.0286   2.0538   2.0840   2.1155   2.1686   2.1922   2.2022   2.2340
  2.2776   2.3172   2.3540   2.3727   2.4514   2.4674   2.4921   2.5181
  2.5594   2.5738   2.6021   2.6406   2.6451   2.6867   2.7618   2.7984
  2.8406   2.8500   2.8750   2.8915   2.9200   2.9532   3.0299   3.0569
  3.1205   3.1457   3.2404   3.2530   3.2624   3.2879   3.3013   3.3458
  3.3819   3.3870   3.4218   3.4628   3.5124   3.5219   3.5556   3.5645
  3.5966   3.6054   3.6340   3.6580   3.6732   3.7167   3.7432   3.7579
  3.8186   3.8860   3.9752   4.0316   4.0859   4.1182   4.1706   4.2445
  4.2661   4.4671   4.5434   4.6038   4.6563   4.7291   4.8007   4.8094
  4.8476   4.9953   5.1046   5.3025   5.3310   5.3439   5.3533   5.4870
  5.7116   5.7513   5.8095   6.0110   6.2468   6.3211   6.3552   6.6086
  6.6195   6.6967   6.7348   6.7528   6.9604   6.9706   7.0331   7.2320
  7.3500   7.3764   7.4048  22.6169  22.7872  23.7977  44.2327  44.3826
 --------------------------------------------------------------
 
          Ground-State Mulliken Net Atomic Charges

     Atom                 Charge (a.u.)
  ----------------------------------------
      1 C                    -0.017758
      2 C                    -0.858481
      3 C                     0.386394
      4 O                    -0.793941
      5 O                    -0.770605
      6 H                     0.167230
      7 H                     0.193612
      8 H                     0.227786
      9 H                     0.214609
     10 H                     0.251153
  ----------------------------------------
  Sum of atomic charges =    -1.000000

 -----------------------------------------------------------------
                    Cartesian Multipole Moments
 -----------------------------------------------------------------
    Charge (ESU x 10^10)
                -4.8032
    Dipole Moment (Debye)
         X      -7.4263      Y     -12.5123      Z      -2.9388
       Tot      14.8440
    Quadrupole Moments (Debye-Ang)
        XX     -44.1942     XY     -21.3193     YY     -66.0478
        XZ       0.8192     YZ      -4.7409     ZZ     -39.5872
    Octopole Moments (Debye-Ang^2)
       XXX     -33.5670    XXY    -136.5432    XYY     -64.7486
       YYY    -397.4593    XXZ       6.9953    XYZ       4.8685
       YYZ      -0.4598    XZZ     -10.2906    YZZ    -117.8920
       ZZZ       4.0538
    Hexadecapole Moments (Debye-Ang^3)
      XXXX    -313.4625   XXXY     -54.4953   XXYY    -496.5769
      XYYY    -158.4362   YYYY   -2330.5211   XXXZ     -18.9448
      XXYZ      34.9628   XYYZ      10.3116   YYYZ      85.3666
      XXZZ     -77.4730   XYZZ     -14.4710   YYZZ    -408.4567
      XZZZ     -29.2743   YZZZ      57.6310   ZZZZ    -171.8072
 -----------------------------------------------------------------
Archival summary:
1\1\nid00557\SP\ProcedureUnspecified\BasisUnspecified\235(1-,1)\meili\SunSep2605:33:482021SunSep2605:33:482021\0\\#,ProcedureUnspecified,BasisUnspecified,\\-1,1\C\O,1,1.24011\O,1,1.25071,2,123.364\C,1,1.50838,2,118.208,3,177.878,0\H,4,1.08183,1,106.751,2,-137.055,0\H,4,1.08887,1,110.752,2,-20.9073,0\C,4,1.53249,1,113.044,2,100.847,0\H,7,1.09083,4,107.465,1,-70.2481,0\H,7,1.1,4,112.143,1,47.9741,0\H,7,1.1,4,109.037,1,169.951,0\\\@

 Total job time:  9562.21s(wall), 18888.53s(cpu) 
 Sun Sep 26 05:33:49 2021

        *************************************************************
        *                                                           *
        *  Thank you very much for using Q-Chem.  Have a nice day.  *
        *                                                           *
        *************************************************************


Done Job For Fragment 0
calling putenv with: QCSCRATCH=/global/cscratch1/sd/meili 
calling putenv with: QCLOCALSCR=/tmp 
calling putenv with: QCTHREADS=32 
Creating input file /tmp/qchem17373/Frg2.input
using default PutDataFrgm: nothing
calling putenv with: QCSCRATCH=/tmp/qchem17373/ 
calling putenv with: QCLOCALSCR=/tmp/qchem17373/ 
Spawning Job For Fragment 1
                  Welcome to Q-Chem
     A Quantum Leap Into The Future Of Chemistry


 Q-Chem 5.2, Q-Chem, Inc., Pleasanton, CA (2019)

 License issued to: National Energy Research Scientific Computing Center

 Yihan Shao,  Zhengting Gan,  E. Epifanovsky,  A. T. B. Gilbert,  M. Wormit,  
 J. Kussmann,  A. W. Lange,  A. Behn,  Jia Deng,  Xintian Feng,  D. Ghosh,  
 M. Goldey,  P. R. Horn,  L. D. Jacobson,  I. Kaliman,  T. Kus,  A. Landau,  
 Jie Liu,  E. I. Proynov,  R. M. Richard,  R. P. Steele,  E. J. Sundstrom,  
 H. L. Woodcock III,  P. M. Zimmerman,  D. Zuev,  B. Albrecht,  E. Alguire,  
 S. A. Baeppler,  D. Barton,  Z. Benda,  Y. A. Bernard,  E. J. Berquist,  
 K. B. Bravaya,  H. Burton,  D. Casanova,  Chun-Min Chang,  Yunqing Chen,  
 A. Chien,  K. D. Closser,  M. P. Coons,  S. Coriani,  S. Dasgupta,  
 A. L. Dempwolff,  M. Diedenhofen,  Hainam Do,  R. G. Edgar,  Po-Tung Fang,  
 S. Faraji,  S. Fatehi,  Qingguo Feng,  K. D. Fenk,  J. Fosso-Tande,  
 J. Gayvert,  Qinghui Ge,  A. Ghysels,  G. Gidofalvi,  J. Gomes,  
 J. Gonthier,  A. Gunina,  D. Hait,  M. W. D. Hanson-Heine,  
 P. H. P. Harbach,  A. W. Hauser,  M. F. Herbst,  J. E. Herr,  
 E. G. Hohenstein,  Z. C. Holden,  Kerwin Hui,  B. C. Huynh,  T.-C. Jagau,  
 Hyunjun Ji,  B. Kaduk,  K. Khistyaev,  Jaehoon Kim,  P. Klunzinger,  K. Koh,  
 D. Kosenkov,  L. Koulias,  T. Kowalczyk,  C. M. Krauter,  A. Kunitsa,  
 Ka Un Lao,  A. Laurent,  K. V. Lawler,  Joonho Lee,  D. Lefrancois,  
 S. Lehtola,  D. S. Levine,  Yi-Pei Li,  You-Sheng Lin,  Fenglai Liu,  
 E. Livshits,  A. Luenser,  P. Manohar,  E. Mansoor,  S. F. Manzer,  
 Shan-Ping Mao,  Yuezhi Mao,  N. Mardirossian,  A. V. Marenich,  
 T. Markovich,  L. A. Martinez-Martinez,  S. A. Maurer,  N. J. Mayhall,  
 S. C. McKenzie,  J.-M. Mewes,  P. Morgante,  A. F. Morrison,  
 J. W. Mullinax,  K. Nanda,  T. S. Nguyen-Beck,  R. Olivares-Amaya,  
 J. A. Parkhill,  Zheng Pei,  T. M. Perrine,  F. Plasser,  P. Pokhilko,  
 S. Prager,  A. Prociuk,  E. Ramos,  D. R. Rehn,  F. Rob,  M. Scheurer,  
 M. Schneider,  N. Sergueev,  S. M. Sharada,  S. Sharma,  D. W. Small,  
 T. Stauch,  T. Stein,  Yu-Chuan Su,  A. J. W. Thom,  A. Tkatchenko,  
 T. Tsuchimochi,  N. M. Tubman,  L. Vogt,  M. L. Vidal,  O. Vydrov,  
 M. A. Watson,  J. Wenzel,  M. de Wergifosse,  T. A. Wesolowski,  A. White,  
 J. Witte,  A. Yamada,  Jun Yang,  K. Yao,  S. Yeganeh,  S. R. Yost,  
 Zhi-Qiang You,  A. Zech,  Igor Ying Zhang,  Xing Zhang,  Yan Zhao,  
 Ying Zhu,  B. R. Brooks,  G. K. L. Chan,  C. J. Cramer,  M. S. Gordon,  
 W. J. Hehre,  A. Klamt,  M. W. Schmidt,  C. D. Sherrill,  D. G. Truhlar,  
 A. Aspuru-Guzik,  R. Baer,  A. T. Bell,  N. A. Besley,  Jeng-Da Chai,  
 A. E. DePrince, III,  R. A. DiStasio Jr.,  A. Dreuw,  B. D. Dunietz,  
 T. R. Furlani,  Chao-Ping Hsu,  Yousung Jung,  Jing Kong,  D. S. Lambrecht,  
 WanZhen Liang,  C. Ochsenfeld,  V. A. Rassolov,  L. V. Slipchenko,  
 J. E. Subotnik,  T. Van Voorhis,  J. M. Herbert,  A. I. Krylov,  
 P. M. W. Gill,  M. Head-Gordon

 Contributors to earlier versions of Q-Chem not listed above: 
 R. D. Adamson,  B. Austin,  J. Baker,  G. J. O. Beran,  K. Brandhorst,  
 S. T. Brown,  E. F. C. Byrd,  A. K. Chakraborty,  C.-L. Cheng,  
 Siu Hung Chien,  D. M. Chipman,  D. L. Crittenden,  H. Dachsel,  
 R. J. Doerksen,  A. D. Dutoi,  L. Fusti-Molnar,  W. A. Goddard III,  
 A. Golubeva-Zadorozhnaya,  S. R. Gwaltney,  G. Hawkins,  A. Heyden,  
 S. Hirata,  G. Kedziora,  F. J. Keil,  C. Kelley,  Jihan Kim,  R. A. King,  
 R. Z. Khaliullin,  P. P. Korambath,  W. Kurlancheek,  A. M. Lee,  M. S. Lee,  
 S. V. Levchenko,  Ching Yeh Lin,  D. Liotard,  R. C. Lochan,  I. Lotan,  
 P. E. Maslen,  N. Nair,  D. P. O'Neill,  D. Neuhauser,  E. Neuscamman,  
 C. M. Oana,  R. Olson,  B. Peters,  R. Peverati,  P. A. Pieniazek,  
 Y. M. Rhee,  J. Ritchie,  M. A. Rohrdanz,  E. Rosta,  N. J. Russ,  
 H. F. Schaefer III,  N. E. Schultz,  N. Shenvi,  A. C. Simmonett,  A. Sodt,  
 D. Stuck,  K. S. Thanthiriwatte,  V. Vanovschi,  Tao Wang,  A. Warshel,  
 C. F. Williams,  Q. Wu,  X. Xu,  W. Zhang

 Please cite Q-Chem as follows:
 Y. Shao et al., Mol. Phys. 113, 184-215 (2015)
 DOI: 10.1080/00268976.2014.952696

 Q-Chem 5.2.0 for Intel X86 EM64T Linux

 Parts of Q-Chem use Armadillo 8.300.2 (Tropical Shenanigans).
 http://arma.sourceforge.net/

 Q-Chem begins on Sun Sep 26 05:33:51 2021  

Host: cori01
0

     Scratch files written to /tmp/qchem17373//Frg2//
 May1019 |scratch|qcdevops|jenkins|workspace|build_RNUM -1
Processing $rem in /global/common/cori/software/qchem/5.2/config/preferences:
	 MEM_TOTAL  96000 
NAlpha2: 58
NElect   58
Mult     1
Symmetry turned off for PCM/SM12/SMD calculation

Checking the input file for inconsistencies... 	...done.

--------------------------------------------------------------
User input:
--------------------------------------------------------------
$molecule
0 1
 6	-0.8833367494	-3.9617670234	-2.0706636033
 6	-0.7683367494	-0.8307670234	0.1303363967
 6	0.2186632506	-1.1887670234	1.0533363967
 6	-1.1343367494	-1.7237670234	-0.8796636033
 6	-0.5303367494	-2.9847670234	-0.9706636033
 6	0.8316632506	-2.4417670234	0.9653363967
 6	0.4496632506	-3.3307670234	-0.0336636033
 8	0.5896632506	-0.2987670234	2.0233363967
 1	-1.2503367494	0.1282329766	0.2183363967
 1	-1.8753367494	-1.4137670234	-1.5926636033
 1	1.5916632506	-2.7257670234	1.6803363967
 1	1.2666632506	-0.6527670234	2.6053363967
 1	-0.4893367494	-4.9527670234	-1.8336636033
 1	-0.3483367494	-3.6147670234	-2.9566636033
 1	0.9286632506	-4.3007670234	-0.0896636033
 1	-1.9528317494	-4.0442070234	-2.3143546033
$end
$rem
EDA2		1
METHOD		WB97X-V
BASIS		DEF2-TZVPD
XC_GRID		000099000590
NL_GRID		1
UNRESTRICTED		FALSE
MAX_SCF_CYCLES		200
SYMMETRY		FALSE
SYM_IGNORE		TRUE
BASIS_LIN_DEP_THRESH		6
THRESH		14
SCF_CONVERGENCE		8
SCF_PRINT_FRGM		TRUE
SOLVENT_METHOD		SMD
!required keywords
JOBTYPE		SP
SYM_IGNORE		TRUE
SUBSYSTEM		TRUE
GEN_SCFMAN		TRUE
CHILD_INSTRUCTION		2
SYM_IGNORE		TRUE
SCFMI		0
RI_K 0		
PARI_K 0		
MIN_PARI_K 0		
IARI_K 0		
OCC_RI_K 0		
PURECART		1111
MEM_STATIC		2000
MEM_TOTAL		96000
GUI		0
CHILD_MP		1
CHILD_MP_ORDERS		232
FRZ_RELAX		0
FRZ_RELAX_METHOD		0
EDA_CLS_ELEC		1
EDA_CLS_DISP		0
FRZ_ORTHO_DECOMP		1
EDA2		FALSE
FRGM_METHOD		FALSE
CIS_N_ROOTS  0
LOCAL_CIS    0
CIS_RLX_DNS  1
$end
$smx
SOLVENT			WATER
$end
--------------------------------------------------------------
 ----------------------------------------------------------------
             Standard Nuclear Orientation (Angstroms)
    I     Atom           X                Y                Z
 ----------------------------------------------------------------
    1      C      -0.8833367494    -3.9617670234    -2.0706636033
    2      C      -0.7683367494    -0.8307670234     0.1303363967
    3      C       0.2186632506    -1.1887670234     1.0533363967
    4      C      -1.1343367494    -1.7237670234    -0.8796636033
    5      C      -0.5303367494    -2.9847670234    -0.9706636033
    6      C       0.8316632506    -2.4417670234     0.9653363967
    7      C       0.4496632506    -3.3307670234    -0.0336636033
    8      O       0.5896632506    -0.2987670234     2.0233363967
    9      H      -1.2503367494     0.1282329766     0.2183363967
   10      H      -1.8753367494    -1.4137670234    -1.5926636033
   11      H       1.5916632506    -2.7257670234     1.6803363967
   12      H       1.2666632506    -0.6527670234     2.6053363967
   13      H      -0.4893367494    -4.9527670234    -1.8336636033
   14      H      -0.3483367494    -3.6147670234    -2.9566636033
   15      H       0.9286632506    -4.3007670234    -0.0896636033
   16      H      -1.9528317494    -4.0442070234    -2.3143546033
 ----------------------------------------------------------------
 Nuclear Repulsion Energy =         342.13461289 hartrees
 There are       29 alpha and       29 beta electrons
 Requested basis set is def2-TZVPD
 There are 145 shells and 371 basis functions

 Total QAlloc Memory Limit  96000 MB
 Mega-Array Size      1956 MB
 MEM_STATIC part      2000 MB
 
 Citation of the SMD model:
 Marenich, A.V.; Cramer, C.J.; Truhlar, D.G.
 J. Phys. Chem. B 2009, 113, 6378-6396.
 iSolventCode=           1
 Solvent: water                                                           
 
 vradii
            1           2           3           4           5           6
    1   1.8500000   1.8500000   1.8500000   1.8500000   1.8500000   1.8500000
            7           8           9          10          11          12
    1   1.8500000   1.5200000   1.2000000   1.2000000   1.2000000   1.2000000
           13          14          15          16
    1   1.2000000   1.2000000   1.2000000   1.2000000
 Changing PCM_VDW_RADII to SMD_RADIUS
 Discretize the solute cavity surface with Lebedev spheres
	Using 110 Lebedev grid points for each H atom
	Using 194 Lebedev grid points for other atoms
	Atomic van der Waals radii will be scaled by 1.20
 Remove points where switching function is < 1.0e-08
 Keep 1173 surface tesserae and discard 1259 interior tesserae
 Molecular Surface Area = 141.754 Angst**2
 A cutoff of  1.0D-14 yielded  10045 shell pairs
 There are     67089 function pairs (     85791 Cartesian)
 Smallest overlap matrix eigenvalue = 5.77E-07
 Linear dependence detected in AO basis
 Tighter screening thresholds may be required for diffuse basis sets
 Use S2THRESH > 14 and THRESH = 14 in case of SCF convergence issues
 Number of orthogonalized atomic orbitals = 370
 Maximum deviation from orthogonality = 2.027E-10

 Scale SEOQF with 1.000000e-01/1.000000e-01/1.000000e-01

 Standard Electronic Orientation quadrupole field applied
 Nucleus-field energy     =     0.0000000155 hartrees
 Guess from superposition of atomic densities
 Warning:  Energy on first SCF cycle will be non-variational
 SAD guess density has 57.738434 electrons

 -----------------------------------------------------------------------
  General SCF calculation program by
  Eric Jon Sundstrom, Paul Horn, Yuezhi Mao, Dmitri Zuev, Alec White,
  David Stuck, Shaama M.S., Shane Yost, Joonho Lee, David Small,
  Daniel Levine, Susi Lehtola, Hugh Burton, Evgeny Epifanovsky
 -----------------------------------------------------------------------
 Exchange:     0.1670 Hartree-Fock + 1.0000 wB97X-V + LR-HF
 Correlation:  1.0000 wB97X-V
 Using Euler-Maclaurin-Lebedev (99,590) quadrature formula
 Nonlocal Correlation:  VV10 with C = 0.0100 and b = 6.00 and scale = 1.00000
 Grid used for NLC:  SG-1 standard quadrature
Energy prior to optimization (guess energy) = -346.496913085456
Begin Timing: Total SCF Calculation
begin iterations for algorithm: DIIS         
the SCF tolerance is set to 1.00e-08
    1    -346.4969130855      5.17e-03     00000 
    2    -346.4365533428      5.59e-03     00000 
    3    -346.8200258994      5.30e-04     00000 
    4    -346.8248981956      1.74e-04     00000 
    5    -346.8255917960      3.72e-05     00000 
    6    -346.8256419624      1.31e-05     00000 
    7    -346.8256466847      5.01e-06     00000 
    8    -346.8256474016      1.44e-06     00000 
    9    -346.8256474847      4.97e-07     00000 
   10    -346.8256474951      2.22e-07     00000 
   11    -346.8256474978      6.12e-08     00000 
   12    -346.8256474982      3.29e-08     00000 
   13    -346.8256474983      1.25e-08     00000 
   14    -346.8256474983      3.71e-09     00000 Convergence criterion met
Timing for Total SCF: 2220.00s (wall), 4415.55s (cpu)
(3)  G-ENP(liq) elect-nuc-pol free energy of system     -346.825647498 a.u.
(4)  G-CDS(liq) cavity-dispersion-solvent structure 
     free energy                                                3.7909 kcal/mol
(6)  G-S(liq) free energy of system                     -346.819606351 a.u.
E_pcm = -0.0174684919
E_cds = 0.0060411473
Multipole orders to be included
        2
        3
computing dipole RHS
computing quadrupole RHS
total number of RHS in solve_reponses: 8
RHS batch sizes
        8
Beginning Block Conjugate Gradient Iterations. Batch Number: 0
computing hessian-vector products by finite difference
              1      6.45e-01     00000 Conjugate Gradient Iteration
computing hessian-vector products by finite difference
              2      1.93e-01     00000 Conjugate Gradient Iteration
computing hessian-vector products by finite difference
              3      4.97e-02     00000 Conjugate Gradient Iteration
computing hessian-vector products by finite difference
              4      1.51e-02     00000 Conjugate Gradient Iteration
computing hessian-vector products by finite difference
              5      4.29e-03     00000 Conjugate Gradient Iteration
computing hessian-vector products by finite difference
              6      1.50e-03     00000 Conjugate Gradient Iteration
computing hessian-vector products by finite difference
              7      3.21e-04     00000 Conjugate Gradient Iteration
computing hessian-vector products by finite difference
              8      5.82e-05     00000 Conjugate Gradient Iteration
computing hessian-vector products by finite difference
              9      1.11e-05     00000 Conjugate Gradient Iteration
computing hessian-vector products by finite difference
             10      1.76e-06     00000 Conjugate Gradient Iteration
computing hessian-vector products by finite difference
             11      3.79e-07     00000 Conjugate Gradient Iteration
computing hessian-vector products by finite difference
             12      8.67e-08     00000 Conjugate Gradient Iteration
computing hessian-vector products by finite difference
             13      1.57e-08     00000 Conjugate Gradient Iteration
computing hessian-vector products by finite difference
             14      3.71e-09     00000 CG Converged
batch 0 complete
Done Calculating Responses
TESTING ORTHOGONALIZATION OF MULTIPOLE BASIS
Multipole virts passed orthogonality test
Virts Per Order
           87
          145
 
 --------------------------------------------------------------
 
                    Orbital Energies (a.u.)
 --------------------------------------------------------------
 
 Alpha MOs
 -- Occupied --
-19.2396 -10.3322 -10.2741 -10.2697 -10.2686 -10.2673 -10.2665 -10.2540
 -1.1882  -0.9891  -0.8948  -0.8785  -0.8041  -0.7405  -0.7090  -0.6596
 -0.5967  -0.5744  -0.5412  -0.5357  -0.5273  -0.5145  -0.5072  -0.4716
 -0.4495  -0.4382  -0.4348  -0.3494  -0.3083
 -- Virtual --
  0.0633   0.0636   0.0742   0.0817   0.0887   0.0995   0.1141   0.1155
  0.1187   0.1366   0.1515   0.1554   0.1608   0.1788   0.1832   0.1976
  0.2031   0.2128   0.2225   0.2316   0.2382   0.2448   0.2534   0.2604
  0.2676   0.2723   0.2758   0.2802   0.2877   0.2981   0.2997   0.3082
  0.3105   0.3147   0.3193   0.3291   0.3385   0.3443   0.3491   0.3517
  0.3577   0.3632   0.3652   0.3769   0.3784   0.3841   0.3891   0.3967
  0.3984   0.4004   0.4066   0.4134   0.4181   0.4230   0.4284   0.4369
  0.4422   0.4568   0.4614   0.4665   0.4728   0.4753   0.4823   0.4864
  0.4911   0.4957   0.5025   0.5080   0.5169   0.5209   0.5302   0.5392
  0.5457   0.5512   0.5525   0.5593   0.5661   0.5763   0.5869   0.5976
  0.5999   0.6067   0.6226   0.6333   0.6434   0.6601   0.6654   0.6763
  0.6824   0.6868   0.6890   0.6919   0.7017   0.7109   0.7204   0.7316
  0.7325   0.7447   0.7507   0.7556   0.7631   0.7803   0.7862   0.7902
  0.7906   0.7938   0.8024   0.8105   0.8135   0.8162   0.8317   0.8369
  0.8467   0.8499   0.8571   0.8640   0.8682   0.8803   0.8904   0.8966
  0.8997   0.9214   0.9302   0.9518   0.9709   0.9813   0.9902   1.0047
  1.0336   1.0392   1.0468   1.0485   1.0537   1.0719   1.0730   1.0883
  1.1006   1.1211   1.1467   1.1673   1.2051   1.2508   1.2577   1.2942
  1.3028   1.3181   1.3340   1.3602   1.3612   1.3841   1.4014   1.4432
  1.4525   1.4636   1.4756   1.4846   1.5307   1.5661   1.6081   1.6202
  1.6375   1.6445   1.6681   1.6867   1.6997   1.7283   1.7870   1.8027
  1.8291   1.8300   1.8387   1.8605   1.8740   1.8805   1.9237   1.9310
  1.9416   1.9608   1.9762   1.9983   2.0075   2.0355   2.0441   2.0573
  2.0598   2.0791   2.0931   2.1140   2.1221   2.1682   2.2034   2.2080
  2.2147   2.2413   2.2644   2.2857   2.3034   2.3229   2.3609   2.3731
  2.4008   2.4042   2.4288   2.4471   2.4918   2.5102   2.5189   2.5592
  2.5922   2.6091   2.6224   2.6476   2.6700   2.6721   2.6979   2.7292
  2.7607   2.7646   2.7738   2.8063   2.8321   2.8336   2.8647   2.8752
  2.9016   2.9273   2.9379   2.9537   2.9644   2.9729   2.9805   3.0028
  3.0196   3.0481   3.0634   3.0848   3.1086   3.1420   3.1531   3.1647
  3.1913   3.1973   3.2229   3.2417   3.2534   3.2623   3.2799   3.2966
  3.3128   3.3584   3.3795   3.3917   3.4041   3.4277   3.4438   3.4551
  3.4696   3.4727   3.4925   3.5093   3.5137   3.5274   3.5347   3.5463
  3.5568   3.5699   3.5755   3.5954   3.6127   3.6291   3.6451   3.6633
  3.6943   3.7102   3.7491   3.7567   3.7804   3.8305   3.8392   3.9056
  3.9281   3.9502   3.9744   3.9912   4.0357   4.0912   4.1410   4.1592
  4.2536   4.2775   4.2845   4.2981   4.3115   4.3284   4.3381   4.3631
  4.3802   4.3918   4.4174   4.4592   4.4896   4.5463   4.6082   4.6262
  4.7273   4.7496   4.7648   4.8099   4.8491   4.9236   5.0230   5.0619
  5.0902   5.1278   5.1543   5.3113   5.3351   5.3884   5.4350   5.5299
  5.6203   5.6463   5.7068   5.7665   5.9389   6.2154   6.4747   6.6063
  6.6295   6.8727   7.0064   7.3052   7.4596  22.6668  22.6795  22.9281
 22.9919  23.0291  23.1580  23.4834  44.4146
 --------------------------------------------------------------
 
          Ground-State Mulliken Net Atomic Charges

     Atom                 Charge (a.u.)
  ----------------------------------------
      1 C                    -1.118398
      2 C                    -0.728268
      3 C                     0.644491
      4 C                    -0.484600
      5 C                     0.526407
      6 C                    -0.430121
      7 C                    -0.585865
      8 O                    -0.539509
      9 H                     0.406477
     10 H                     0.414145
     11 H                     0.366507
     12 H                     0.325847
     13 H                     0.297754
     14 H                     0.233682
     15 H                     0.367201
     16 H                     0.304249
  ----------------------------------------
  Sum of atomic charges =     0.000000

 -----------------------------------------------------------------
                    Cartesian Multipole Moments
 -----------------------------------------------------------------
    Charge (ESU x 10^10)
                -0.0000
    Dipole Moment (Debye)
         X       1.1687      Y      -1.6653      Z       0.1752
       Tot       2.0420
    Quadrupole Moments (Debye-Ang)
        XX     -44.4937     XY      -4.3320     YY     -41.9743
        XZ       7.8059     YZ      -0.7455     ZZ     -42.7090
    Octopole Moments (Debye-Ang^2)
       XXX      26.6847    XXY      99.6737    XYY      19.9452
       YYY     280.4323    XXZ       7.2110    XYZ     -13.2082
       YYZ      -5.1608    XZZ      20.6601    YZZ      90.9700
       ZZZ      17.7948
    Hexadecapole Moments (Debye-Ang^3)
      XXXX    -236.3846   XXXY     -73.4881   XXYY    -343.7297
      XYYY    -117.9487   YYYY   -1731.6974   XXXZ     -91.0768
      XXYZ     -67.0778   XYYZ     -12.0562   YYYZ    -153.2506
      XXZZ    -102.7974   XYZZ     -34.8340   YYZZ    -391.4397
      XZZZ     -69.1136   YZZZ    -206.5527   ZZZZ    -510.1904
 -----------------------------------------------------------------
Archival summary:
1\1\nid00557\SP\ProcedureUnspecified\BasisUnspecified\178\meili\SunSep2616:44:412021SunSep2616:44:412021\0\\#,ProcedureUnspecified,BasisUnspecified,\\0,1\C\O,1,1.36771\H,2,0.9604,1,112.404\C,1,1.39768,2,120.6,3,-1.58111,0\H,4,1.08143,1,120.134,2,1.35581,0\C,4,1.39077,1,119.855,2,-179.497,0\H,6,1.08327,4,119.213,1,-179.742,0\C,1,1.39795,2,119.547,3,179.418,0\H,8,1.07692,1,119.347,2,-2.29677,0\C,8,1.39696,1,119.91,2,178.735,0\H,10,1.07403,8,118.438,1,-178.299,0\C,6,1.39932,4,121.017,1,0.923574,0\C,12,1.51299,6,119.378,4,177.892,0\H,13,1.09162,12,105.693,6,-100.033,0\H,13,1.09247,12,110.114,6,14.8717,0\H,13,1.1,12,115.868,6,139.553,0\\\@

 Total job time:  40256.89s(wall), 79974.53s(cpu) 
 Sun Sep 26 16:44:47 2021

        *************************************************************
        *                                                           *
        *  Thank you very much for using Q-Chem.  Have a nice day.  *
        *                                                           *
        *************************************************************


Done Job For Fragment 1
calling putenv with: QCSCRATCH=/global/cscratch1/sd/meili 
calling putenv with: QCLOCALSCR=/tmp 
calling putenv with: QCTHREADS=32 
Doing General SCFMI
 Exchange:     0.1670 Hartree-Fock + 1.0000 wB97X-V + LR-HF
 Correlation:  1.0000 wB97X-V
 Using Euler-Maclaurin-Lebedev (99,590) quadrature formula
 Nonlocal Correlation:  VV10 with C = 0.0100 and b = 6.00 and scale = 1.00000
 Grid used for NLC:  SG-1 standard quadrature
performing fock build before subrot guess so that all methods have access
Printing subrot_rss_gen Method Specification:
Occupied Subspace Method is 0
Virtual Subspace Method is 0
Energy of the unrelaxed supersystem initial determinant -614.637895741719
performing fock build before subrot guess so that all methods have access
Printing subrot_rss_gen Method Specification:
Occupied Subspace Method is 0
Virtual Subspace Method is 0
Energy of the unrelaxed supersystem initial determinant w/ solvent -614.799951720452
write pseudocanon occs and virts to disk
write pseudocanon orbital energies to disk
Tolerance of ortho_decomp_scf: 1.00e-06
GDM subspace size: 20
Beginning the Orthogonal Decomposition of the Initial Supersystem Wavefunction
    1    -614.6131195725      5.89e-02     ortho_decomp Preconditoned Steepest Descent
    2    -614.6201943197      9.71e-04     ortho_decomp BFGS Step
    3    -614.6202066571      7.26e-05     ortho_decomp BFGS Step
    4    -614.6202066831      2.50e-06     ortho_decomp BFGS Step
    5    -614.6202066832      6.56e-08     ortho_decomp 00000 Convergence criterion met
 Hartree-Fock
 Hartree-Fock
 Hartree-Fock
Doing General SCFMI
 Exchange:     0.1670 Hartree-Fock + 1.0000 wB97X-V + LR-HF
 Correlation:  1.0000 wB97X-V
 Using Euler-Maclaurin-Lebedev (99,590) quadrature formula
 Nonlocal Correlation:  VV10 with C = 0.0100 and b = 6.00 and scale = 1.00000
 Grid used for NLC:  SG-1 standard quadrature
performing fock build at end of subrot_r(subrot) constructor so that all methods have access
<S^2> of initial wavefunction before polarization iterations 0.0000000000
Beginning iterations for the determination of the polarized wavefunction
Energy prior to optimization (guess energy) = -614.799951720451
Begin Timing: Total SCF Calculation
begin iterations for algorithm: DIIS         
the SCF tolerance is set to 1.00e-08
    1    -614.7999517205      7.41e-05     00000 
    2    -614.8002744336      7.02e-05     00000 
    3    -614.8004457487      1.46e-05     00000 
    4    -614.8004754414      8.52e-06     00000 
    5    -614.8004822416      4.02e-06     00000 
    6    -614.8004842144      1.48e-06     00000 
    7    -614.8004844533      4.65e-07     00000 
    8    -614.8004844800      1.60e-07     00000 
    9    -614.8004844836      8.05e-08     00000 
   10    -614.8004844842      2.24e-08     00000 
   11    -614.8004844842      1.04e-08     00000 
   12    -614.8004844842      3.94e-09     00000 Convergence criterion met
write pseudocanon occs and virts to disk
write pseudocanon orbital energies to disk
Timing for Total SCF: 7334.00s (wall), 14585.25s (cpu)
<S^2> of polarized wavefunction after polarization iterations 0.0000000000
relaxing scfmi constraint to allow all rotations in the entire AO span
Doing General SCFMI
 Exchange:     0.1670 Hartree-Fock + 1.0000 wB97X-V + LR-HF
 Correlation:  1.0000 wB97X-V
 Using Euler-Maclaurin-Lebedev (99,590) quadrature formula
 Nonlocal Correlation:  VV10 with C = 0.0100 and b = 6.00 and scale = 1.00000
 Grid used for NLC:  SG-1 standard quadrature
performing fock build at end of subrot_r(subrot) constructor so that all methods have access
<S^2> of polarized wavefunction before ct-allowed iterations 0.0000000000
Beginning iterations for the determination of the CT-Allowed wavefunction
Energy prior to optimization (guess energy) = -614.800484484225
Begin Timing: Total SCF Calculation
begin iterations for algorithm: DIIS         
the SCF tolerance is set to 1.00e-08
    1    -614.8004844842      7.15e-05     00000 
    2    -614.8013480477      7.46e-06     00000 
    3    -614.8013753262      1.70e-06     00000 
    4    -614.8013761047      1.68e-06     00000 
    5    -614.8013764575      1.73e-07     00000 
    6    -614.8013764655      1.33e-07     00000 
    7    -614.8013764681      2.00e-08     00000 
    8    -614.8013764683      7.28e-09     00000 Convergence criterion met
write pseudocanon occs and virts to disk
write pseudocanon orbital energies to disk
Timing for Total SCF: 4590.00s (wall), 9110.74s (cpu)
<S^2> of ct_allowed wavefunction after ct-allowed iterations 0.0000000000

================================
        Results of EDA2         
================================
Basic EDA Quantities
--------------------
Fragment Energies (Ha):
1 -267.9732132007
2 -346.8196063510
--------------------
  E_prp (kJ/mol) = 0.0000
  E_sol (kJ/mol) = -38.6641
  E_frz (kJ/mol) = 50.1956
  E_pol (kJ/mol) = -1.3988
  E_vct (kJ/mol) = -2.3419
  E_int (kJ/mol) = 7.7908
--------------------


Initial Wavefunction Decomposition
--------------------
  --------------------
  Orthogonal Fragment Subspace Decomposition:
  --------------------
     E_elec   (ELEC)   (kJ/mol) = -9.9710
     E_pauli  (PAULI)  (kJ/mol) = 78.9738
     E_disp   (DISP)   (kJ/mol) = -18.8072
     --------------------
     Terms summing to E_pauli:
     --------------------
        E_kep_pauli       (kJ/mol) = 96.6388
        E_disp_free_pauli (kJ/mol) = -17.6649
  --------------------
  Classical Frozen Decomposition:
  --------------------
     E_cls_elec  (CLS ELEC)  (kJ/mol) = 35.7026
     E_cls_pauli (CLS PAULI) (kJ/mol) = 14.4930
    [E_mod_pauli (MOD PAULI) (kJ/mol) = 33.3002 (CLS PAULI - DISP from orthogonal decomposition) ]
  --------------------
--------------------

Simplified EDA Summary (kJ/mol)
--------------------
 PREPARATION     0.0000
 SOLVATION       -38.6641
 FROZEN          69.0028      (does not include dispersion)
[PAULI           78.9738]     (if this is negligible, then frozen describes electrostatics)
 DISPERSION      -18.8072
 POLARIZATION    -1.3988
 CHARGE TRANSFER -2.3419
 TOTAL           7.7908     (PRP + SOL + FRZ + DISP + POL + CT)
--------------------
 
 --------------------------------------------------------------
 
                    Orbital Energies (a.u.)
 --------------------------------------------------------------
 
 Alpha MOs
 -- Occupied --
-19.2318 -19.1490 -19.1478 -10.3439 -10.3293 -10.2722 -10.2678 -10.2668
-10.2644 -10.2641 -10.2528 -10.2503 -10.2461  -1.1827  -1.1653  -1.0646
 -0.9869  -0.8927  -0.8897  -0.8764  -0.8020  -0.7528  -0.7381  -0.7064
 -0.6563  -0.6170  -0.5945  -0.5726  -0.5595  -0.5586  -0.5394  -0.5345
 -0.5288  -0.5239  -0.5160  -0.5105  -0.4984  -0.4775  -0.4685  -0.4482
 -0.4464  -0.4402  -0.4335  -0.4283  -0.3604  -0.3498  -0.3473  -0.3412
 -0.3051
 -- Virtual --
  0.0618   0.0651   0.0742   0.0777   0.0815   0.0917   0.0952   0.0968
  0.1098   0.1121   0.1216   0.1232   0.1309   0.1384   0.1478   0.1521
  0.1561   0.1596   0.1609   0.1680   0.1727   0.1860   0.1876   0.1901
  0.1970   0.2006   0.2058   0.2105   0.2149   0.2180   0.2243   0.2304
  0.2362   0.2412   0.2476   0.2533   0.2563   0.2599   0.2638   0.2691
  0.2757   0.2809   0.2830   0.2872   0.2901   0.2925   0.2982   0.3035
  0.3072   0.3112   0.3153   0.3169   0.3201   0.3279   0.3344   0.3386
  0.3416   0.3452   0.3478   0.3512   0.3523   0.3554   0.3568   0.3637
  0.3653   0.3720   0.3736   0.3756   0.3814   0.3836   0.3853   0.3898
  0.3910   0.3926   0.4000   0.4041   0.4088   0.4109   0.4156   0.4183
  0.4201   0.4233   0.4281   0.4325   0.4368   0.4382   0.4443   0.4491
  0.4524   0.4555   0.4605   0.4638   0.4694   0.4718   0.4785   0.4798
  0.4838   0.4894   0.4924   0.4960   0.5002   0.5037   0.5065   0.5096
  0.5155   0.5172   0.5223   0.5239   0.5311   0.5331   0.5345   0.5396
  0.5456   0.5509   0.5527   0.5627   0.5635   0.5660   0.5756   0.5782
  0.5861   0.5886   0.5962   0.6031   0.6061   0.6128   0.6164   0.6222
  0.6229   0.6304   0.6334   0.6427   0.6451   0.6531   0.6600   0.6630
  0.6641   0.6748   0.6798   0.6899   0.6929   0.7023   0.7052   0.7130
  0.7192   0.7218   0.7232   0.7282   0.7340   0.7386   0.7445   0.7505
  0.7535   0.7592   0.7625   0.7654   0.7734   0.7744   0.7814   0.7860
  0.7866   0.7941   0.7983   0.8008   0.8034   0.8076   0.8088   0.8135
  0.8173   0.8179   0.8237   0.8261   0.8288   0.8353   0.8429   0.8467
  0.8559   0.8577   0.8627   0.8674   0.8776   0.8791   0.8822   0.8892
  0.8940   0.8987   0.9006   0.9146   0.9178   0.9223   0.9287   0.9322
  0.9412   0.9545   0.9549   0.9686   0.9735   0.9869   0.9890   0.9965
  1.0015   1.0110   1.0155   1.0295   1.0318   1.0367   1.0516   1.0605
  1.0668   1.0736   1.0817   1.0893   1.0934   1.1014   1.1059   1.1218
  1.1366   1.1426   1.1533   1.1603   1.1690   1.1827   1.1917   1.2036
  1.2211   1.2297   1.2331   1.2629   1.2665   1.2764   1.3010   1.3085
  1.3347   1.3397   1.3537   1.3622   1.3662   1.3684   1.3866   1.3942
  1.4099   1.4199   1.4279   1.4390   1.4717   1.4761   1.4870   1.4900
  1.5014   1.5086   1.5180   1.5285   1.5386   1.5546   1.5787   1.5824
  1.6300   1.6383   1.6500   1.6586   1.6673   1.6700   1.7065   1.7242
  1.7315   1.7592   1.7688   1.7914   1.8260   1.8420   1.8461   1.8645
  1.8738   1.8895   1.9010   1.9198   1.9269   1.9315   1.9354   1.9475
  1.9500   1.9681   1.9772   1.9840   1.9900   1.9917   2.0022   2.0120
  2.0219   2.0249   2.0318   2.0501   2.0525   2.0708   2.0743   2.0810
  2.0919   2.0964   2.1070   2.1191   2.1331   2.1520   2.1731   2.1861
  2.1967   2.2092   2.2234   2.2267   2.2517   2.2569   2.2630   2.2712
  2.2751   2.2890   2.3091   2.3147   2.3351   2.3504   2.3692   2.3878
  2.3921   2.4013   2.4093   2.4228   2.4290   2.4423   2.4589   2.4782
  2.5119   2.5208   2.5283   2.5331   2.5416   2.5718   2.5833   2.5870
  2.6076   2.6123   2.6214   2.6332   2.6463   2.6634   2.6706   2.6877
  2.6934   2.7007   2.7216   2.7315   2.7441   2.7698   2.7753   2.7857
  2.7888   2.8195   2.8271   2.8458   2.8562   2.8747   2.8785   2.8887
  2.8999   2.9265   2.9297   2.9380   2.9480   2.9562   2.9594   2.9730
  2.9801   2.9866   3.0060   3.0259   3.0333   3.0383   3.0580   3.0722
  3.0814   3.1092   3.1298   3.1368   3.1621   3.1708   3.1810   3.1869
  3.1967   3.2060   3.2150   3.2438   3.2610   3.2721   3.2737   3.2792
  3.2876   3.2992   3.3029   3.3181   3.3305   3.3406   3.3579   3.3728
  3.3859   3.3997   3.4062   3.4207   3.4279   3.4327   3.4484   3.4518
  3.4619   3.4651   3.4836   3.4890   3.4988   3.5146   3.5212   3.5270
  3.5402   3.5455   3.5500   3.5540   3.5735   3.5775   3.5837   3.5857
  3.5948   3.6033   3.6071   3.6295   3.6347   3.6476   3.6515   3.6641
  3.6717   3.6917   3.6984   3.7063   3.7182   3.7339   3.7430   3.7517
  3.7581   3.7648   3.7844   3.8058   3.8409   3.8536   3.8780   3.9080
  3.9130   3.9390   3.9638   3.9855   3.9944   4.0039   4.0460   4.0539
  4.1000   4.1083   4.1431   4.1514   4.1724   4.1992   4.2627   4.2722
  4.2846   4.2922   4.3005   4.3116   4.3202   4.3360   4.3485   4.3755
  4.3937   4.4068   4.4261   4.4677   4.4937   4.5049   4.5592   4.5648
  4.6143   4.6225   4.6335   4.6728   4.7324   4.7573   4.7620   4.7731
  4.8136   4.8324   4.8384   4.8566   4.8782   4.9423   5.0328   5.0386
  5.0717   5.1034   5.1344   5.1401   5.1802   5.3127   5.3188   5.3392
  5.3421   5.3585   5.3672   5.4147   5.4402   5.4963   5.5333   5.6344
  5.6659   5.7183   5.7233   5.7638   5.7665   5.8180   5.9619   6.0208
  6.2329   6.2698   6.3433   6.3765   6.4789   6.6222   6.6397   6.6448
  6.6855   6.7335   6.7858   6.7913   6.9083   6.9874   7.0064   7.0320
  7.0871   7.2608   7.3419   7.3642   7.3938   7.4324   7.4883  22.6560
 22.6736  22.7135  22.8654  22.9533  23.0144  23.0453  23.1733  23.4962
 23.8287  44.3389  44.4279  44.5167
 --------------------------------------------------------------
 
          Ground-State Mulliken Net Atomic Charges

     Atom                 Charge (a.u.)
  ----------------------------------------
      1 C                     0.242585
      2 C                    -1.077283
      3 C                     0.436946
      4 O                    -0.836838
      5 O                    -0.733300
      6 H                    -0.072175
      7 H                     0.292241
      8 H                     0.262144
      9 H                     0.276495
     10 H                     0.244881
     11 C                    -1.167979
     12 C                    -0.391023
     13 C                     0.481768
     14 C                    -0.716318
     15 C                     0.468513
     16 C                    -0.526793
     17 C                    -0.492536
     18 O                    -0.469676
     19 H                     0.423480
     20 H                     0.432100
     21 H                     0.373301
     22 H                     0.309584
     23 H                     0.297247
     24 H                     0.239105
     25 H                     0.393100
     26 H                     0.310431
  ----------------------------------------
  Sum of atomic charges =    -1.000000

 -----------------------------------------------------------------
                    Cartesian Multipole Moments
 -----------------------------------------------------------------
    Charge (ESU x 10^10)
                -4.8032
    Dipole Moment (Debye)
         X      -6.2536      Y     -14.0976      Z      -2.5695
       Tot      15.6350
    Quadrupole Moments (Debye-Ang)
        XX     -88.9778     XY     -25.7649     YY    -109.3094
        XZ       8.6552     YZ      -5.1904     ZZ     -82.4027
    Octopole Moments (Debye-Ang^2)
       XXX      -7.0839    XXY     -37.1293    XYY     -45.3304
       YYY    -118.1004    XXZ      14.3757    XYZ      -7.9459
       YYZ      -5.1826    XZZ      10.3825    YZZ     -26.2345
       ZZZ      22.0938
    Hexadecapole Moments (Debye-Ang^3)
      XXXX    -551.7431   XXXY    -128.9929   XXYY    -843.6085
      XYYY    -278.4173   YYYY   -4083.8294   XXXZ    -110.1116
      XXYZ     -31.7027   XYYZ      -2.2500   YYYZ     -68.7047
      XXZZ    -180.9371   XYZZ     -49.2170   YYZZ    -802.7676
      XZZZ     -98.8160   YZZZ    -147.7210   ZZZZ    -684.2457
 -----------------------------------------------------------------
Archival summary:
1\1\nid00557\SP\ProcedureUnspecified\BasisUnspecified\31013(1-,1)\meili\SunSep2622:54:552021SunSep2622:54:552021\0\\#,ProcedureUnspecified,BasisUnspecified,\\-1,1\O\H,1,0.9604\C,1,1.36771,2,112.404\C,3,1.39768,1,120.6,2,-1.58111,0\H,4,1.08143,3,120.134,1,1.35581,0\C,4,1.39077,3,119.855,1,-179.497,0\H,6,1.08327,4,119.213,3,-179.742,0\C,3,1.39795,1,119.547,2,179.418,0\H,8,1.07692,3,119.347,1,-2.29677,0\C,8,1.39696,3,119.91,1,178.735,0\H,10,1.07403,8,118.438,3,-178.299,0\C,6,1.39932,4,121.017,3,0.923574,0\C,12,1.51299,6,119.378,4,177.892,0\H,13,1.09162,12,105.693,6,-100.033,0\H,13,1.09247,12,110.114,6,14.8717,0\H,13,1.1,12,115.868,6,139.553,0\H,9,2.19846,8,152.951,3,93.0822,0\C,17,1.08887,9,125.91,8,-19.304,0\H,18,1.08183,17,107.008,9,67.8328,0\C,18,1.50838,17,110.752,9,-48.1559,0\O,20,1.24011,18,118.208,17,-20.9073,0\O,20,1.25071,18,118.394,17,157.078,0\C,18,1.53249,17,108.31,9,-172.649,0\H,23,1.09083,18,107.465,17,52.869,0\H,23,1.1,18,112.143,17,171.091,0\H,23,1.1,18,109.037,17,-66.9317,0\\\@

 Total job time:  72037.94s(wall), 44178.54s(cpu) 
 Sun Sep 26 22:54:59 2021

        *************************************************************
        *                                                           *
        *  Thank you very much for using Q-Chem.  Have a nice day.  *
        *                                                           *
        *************************************************************


