
Running Job 1 of 1 SSI-106PHE-109PHE-1_SMD_TZVPD.in
qchem SSI-106PHE-109PHE-1_SMD_TZVPD.in_33362.0 /tmp/qchem33362/ 0
/global/common/cori/software/qchem/5.2/exe/qcprog.exe_s SSI-106PHE-109PHE-1_SMD_TZVPD.in_33362.0 /tmp/qchem33362/
                  Welcome to Q-Chem
     A Quantum Leap Into The Future Of Chemistry


 Q-Chem 5.2, Q-Chem, Inc., Pleasanton, CA (2019)

 License issued to: National Energy Research Scientific Computing Center

 Yihan Shao,  Zhengting Gan,  E. Epifanovsky,  A. T. B. Gilbert,  M. Wormit,  
 J. Kussmann,  A. W. Lange,  A. Behn,  Jia Deng,  Xintian Feng,  D. Ghosh,  
 M. Goldey,  P. R. Horn,  L. D. Jacobson,  I. Kaliman,  T. Kus,  A. Landau,  
 Jie Liu,  E. I. Proynov,  R. M. Richard,  R. P. Steele,  E. J. Sundstrom,  
 H. L. Woodcock III,  P. M. Zimmerman,  D. Zuev,  B. Albrecht,  E. Alguire,  
 S. A. Baeppler,  D. Barton,  Z. Benda,  Y. A. Bernard,  E. J. Berquist,  
 K. B. Bravaya,  H. Burton,  D. Casanova,  Chun-Min Chang,  Yunqing Chen,  
 A. Chien,  K. D. Closser,  M. P. Coons,  S. Coriani,  S. Dasgupta,  
 A. L. Dempwolff,  M. Diedenhofen,  Hainam Do,  R. G. Edgar,  Po-Tung Fang,  
 S. Faraji,  S. Fatehi,  Qingguo Feng,  K. D. Fenk,  J. Fosso-Tande,  
 J. Gayvert,  Qinghui Ge,  A. Ghysels,  G. Gidofalvi,  J. Gomes,  
 J. Gonthier,  A. Gunina,  D. Hait,  M. W. D. Hanson-Heine,  
 P. H. P. Harbach,  A. W. Hauser,  M. F. Herbst,  J. E. Herr,  
 E. G. Hohenstein,  Z. C. Holden,  Kerwin Hui,  B. C. Huynh,  T.-C. Jagau,  
 Hyunjun Ji,  B. Kaduk,  K. Khistyaev,  Jaehoon Kim,  P. Klunzinger,  K. Koh,  
 D. Kosenkov,  L. Koulias,  T. Kowalczyk,  C. M. Krauter,  A. Kunitsa,  
 Ka Un Lao,  A. Laurent,  K. V. Lawler,  Joonho Lee,  D. Lefrancois,  
 S. Lehtola,  D. S. Levine,  Yi-Pei Li,  You-Sheng Lin,  Fenglai Liu,  
 E. Livshits,  A. Luenser,  P. Manohar,  E. Mansoor,  S. F. Manzer,  
 Shan-Ping Mao,  Yuezhi Mao,  N. Mardirossian,  A. V. Marenich,  
 T. Markovich,  L. A. Martinez-Martinez,  S. A. Maurer,  N. J. Mayhall,  
 S. C. McKenzie,  J.-M. Mewes,  P. Morgante,  A. F. Morrison,  
 J. W. Mullinax,  K. Nanda,  T. S. Nguyen-Beck,  R. Olivares-Amaya,  
 J. A. Parkhill,  Zheng Pei,  T. M. Perrine,  F. Plasser,  P. Pokhilko,  
 S. Prager,  A. Prociuk,  E. Ramos,  D. R. Rehn,  F. Rob,  M. Scheurer,  
 M. Schneider,  N. Sergueev,  S. M. Sharada,  S. Sharma,  D. W. Small,  
 T. Stauch,  T. Stein,  Yu-Chuan Su,  A. J. W. Thom,  A. Tkatchenko,  
 T. Tsuchimochi,  N. M. Tubman,  L. Vogt,  M. L. Vidal,  O. Vydrov,  
 M. A. Watson,  J. Wenzel,  M. de Wergifosse,  T. A. Wesolowski,  A. White,  
 J. Witte,  A. Yamada,  Jun Yang,  K. Yao,  S. Yeganeh,  S. R. Yost,  
 Zhi-Qiang You,  A. Zech,  Igor Ying Zhang,  Xing Zhang,  Yan Zhao,  
 Ying Zhu,  B. R. Brooks,  G. K. L. Chan,  C. J. Cramer,  M. S. Gordon,  
 W. J. Hehre,  A. Klamt,  M. W. Schmidt,  C. D. Sherrill,  D. G. Truhlar,  
 A. Aspuru-Guzik,  R. Baer,  A. T. Bell,  N. A. Besley,  Jeng-Da Chai,  
 A. E. DePrince, III,  R. A. DiStasio Jr.,  A. Dreuw,  B. D. Dunietz,  
 T. R. Furlani,  Chao-Ping Hsu,  Yousung Jung,  Jing Kong,  D. S. Lambrecht,  
 WanZhen Liang,  C. Ochsenfeld,  V. A. Rassolov,  L. V. Slipchenko,  
 J. E. Subotnik,  T. Van Voorhis,  J. M. Herbert,  A. I. Krylov,  
 P. M. W. Gill,  M. Head-Gordon

 Contributors to earlier versions of Q-Chem not listed above: 
 R. D. Adamson,  B. Austin,  J. Baker,  G. J. O. Beran,  K. Brandhorst,  
 S. T. Brown,  E. F. C. Byrd,  A. K. Chakraborty,  C.-L. Cheng,  
 Siu Hung Chien,  D. M. Chipman,  D. L. Crittenden,  H. Dachsel,  
 R. J. Doerksen,  A. D. Dutoi,  L. Fusti-Molnar,  W. A. Goddard III,  
 A. Golubeva-Zadorozhnaya,  S. R. Gwaltney,  G. Hawkins,  A. Heyden,  
 S. Hirata,  G. Kedziora,  F. J. Keil,  C. Kelley,  Jihan Kim,  R. A. King,  
 R. Z. Khaliullin,  P. P. Korambath,  W. Kurlancheek,  A. M. Lee,  M. S. Lee,  
 S. V. Levchenko,  Ching Yeh Lin,  D. Liotard,  R. C. Lochan,  I. Lotan,  
 P. E. Maslen,  N. Nair,  D. P. O'Neill,  D. Neuhauser,  E. Neuscamman,  
 C. M. Oana,  R. Olson,  B. Peters,  R. Peverati,  P. A. Pieniazek,  
 Y. M. Rhee,  J. Ritchie,  M. A. Rohrdanz,  E. Rosta,  N. J. Russ,  
 H. F. Schaefer III,  N. E. Schultz,  N. Shenvi,  A. C. Simmonett,  A. Sodt,  
 D. Stuck,  K. S. Thanthiriwatte,  V. Vanovschi,  Tao Wang,  A. Warshel,  
 C. F. Williams,  Q. Wu,  X. Xu,  W. Zhang

 Please cite Q-Chem as follows:
 Y. Shao et al., Mol. Phys. 113, 184-215 (2015)
 DOI: 10.1080/00268976.2014.952696

 Q-Chem 5.2.0 for Intel X86 EM64T Linux

 Parts of Q-Chem use Armadillo 8.300.2 (Tropical Shenanigans).
 http://arma.sourceforge.net/

 Q-Chem begins on Sun Sep 26 13:17:56 2021  

Host: cori01
0

     Scratch files written to /tmp/qchem33362//
 May1019 |scratch|qcdevops|jenkins|workspace|build_RNUM -1
Processing $rem in /global/common/cori/software/qchem/5.2/config/preferences:
	 MEM_TOTAL  96000 
NAlpha2: 100
NElect   100
Mult     1
Symmetry turned off for PCM/SM12/SMD calculation

 Q-Chem warning in module libgen/rem_setup.C, line 2803:

 Neither GIA nor STOLL is specified by user. Use STOLL as the default


Checking the input file for inconsistencies... 	...done.

--------------------------------------------------------------
User input:
--------------------------------------------------------------
$comment
SSI-106PHE-109PHE-1.pdb
$end

$molecule
0 1
--
0 1
C    0.546101180474   -3.245073179350    2.269290106440
C    2.316101180474   -0.736073179350   -0.042709893560
C    1.664101180474   -1.290073179350    1.059290106440
C    2.424101180474   -1.466073179350   -1.229709893560
C    1.196101180474   -2.611073179350    1.037290106440
C    1.963101180474   -2.799073179350   -1.285709893560
C    1.282101180474   -3.341073179350   -0.155709893560
H    2.680101180474    0.276926820650    0.004290106440
H    1.569101180474   -0.705073179350    1.963290106440
H    2.910101180474   -1.027073179350   -2.089709893560
H    2.069101180474   -3.378073179350   -2.193709893560
H    1.263101180474   -3.158073179350    3.087290106440
H    0.375101180474   -4.310073179350    2.102290106440
H    0.895101180474   -4.350073179350   -0.202709893560
H   -0.392362819526   -2.764779179350    2.583300106440
--
0 1
C   -2.751898819526    1.086926820650    1.570290106440
C   -1.065898819526    1.115926820650   -0.327709893560
C   -2.047898819526    1.778926820650    0.426290106440
C   -0.438898819526    1.774926820650   -1.373709893560
C   -2.357898819526    3.113926820650    0.136290106440
C   -0.750898819526    3.104926820650   -1.665709893560
C   -1.712898819526    3.788926820650   -0.914709893560
H   -0.808898819526    0.087926820650   -0.109709893560
H    0.315101180474    1.259926820650   -1.948709893560
H   -2.679898819526    1.701926820650    2.469290106440
H   -2.235898819526    0.150926820650    1.776290106440
H   -3.107898819526    3.628926820650    0.718290106440
H   -0.234898819526    3.592926820650   -2.477709893560
H   -1.961898819526    4.817926820650   -1.134709893560
H   -3.815322819526    0.889810820650    1.369600106440
$end

$rem
JOBTYPE			EDA
EDA2			1
method			wB97X-V
BASIS			def2-TZVPD
XC_GRID			000099000590
NL_GRID			1
UNRESTRICTED		FALSE
MAX_SCF_CYCLES		200
SYMMETRY		FALSE
SYM_IGNORE		TRUE
MEM_STATIC		2000
BASIS_LIN_DEP_THRESH 	6
THRESH 			14
SCF_CONVERGENCE 	8
SCF_PRINT_FRGM 		TRUE
SOLVENT_METHOD          SMD
$end

$SMX
SOLVENT			WATER
$END
--------------------------------------------------------------
 ----------------------------------------------------------------
             Standard Nuclear Orientation (Angstroms)
    I     Atom           X                Y                Z
 ----------------------------------------------------------------
    1      C       0.5461011805    -3.2450731793     2.2692901064
    2      C       2.3161011805    -0.7360731794    -0.0427098936
    3      C       1.6641011805    -1.2900731793     1.0592901064
    4      C       2.4241011805    -1.4660731793    -1.2297098936
    5      C       1.1961011805    -2.6110731793     1.0372901064
    6      C       1.9631011805    -2.7990731794    -1.2857098936
    7      C       1.2821011805    -3.3410731793    -0.1557098936
    8      H       2.6801011805     0.2769268207     0.0042901064
    9      H       1.5691011805    -0.7050731794     1.9632901064
   10      H       2.9101011805    -1.0270731794    -2.0897098936
   11      H       2.0691011805    -3.3780731793    -2.1937098936
   12      H       1.2631011805    -3.1580731794     3.0872901064
   13      H       0.3751011805    -4.3100731793     2.1022901064
   14      H       0.8951011805    -4.3500731794    -0.2027098936
   15      H      -0.3923628195    -2.7647791794     2.5833001064
   16      C      -2.7518988195     1.0869268207     1.5702901064
   17      C      -1.0658988195     1.1159268206    -0.3277098936
   18      C      -2.0478988195     1.7789268207     0.4262901064
   19      C      -0.4388988195     1.7749268206    -1.3737098936
   20      C      -2.3578988195     3.1139268207     0.1362901064
   21      C      -0.7508988195     3.1049268206    -1.6657098936
   22      C      -1.7128988195     3.7889268206    -0.9147098936
   23      H      -0.8088988195     0.0879268207    -0.1097098936
   24      H       0.3151011805     1.2599268207    -1.9487098936
   25      H      -2.6798988195     1.7019268207     2.4692901064
   26      H      -2.2358988195     0.1509268206     1.7762901064
   27      H      -3.1078988195     3.6289268206     0.7182901064
   28      H      -0.2348988195     3.5929268206    -2.4777098936
   29      H      -1.9618988195     4.8179268207    -1.1347098936
   30      H      -3.8153228195     0.8898108206     1.3696001064
 ----------------------------------------------------------------
 Nuclear Repulsion Energy =         766.42342355 hartrees
 There are       50 alpha and       50 beta electrons
 Requested basis set is def2-TZVPD
 There are 262 shells and 662 basis functions

 Total QAlloc Memory Limit  96000 MB
 Mega-Array Size      1956 MB
 MEM_STATIC part      2000 MB
 
 Citation of the SMD model:
 Marenich, A.V.; Cramer, C.J.; Truhlar, D.G.
 J. Phys. Chem. B 2009, 113, 6378-6396.
 iSolventCode=           1
 Solvent: water                                                           
 
 vradii
            1           2           3           4           5           6
    1   1.8500000   1.8500000   1.8500000   1.8500000   1.8500000   1.8500000
            7           8           9          10          11          12
    1   1.8500000   1.2000000   1.2000000   1.2000000   1.2000000   1.2000000
           13          14          15          16          17          18
    1   1.2000000   1.2000000   1.2000000   1.8500000   1.8500000   1.8500000
           19          20          21          22          23          24
    1   1.8500000   1.8500000   1.8500000   1.8500000   1.2000000   1.2000000
           25          26          27          28          29          30
    1   1.2000000   1.2000000   1.2000000   1.2000000   1.2000000   1.2000000
 Changing PCM_VDW_RADII to SMD_RADIUS
 Discretize the solute cavity surface with Lebedev spheres
	Using 110 Lebedev grid points for each H atom
	Using 194 Lebedev grid points for other atoms
	Atomic van der Waals radii will be scaled by 1.20
 Remove points where switching function is < 1.0e-08
 Keep 2183 surface tesserae and discard 2293 interior tesserae
 Molecular Surface Area = 265.111 Angst**2
 A cutoff of  1.0D-14 yielded  29164 shell pairs
 There are    186138 function pairs (    234302 Cartesian)
 Smallest overlap matrix eigenvalue = 4.80E-07
 Linear dependence detected in AO basis
 Tighter screening thresholds may be required for diffuse basis sets
 Use S2THRESH > 14 and THRESH = 14 in case of SCF convergence issues
 Number of orthogonalized atomic orbitals = 660
 Maximum deviation from orthogonality = 2.009E-10

 Scale SEOQF with 1.000000e-01/1.000000e-01/1.000000e-01

 Standard Electronic Orientation quadrupole field applied
 Nucleus-field energy     =     0.0000000379 hartrees

 -----------------------------------------------------------------------
  General SCF calculation program by
  Eric Jon Sundstrom, Paul Horn, Yuezhi Mao, Dmitri Zuev, Alec White,
  David Stuck, Shaama M.S., Shane Yost, Joonho Lee, David Small,
  Daniel Levine, Susi Lehtola, Hugh Burton, Evgeny Epifanovsky
 -----------------------------------------------------------------------
================================================================
                 ALMO-EDA with the EDA2 driver                  
================================================================
 The second-generation ALMO-EDA (for DFT):                      
 P. R. Horn, Y. Mao and M. Head-Gordon, PCCP, 18, 23067 (2016)  
 Decomposition of the frozen energy:                            
 P. R. Horn, Y. Mao and M. Head-Gordon, JCP, 144, 114107 (2016) 
 FERF model for polarization:                                   
 P. R. Horn and M. Head-Gordon, JCP, 143, 114111 (2015)         
Using eda2 option set 1
Option set summary: Frozen orbital wavefunction, initial wavefunction decomposition, and nDQ polarization.
--------------------------------
Printing EDA Options
--------------------------------
eda_child_super_basis      0
fragmo_guess_mode          0
child_mp                   1
child_mp_orders            232
cls_elec                   1
cls_disp                   0
scfmi_mode                 1
scfmi_occs                 0
scfmi_virts                0
frz_relax                  0
frz_relax_method           0
dc_pen_start               0
dc_pen_conv                0
dc_pen_increment           0
dc_pen_steps               0
dc_pen_thresh_factor       0
dc_pen_pre_newton_thresh   0
frz_ortho_decomp           1
frz_ortho_decomp_conv      6
frgm_method                2
scfmi_freeze_ss            0
separate_rehyb             0
plot_diff_den              0
eda_nocv                   0
eda_vct_relax              1
disp_free_x                0
disp_free_c                0
eda_bsse                   0
eda_pct_a                  0
eda_covp                   0
--------------------------------
Attempting to make child job directory: /tmp/qchem33362//Frg1/
Attempting to make child job directory: /tmp/qchem33362//Frg2/
Creating input file /tmp/qchem33362/Frg1.input
using default PutDataFrgm: nothing
calling putenv with: QCSCRATCH=/tmp/qchem33362/ 
calling putenv with: QCLOCALSCR=/tmp/qchem33362/ 
Spawning Job For Fragment 0
                  Welcome to Q-Chem
     A Quantum Leap Into The Future Of Chemistry


 Q-Chem 5.2, Q-Chem, Inc., Pleasanton, CA (2019)

 License issued to: National Energy Research Scientific Computing Center

 Yihan Shao,  Zhengting Gan,  E. Epifanovsky,  A. T. B. Gilbert,  M. Wormit,  
 J. Kussmann,  A. W. Lange,  A. Behn,  Jia Deng,  Xintian Feng,  D. Ghosh,  
 M. Goldey,  P. R. Horn,  L. D. Jacobson,  I. Kaliman,  T. Kus,  A. Landau,  
 Jie Liu,  E. I. Proynov,  R. M. Richard,  R. P. Steele,  E. J. Sundstrom,  
 H. L. Woodcock III,  P. M. Zimmerman,  D. Zuev,  B. Albrecht,  E. Alguire,  
 S. A. Baeppler,  D. Barton,  Z. Benda,  Y. A. Bernard,  E. J. Berquist,  
 K. B. Bravaya,  H. Burton,  D. Casanova,  Chun-Min Chang,  Yunqing Chen,  
 A. Chien,  K. D. Closser,  M. P. Coons,  S. Coriani,  S. Dasgupta,  
 A. L. Dempwolff,  M. Diedenhofen,  Hainam Do,  R. G. Edgar,  Po-Tung Fang,  
 S. Faraji,  S. Fatehi,  Qingguo Feng,  K. D. Fenk,  J. Fosso-Tande,  
 J. Gayvert,  Qinghui Ge,  A. Ghysels,  G. Gidofalvi,  J. Gomes,  
 J. Gonthier,  A. Gunina,  D. Hait,  M. W. D. Hanson-Heine,  
 P. H. P. Harbach,  A. W. Hauser,  M. F. Herbst,  J. E. Herr,  
 E. G. Hohenstein,  Z. C. Holden,  Kerwin Hui,  B. C. Huynh,  T.-C. Jagau,  
 Hyunjun Ji,  B. Kaduk,  K. Khistyaev,  Jaehoon Kim,  P. Klunzinger,  K. Koh,  
 D. Kosenkov,  L. Koulias,  T. Kowalczyk,  C. M. Krauter,  A. Kunitsa,  
 Ka Un Lao,  A. Laurent,  K. V. Lawler,  Joonho Lee,  D. Lefrancois,  
 S. Lehtola,  D. S. Levine,  Yi-Pei Li,  You-Sheng Lin,  Fenglai Liu,  
 E. Livshits,  A. Luenser,  P. Manohar,  E. Mansoor,  S. F. Manzer,  
 Shan-Ping Mao,  Yuezhi Mao,  N. Mardirossian,  A. V. Marenich,  
 T. Markovich,  L. A. Martinez-Martinez,  S. A. Maurer,  N. J. Mayhall,  
 S. C. McKenzie,  J.-M. Mewes,  P. Morgante,  A. F. Morrison,  
 J. W. Mullinax,  K. Nanda,  T. S. Nguyen-Beck,  R. Olivares-Amaya,  
 J. A. Parkhill,  Zheng Pei,  T. M. Perrine,  F. Plasser,  P. Pokhilko,  
 S. Prager,  A. Prociuk,  E. Ramos,  D. R. Rehn,  F. Rob,  M. Scheurer,  
 M. Schneider,  N. Sergueev,  S. M. Sharada,  S. Sharma,  D. W. Small,  
 T. Stauch,  T. Stein,  Yu-Chuan Su,  A. J. W. Thom,  A. Tkatchenko,  
 T. Tsuchimochi,  N. M. Tubman,  L. Vogt,  M. L. Vidal,  O. Vydrov,  
 M. A. Watson,  J. Wenzel,  M. de Wergifosse,  T. A. Wesolowski,  A. White,  
 J. Witte,  A. Yamada,  Jun Yang,  K. Yao,  S. Yeganeh,  S. R. Yost,  
 Zhi-Qiang You,  A. Zech,  Igor Ying Zhang,  Xing Zhang,  Yan Zhao,  
 Ying Zhu,  B. R. Brooks,  G. K. L. Chan,  C. J. Cramer,  M. S. Gordon,  
 W. J. Hehre,  A. Klamt,  M. W. Schmidt,  C. D. Sherrill,  D. G. Truhlar,  
 A. Aspuru-Guzik,  R. Baer,  A. T. Bell,  N. A. Besley,  Jeng-Da Chai,  
 A. E. DePrince, III,  R. A. DiStasio Jr.,  A. Dreuw,  B. D. Dunietz,  
 T. R. Furlani,  Chao-Ping Hsu,  Yousung Jung,  Jing Kong,  D. S. Lambrecht,  
 WanZhen Liang,  C. Ochsenfeld,  V. A. Rassolov,  L. V. Slipchenko,  
 J. E. Subotnik,  T. Van Voorhis,  J. M. Herbert,  A. I. Krylov,  
 P. M. W. Gill,  M. Head-Gordon

 Contributors to earlier versions of Q-Chem not listed above: 
 R. D. Adamson,  B. Austin,  J. Baker,  G. J. O. Beran,  K. Brandhorst,  
 S. T. Brown,  E. F. C. Byrd,  A. K. Chakraborty,  C.-L. Cheng,  
 Siu Hung Chien,  D. M. Chipman,  D. L. Crittenden,  H. Dachsel,  
 R. J. Doerksen,  A. D. Dutoi,  L. Fusti-Molnar,  W. A. Goddard III,  
 A. Golubeva-Zadorozhnaya,  S. R. Gwaltney,  G. Hawkins,  A. Heyden,  
 S. Hirata,  G. Kedziora,  F. J. Keil,  C. Kelley,  Jihan Kim,  R. A. King,  
 R. Z. Khaliullin,  P. P. Korambath,  W. Kurlancheek,  A. M. Lee,  M. S. Lee,  
 S. V. Levchenko,  Ching Yeh Lin,  D. Liotard,  R. C. Lochan,  I. Lotan,  
 P. E. Maslen,  N. Nair,  D. P. O'Neill,  D. Neuhauser,  E. Neuscamman,  
 C. M. Oana,  R. Olson,  B. Peters,  R. Peverati,  P. A. Pieniazek,  
 Y. M. Rhee,  J. Ritchie,  M. A. Rohrdanz,  E. Rosta,  N. J. Russ,  
 H. F. Schaefer III,  N. E. Schultz,  N. Shenvi,  A. C. Simmonett,  A. Sodt,  
 D. Stuck,  K. S. Thanthiriwatte,  V. Vanovschi,  Tao Wang,  A. Warshel,  
 C. F. Williams,  Q. Wu,  X. Xu,  W. Zhang

 Please cite Q-Chem as follows:
 Y. Shao et al., Mol. Phys. 113, 184-215 (2015)
 DOI: 10.1080/00268976.2014.952696

 Q-Chem 5.2.0 for Intel X86 EM64T Linux

 Parts of Q-Chem use Armadillo 8.300.2 (Tropical Shenanigans).
 http://arma.sourceforge.net/

 Q-Chem begins on Sun Sep 26 13:18:04 2021  

Host: cori01
0

     Scratch files written to /tmp/qchem33362//Frg1//
 May1019 |scratch|qcdevops|jenkins|workspace|build_RNUM -1
Processing $rem in /global/common/cori/software/qchem/5.2/config/preferences:
	 MEM_TOTAL  96000 
NAlpha2: 50
NElect   50
Mult     1
Symmetry turned off for PCM/SM12/SMD calculation

Checking the input file for inconsistencies... 	...done.

--------------------------------------------------------------
User input:
--------------------------------------------------------------
$molecule
0 1
 6	0.5461011805	-3.2450731793	2.2692901064
 6	2.3161011805	-0.7360731794	-0.0427098936
 6	1.6641011805	-1.2900731793	1.0592901064
 6	2.4241011805	-1.4660731793	-1.2297098936
 6	1.1961011805	-2.6110731793	1.0372901064
 6	1.9631011805	-2.7990731794	-1.2857098936
 6	1.2821011805	-3.3410731793	-0.1557098936
 1	2.6801011805	0.2769268207	0.0042901064
 1	1.5691011805	-0.7050731794	1.9632901064
 1	2.9101011805	-1.0270731794	-2.0897098936
 1	2.0691011805	-3.3780731793	-2.1937098936
 1	1.2631011805	-3.1580731794	3.0872901064
 1	0.3751011805	-4.3100731793	2.1022901064
 1	0.8951011805	-4.3500731794	-0.2027098936
 1	-0.3923628195	-2.7647791794	2.5833001064
$end
$rem
EDA2		1
METHOD		WB97X-V
BASIS		DEF2-TZVPD
XC_GRID		000099000590
NL_GRID		1
UNRESTRICTED		FALSE
MAX_SCF_CYCLES		200
SYMMETRY		FALSE
SYM_IGNORE		TRUE
BASIS_LIN_DEP_THRESH		6
THRESH		14
SCF_CONVERGENCE		8
SCF_PRINT_FRGM		TRUE
SOLVENT_METHOD		SMD
!required keywords
JOBTYPE		SP
SYM_IGNORE		TRUE
SUBSYSTEM		TRUE
GEN_SCFMAN		TRUE
CHILD_INSTRUCTION		2
SYM_IGNORE		TRUE
SCFMI		0
RI_K 0		
PARI_K 0		
MIN_PARI_K 0		
IARI_K 0		
OCC_RI_K 0		
PURECART		1111
MEM_STATIC		2000
MEM_TOTAL		96000
GUI		0
CHILD_MP		1
CHILD_MP_ORDERS		232
FRZ_RELAX		0
FRZ_RELAX_METHOD		0
EDA_CLS_ELEC		1
EDA_CLS_DISP		0
FRZ_ORTHO_DECOMP		1
EDA2		FALSE
FRGM_METHOD		FALSE
CIS_N_ROOTS  0
LOCAL_CIS    0
CIS_RLX_DNS  1
$end
$smx
SOLVENT			WATER
$end
--------------------------------------------------------------
 ----------------------------------------------------------------
             Standard Nuclear Orientation (Angstroms)
    I     Atom           X                Y                Z
 ----------------------------------------------------------------
    1      C       0.5461011805    -3.2450731793     2.2692901064
    2      C       2.3161011805    -0.7360731794    -0.0427098936
    3      C       1.6641011805    -1.2900731793     1.0592901064
    4      C       2.4241011805    -1.4660731793    -1.2297098936
    5      C       1.1961011805    -2.6110731793     1.0372901064
    6      C       1.9631011805    -2.7990731794    -1.2857098936
    7      C       1.2821011805    -3.3410731793    -0.1557098936
    8      H       2.6801011805     0.2769268207     0.0042901064
    9      H       1.5691011805    -0.7050731794     1.9632901064
   10      H       2.9101011805    -1.0270731794    -2.0897098936
   11      H       2.0691011805    -3.3780731793    -2.1937098936
   12      H       1.2631011805    -3.1580731794     3.0872901064
   13      H       0.3751011805    -4.3100731793     2.1022901064
   14      H       0.8951011805    -4.3500731794    -0.2027098936
   15      H      -0.3923628195    -2.7647791794     2.5833001064
 ----------------------------------------------------------------
 Nuclear Repulsion Energy =         267.51764773 hartrees
 There are       25 alpha and       25 beta electrons
 Requested basis set is def2-TZVPD
 There are 131 shells and 331 basis functions

 Total QAlloc Memory Limit  96000 MB
 Mega-Array Size      1956 MB
 MEM_STATIC part      2000 MB
 
 Citation of the SMD model:
 Marenich, A.V.; Cramer, C.J.; Truhlar, D.G.
 J. Phys. Chem. B 2009, 113, 6378-6396.
 iSolventCode=           1
 Solvent: water                                                           
 
 vradii
            1           2           3           4           5           6
    1   1.8500000   1.8500000   1.8500000   1.8500000   1.8500000   1.8500000
            7           8           9          10          11          12
    1   1.8500000   1.2000000   1.2000000   1.2000000   1.2000000   1.2000000
           13          14          15
    1   1.2000000   1.2000000   1.2000000
 Changing PCM_VDW_RADII to SMD_RADIUS
 Discretize the solute cavity surface with Lebedev spheres
	Using 110 Lebedev grid points for each H atom
	Using 194 Lebedev grid points for other atoms
	Atomic van der Waals radii will be scaled by 1.20
 Remove points where switching function is < 1.0e-08
 Keep 1090 surface tesserae and discard 1148 interior tesserae
 Molecular Surface Area = 133.001 Angst**2

                       Distance Matrix (Angstroms)
             C (  1)   C (  2)   C (  3)   C (  4)   C (  5)   C (  6)
   C (  2)  3.843608
   C (  3)  2.556570  1.395143
   C (  4)  4.351405  1.397688  2.418284
   C (  5)  1.530451  2.436478  1.401624  2.821046
   C (  6)  3.852899  2.434261  2.804551  1.411576  2.453561
   C (  7)  2.536048  2.804987  2.414280  2.444026  1.401265  1.426333
   H (  8)  4.699858  1.077439  2.144941  2.150893  3.407329  3.411739
   H (  9)  2.755316  2.140796  1.080956  3.391960  2.151614  3.885367
   H ( 10)  5.432210  2.151215  3.396746  1.080980  3.901920  2.164072
   H ( 11)  4.717583  3.415842  3.886615  2.170499  3.433625  1.082100
   H ( 12)  1.091230  4.095338  2.786218  4.779882  2.122781  4.443198
   H ( 13)  1.091492  4.598041  3.445253  4.836213  2.166764  4.035271
   H ( 14)  2.730130  3.886623  3.398177  3.421992  2.156924  2.172352
   H ( 15)  1.100000  4.283381  2.954050  4.915094  2.221934  4.529749
             C (  7)   H (  8)   H (  9)   H ( 10)   H ( 11)   H ( 12)
   H (  8)  3.882001
   H (  9)  3.394264  2.456894
   H ( 10)  3.427147  2.477529  4.281212
   H ( 11)  2.184990  4.308544  4.967452  2.499059
   H ( 12)  3.248215  4.828251  2.715552  5.835675  5.346681
   H ( 13)  2.619193  5.545737  3.800129  5.897218  4.711038  1.756665
   H ( 14)  1.081693  4.963688  4.293234  4.320107  2.507417  3.518578
   H ( 15)  3.261613  5.034213  2.911038  5.980210  5.408767  1.774612
             H ( 13)   H ( 14)
   H ( 14)  2.363266
   H ( 15)  1.791174  3.454356
 
 A cutoff of  1.0D-14 yielded   8356 shell pairs
 There are     54462 function pairs (     69403 Cartesian)
 Smallest overlap matrix eigenvalue = 8.75E-07
 Linear dependence detected in AO basis
 Tighter screening thresholds may be required for diffuse basis sets
 Use S2THRESH > 14 and THRESH = 14 in case of SCF convergence issues
 Number of orthogonalized atomic orbitals = 330
 Maximum deviation from orthogonality = 8.548E-11

 Scale SEOQF with 1.000000e-01/1.000000e-01/1.000000e-01

 Standard Electronic Orientation quadrupole field applied
 Nucleus-field energy     =     0.0000000174 hartrees
 Guess from superposition of atomic densities
 Warning:  Energy on first SCF cycle will be non-variational
 SAD guess density has 49.913408 electrons

 -----------------------------------------------------------------------
  General SCF calculation program by
  Eric Jon Sundstrom, Paul Horn, Yuezhi Mao, Dmitri Zuev, Alec White,
  David Stuck, Shaama M.S., Shane Yost, Joonho Lee, David Small,
  Daniel Levine, Susi Lehtola, Hugh Burton, Evgeny Epifanovsky
 -----------------------------------------------------------------------
 Exchange:     0.1670 Hartree-Fock + 1.0000 wB97X-V + LR-HF
 Correlation:  1.0000 wB97X-V
 Using Euler-Maclaurin-Lebedev (99,590) quadrature formula
 Nonlocal Correlation:  VV10 with C = 0.0100 and b = 6.00 and scale = 1.00000
 Grid used for NLC:  SG-1 standard quadrature
Energy prior to optimization (guess energy) = -271.521012194220
Begin Timing: Total SCF Calculation
begin iterations for algorithm: DIIS         
the SCF tolerance is set to 1.00e-08
    1    -271.5210121942      1.88e-03     00000 
    2    -271.5605368617      1.21e-03     00000 
    3    -271.5823262140      1.56e-04     00000 
    4    -271.5830397933      4.80e-05     00000 
    5    -271.5830914011      2.47e-05     00000 
    6    -271.5831013061      5.86e-06     00000 
    7    -271.5831021386      1.95e-06     00000 
    8    -271.5831022098      4.21e-07     00000 
    9    -271.5831022164      1.00e-07     00000 
   10    -271.5831022171      5.18e-08     00000 
   11    -271.5831022172      2.48e-08     00000 
   12    -271.5831022173      7.99e-09     00000 Convergence criterion met
Timing for Total SCF: 1389.00s (wall), 2761.79s (cpu)
(3)  G-ENP(liq) elect-nuc-pol free energy of system     -271.583102217 a.u.
(4)  G-CDS(liq) cavity-dispersion-solvent structure 
     free energy                                                3.2591 kcal/mol
(6)  G-S(liq) free energy of system                     -271.577908581 a.u.
E_pcm = -0.0078481726
E_cds = 0.0051936362
Multipole orders to be included
        2
        3
computing dipole RHS
computing quadrupole RHS
total number of RHS in solve_reponses: 8
RHS batch sizes
        8
Beginning Block Conjugate Gradient Iterations. Batch Number: 0
computing hessian-vector products by finite difference
              1      6.22e-01     00000 Conjugate Gradient Iteration
computing hessian-vector products by finite difference
              2      1.91e-01     00000 Conjugate Gradient Iteration
computing hessian-vector products by finite difference
              3      4.71e-02     00000 Conjugate Gradient Iteration
computing hessian-vector products by finite difference
              4      1.18e-02     00000 Conjugate Gradient Iteration
computing hessian-vector products by finite difference
              5      2.03e-03     00000 Conjugate Gradient Iteration
computing hessian-vector products by finite difference
              6      5.63e-04     00000 Conjugate Gradient Iteration
computing hessian-vector products by finite difference
              7      1.55e-04     00000 Conjugate Gradient Iteration
computing hessian-vector products by finite difference
              8      2.49e-05     00000 Conjugate Gradient Iteration
computing hessian-vector products by finite difference
              9      3.28e-06     00000 Conjugate Gradient Iteration
computing hessian-vector products by finite difference
             10      4.84e-07     00000 Conjugate Gradient Iteration
computing hessian-vector products by finite difference
             11      6.76e-08     00000 Conjugate Gradient Iteration
computing hessian-vector products by finite difference
             12      1.17e-08     00000 Conjugate Gradient Iteration
computing hessian-vector products by finite difference
             13      2.77e-09     00000 CG Converged
batch 0 complete
Done Calculating Responses
TESTING ORTHOGONALIZATION OF MULTIPOLE BASIS
Multipole virts passed orthogonality test
Virts Per Order
           75
          125
 
 --------------------------------------------------------------
 
                    Orbital Energies (a.u.)
 --------------------------------------------------------------
 
 Alpha MOs
 -- Occupied --
-10.2825 -10.2753 -10.2703 -10.2701 -10.2694 -10.2670 -10.2567  -0.9875
 -0.8976  -0.8710  -0.8059  -0.7245  -0.6995  -0.6217  -0.5643  -0.5629
 -0.5257  -0.5229  -0.5064  -0.4817  -0.4669  -0.4377  -0.4329  -0.3439
 -0.3347
 -- Virtual --
  0.0620   0.0688   0.0706   0.0847   0.0899   0.1094   0.1154   0.1181
  0.1346   0.1553   0.1680   0.1740   0.1859   0.1911   0.1995   0.2088
  0.2259   0.2312   0.2362   0.2403   0.2483   0.2607   0.2617   0.2683
  0.2835   0.2854   0.2874   0.2974   0.3016   0.3037   0.3077   0.3161
  0.3202   0.3316   0.3346   0.3435   0.3528   0.3570   0.3697   0.3765
  0.3795   0.3845   0.3883   0.3909   0.3944   0.3997   0.4031   0.4049
  0.4203   0.4302   0.4339   0.4395   0.4434   0.4486   0.4542   0.4589
  0.4687   0.4748   0.4790   0.4872   0.4920   0.5004   0.5124   0.5137
  0.5228   0.5260   0.5317   0.5481   0.5502   0.5540   0.5578   0.5667
  0.5726   0.5839   0.5909   0.5942   0.6006   0.6278   0.6306   0.6356
  0.6503   0.6583   0.6668   0.6783   0.6837   0.6955   0.7100   0.7235
  0.7310   0.7397   0.7468   0.7654   0.7677   0.7730   0.7793   0.7814
  0.7885   0.7959   0.8010   0.8080   0.8118   0.8265   0.8297   0.8316
  0.8370   0.8403   0.8465   0.8581   0.8659   0.8708   0.8847   0.9032
  0.9116   0.9256   0.9291   0.9388   0.9674   1.0187   1.0230   1.0373
  1.0459   1.0589   1.0680   1.0749   1.0900   1.0950   1.1039   1.1382
  1.1577   1.1758   1.2620   1.2645   1.3108   1.3273   1.3528   1.3646
  1.3679   1.4382   1.4453   1.4601   1.4696   1.4832   1.5189   1.5305
  1.6007   1.6115   1.6192   1.6282   1.6542   1.7121   1.7272   1.7517
  1.7695   1.7928   1.7965   1.8079   1.8298   1.8463   1.8515   1.9119
  1.9158   1.9310   1.9442   1.9726   1.9879   1.9892   2.0221   2.0305
  2.0403   2.0507   2.0682   2.0972   2.1097   2.1241   2.1717   2.1934
  2.2027   2.2278   2.2436   2.2732   2.2906   2.3129   2.3741   2.3899
  2.3967   2.4183   2.4648   2.5100   2.5349   2.5472   2.5646   2.6086
  2.6162   2.6400   2.6553   2.6830   2.6952   2.7129   2.7512   2.7630
  2.7764   2.8031   2.8116   2.8365   2.8509   2.8933   2.8997   2.9139
  2.9321   2.9344   2.9647   2.9749   2.9941   3.0080   3.0229   3.0434
  3.0615   3.0754   3.0927   3.1196   3.1381   3.1772   3.1873   3.2146
  3.2256   3.2564   3.2851   3.2942   3.3342   3.3522   3.3587   3.3717
  3.4012   3.4210   3.4272   3.4421   3.4522   3.4795   3.4823   3.4934
  3.5085   3.5305   3.5378   3.5429   3.5488   3.5550   3.5695   3.5957
  3.6138   3.6256   3.6472   3.6683   3.6945   3.7185   3.7669   3.8056
  3.8420   3.8959   3.9205   3.9227   3.9314   3.9696   4.0124   4.0496
  4.1149   4.1982   4.2439   4.2562   4.2793   4.2833   4.3161   4.3205
  4.3387   4.3458   4.3616   4.3785   4.4011   4.4235   4.4689   4.5170
  4.5810   4.5920   4.7291   4.7643   4.7974   4.8132   4.9141   4.9471
  5.0000   5.0225   5.1466   5.2460   5.3211   5.3357   5.4075   5.4679
  5.6329   5.7716  22.5949  22.6555  22.8478  22.8572  22.9607  23.0277
 23.3487
 --------------------------------------------------------------
 
          Ground-State Mulliken Net Atomic Charges

     Atom                 Charge (a.u.)
  ----------------------------------------
      1 C                    -1.013854
      2 C                    -0.492401
      3 C                    -0.371481
      4 C                    -0.531542
      5 C                     0.776512
      6 C                    -0.552284
      7 C                    -0.466305
      8 H                     0.378863
      9 H                     0.381460
     10 H                     0.376754
     11 H                     0.371865
     12 H                     0.251937
     13 H                     0.286315
     14 H                     0.345748
     15 H                     0.258414
  ----------------------------------------
  Sum of atomic charges =     0.000000

 -----------------------------------------------------------------
                    Cartesian Multipole Moments
 -----------------------------------------------------------------
    Charge (ESU x 10^10)
                 0.0000
    Dipole Moment (Debye)
         X      -0.1856      Y      -0.1924      Z       0.4961
       Tot       0.5636
    Quadrupole Moments (Debye-Ang)
        XX     -45.2537     XY       2.9747     YY     -37.5432
        XZ      -2.0269     YZ      -0.2665     ZZ     -37.8707
    Octopole Moments (Debye-Ang^2)
       XXX    -219.1808    XXY     111.0899    XYY     -72.2186
       YYY     256.6229    XXZ     -19.4525    XYZ       4.9198
       YYZ     -13.3502    XZZ     -58.8447    YZZ      84.9515
       ZZZ     -36.6296
    Hexadecapole Moments (Debye-Ang^3)
      XXXX    -892.6713   XXXY     447.7511   XXYY    -447.7674
      XYYY     394.8126   YYYY   -1472.6318   XXXZ      12.9683
      XXYZ      52.4833   XYYZ      -3.5941   YYYZ     131.5287
      XXZZ    -204.1214   XYZZ     110.8070   YYZZ    -326.8680
      XZZZ      22.6085   YZZZ     128.5160   ZZZZ    -498.0326
 -----------------------------------------------------------------
Archival summary:
1\1\nid00539\SP\ProcedureUnspecified\BasisUnspecified\78\meili\SunSep2620:51:282021SunSep2620:51:282021\0\\#,ProcedureUnspecified,BasisUnspecified,\\0,1\C\C,1,1.40127\H,2,1.08169,1,120.065\C,1,1.40162,2,118.938,3,-177.87,0\H,4,1.08096,1,119.593,2,177.716,0\C,4,1.39514,1,121.191,2,-5.73562,0\H,6,1.07744,4,119.787,1,-179.06,0\C,6,1.39769,4,119.969,1,4.78917,0\H,8,1.08098,6,119.886,4,178.635,0\C,8,1.41158,6,120.111,4,-4.69892,0\H,10,1.0821,8,120.437,6,-178.293,0\C,1,1.53045,2,119.71,3,-0.325128,0\H,12,1.09123,1,106.939,2,126.568,0\H,12,1.09149,1,110.339,2,10.3209,0\H,12,1.1,1,114.284,2,-113.765,0\\\@

 Total job time:  27207.53s(wall), 53936.48s(cpu) 
 Sun Sep 26 20:51:31 2021

        *************************************************************
        *                                                           *
        *  Thank you very much for using Q-Chem.  Have a nice day.  *
        *                                                           *
        *************************************************************


Done Job For Fragment 0
calling putenv with: QCSCRATCH=/global/cscratch1/sd/meili 
calling putenv with: QCLOCALSCR=/tmp 
calling putenv with: QCTHREADS=32 
Creating input file /tmp/qchem33362/Frg2.input
using default PutDataFrgm: nothing
calling putenv with: QCSCRATCH=/tmp/qchem33362/ 
calling putenv with: QCLOCALSCR=/tmp/qchem33362/ 
Spawning Job For Fragment 1
                  Welcome to Q-Chem
     A Quantum Leap Into The Future Of Chemistry


 Q-Chem 5.2, Q-Chem, Inc., Pleasanton, CA (2019)

 License issued to: National Energy Research Scientific Computing Center

 Yihan Shao,  Zhengting Gan,  E. Epifanovsky,  A. T. B. Gilbert,  M. Wormit,  
 J. Kussmann,  A. W. Lange,  A. Behn,  Jia Deng,  Xintian Feng,  D. Ghosh,  
 M. Goldey,  P. R. Horn,  L. D. Jacobson,  I. Kaliman,  T. Kus,  A. Landau,  
 Jie Liu,  E. I. Proynov,  R. M. Richard,  R. P. Steele,  E. J. Sundstrom,  
 H. L. Woodcock III,  P. M. Zimmerman,  D. Zuev,  B. Albrecht,  E. Alguire,  
 S. A. Baeppler,  D. Barton,  Z. Benda,  Y. A. Bernard,  E. J. Berquist,  
 K. B. Bravaya,  H. Burton,  D. Casanova,  Chun-Min Chang,  Yunqing Chen,  
 A. Chien,  K. D. Closser,  M. P. Coons,  S. Coriani,  S. Dasgupta,  
 A. L. Dempwolff,  M. Diedenhofen,  Hainam Do,  R. G. Edgar,  Po-Tung Fang,  
 S. Faraji,  S. Fatehi,  Qingguo Feng,  K. D. Fenk,  J. Fosso-Tande,  
 J. Gayvert,  Qinghui Ge,  A. Ghysels,  G. Gidofalvi,  J. Gomes,  
 J. Gonthier,  A. Gunina,  D. Hait,  M. W. D. Hanson-Heine,  
 P. H. P. Harbach,  A. W. Hauser,  M. F. Herbst,  J. E. Herr,  
 E. G. Hohenstein,  Z. C. Holden,  Kerwin Hui,  B. C. Huynh,  T.-C. Jagau,  
 Hyunjun Ji,  B. Kaduk,  K. Khistyaev,  Jaehoon Kim,  P. Klunzinger,  K. Koh,  
 D. Kosenkov,  L. Koulias,  T. Kowalczyk,  C. M. Krauter,  A. Kunitsa,  
 Ka Un Lao,  A. Laurent,  K. V. Lawler,  Joonho Lee,  D. Lefrancois,  
 S. Lehtola,  D. S. Levine,  Yi-Pei Li,  You-Sheng Lin,  Fenglai Liu,  
 E. Livshits,  A. Luenser,  P. Manohar,  E. Mansoor,  S. F. Manzer,  
 Shan-Ping Mao,  Yuezhi Mao,  N. Mardirossian,  A. V. Marenich,  
 T. Markovich,  L. A. Martinez-Martinez,  S. A. Maurer,  N. J. Mayhall,  
 S. C. McKenzie,  J.-M. Mewes,  P. Morgante,  A. F. Morrison,  
 J. W. Mullinax,  K. Nanda,  T. S. Nguyen-Beck,  R. Olivares-Amaya,  
 J. A. Parkhill,  Zheng Pei,  T. M. Perrine,  F. Plasser,  P. Pokhilko,  
 S. Prager,  A. Prociuk,  E. Ramos,  D. R. Rehn,  F. Rob,  M. Scheurer,  
 M. Schneider,  N. Sergueev,  S. M. Sharada,  S. Sharma,  D. W. Small,  
 T. Stauch,  T. Stein,  Yu-Chuan Su,  A. J. W. Thom,  A. Tkatchenko,  
 T. Tsuchimochi,  N. M. Tubman,  L. Vogt,  M. L. Vidal,  O. Vydrov,  
 M. A. Watson,  J. Wenzel,  M. de Wergifosse,  T. A. Wesolowski,  A. White,  
 J. Witte,  A. Yamada,  Jun Yang,  K. Yao,  S. Yeganeh,  S. R. Yost,  
 Zhi-Qiang You,  A. Zech,  Igor Ying Zhang,  Xing Zhang,  Yan Zhao,  
 Ying Zhu,  B. R. Brooks,  G. K. L. Chan,  C. J. Cramer,  M. S. Gordon,  
 W. J. Hehre,  A. Klamt,  M. W. Schmidt,  C. D. Sherrill,  D. G. Truhlar,  
 A. Aspuru-Guzik,  R. Baer,  A. T. Bell,  N. A. Besley,  Jeng-Da Chai,  
 A. E. DePrince, III,  R. A. DiStasio Jr.,  A. Dreuw,  B. D. Dunietz,  
 T. R. Furlani,  Chao-Ping Hsu,  Yousung Jung,  Jing Kong,  D. S. Lambrecht,  
 WanZhen Liang,  C. Ochsenfeld,  V. A. Rassolov,  L. V. Slipchenko,  
 J. E. Subotnik,  T. Van Voorhis,  J. M. Herbert,  A. I. Krylov,  
 P. M. W. Gill,  M. Head-Gordon

 Contributors to earlier versions of Q-Chem not listed above: 
 R. D. Adamson,  B. Austin,  J. Baker,  G. J. O. Beran,  K. Brandhorst,  
 S. T. Brown,  E. F. C. Byrd,  A. K. Chakraborty,  C.-L. Cheng,  
 Siu Hung Chien,  D. M. Chipman,  D. L. Crittenden,  H. Dachsel,  
 R. J. Doerksen,  A. D. Dutoi,  L. Fusti-Molnar,  W. A. Goddard III,  
 A. Golubeva-Zadorozhnaya,  S. R. Gwaltney,  G. Hawkins,  A. Heyden,  
 S. Hirata,  G. Kedziora,  F. J. Keil,  C. Kelley,  Jihan Kim,  R. A. King,  
 R. Z. Khaliullin,  P. P. Korambath,  W. Kurlancheek,  A. M. Lee,  M. S. Lee,  
 S. V. Levchenko,  Ching Yeh Lin,  D. Liotard,  R. C. Lochan,  I. Lotan,  
 P. E. Maslen,  N. Nair,  D. P. O'Neill,  D. Neuhauser,  E. Neuscamman,  
 C. M. Oana,  R. Olson,  B. Peters,  R. Peverati,  P. A. Pieniazek,  
 Y. M. Rhee,  J. Ritchie,  M. A. Rohrdanz,  E. Rosta,  N. J. Russ,  
 H. F. Schaefer III,  N. E. Schultz,  N. Shenvi,  A. C. Simmonett,  A. Sodt,  
 D. Stuck,  K. S. Thanthiriwatte,  V. Vanovschi,  Tao Wang,  A. Warshel,  
 C. F. Williams,  Q. Wu,  X. Xu,  W. Zhang

 Please cite Q-Chem as follows:
 Y. Shao et al., Mol. Phys. 113, 184-215 (2015)
 DOI: 10.1080/00268976.2014.952696

 Q-Chem 5.2.0 for Intel X86 EM64T Linux

 Parts of Q-Chem use Armadillo 8.300.2 (Tropical Shenanigans).
 http://arma.sourceforge.net/

 Q-Chem begins on Sun Sep 26 20:51:35 2021  

Host: cori01
0

     Scratch files written to /tmp/qchem33362//Frg2//
 May1019 |scratch|qcdevops|jenkins|workspace|build_RNUM -1
Processing $rem in /global/common/cori/software/qchem/5.2/config/preferences:
	 MEM_TOTAL  96000 
NAlpha2: 50
NElect   50
Mult     1
Symmetry turned off for PCM/SM12/SMD calculation

Checking the input file for inconsistencies... 	...done.

--------------------------------------------------------------
User input:
--------------------------------------------------------------
$molecule
0 1
 6	-2.7518988195	1.0869268207	1.5702901064
 6	-1.0658988195	1.1159268206	-0.3277098936
 6	-2.0478988195	1.7789268207	0.4262901064
 6	-0.4388988195	1.7749268206	-1.3737098936
 6	-2.3578988195	3.1139268207	0.1362901064
 6	-0.7508988195	3.1049268206	-1.6657098936
 6	-1.7128988195	3.7889268206	-0.9147098936
 1	-0.8088988195	0.0879268207	-0.1097098936
 1	0.3151011805	1.2599268207	-1.9487098936
 1	-2.6798988195	1.7019268207	2.4692901064
 1	-2.2358988195	0.1509268206	1.7762901064
 1	-3.1078988195	3.6289268206	0.7182901064
 1	-0.2348988195	3.5929268206	-2.4777098936
 1	-1.9618988195	4.8179268207	-1.1347098936
 1	-3.8153228195	0.8898108206	1.3696001064
$end
$rem
EDA2		1
METHOD		WB97X-V
BASIS		DEF2-TZVPD
XC_GRID		000099000590
NL_GRID		1
UNRESTRICTED		FALSE
MAX_SCF_CYCLES		200
SYMMETRY		FALSE
SYM_IGNORE		TRUE
BASIS_LIN_DEP_THRESH		6
THRESH		14
SCF_CONVERGENCE		8
SCF_PRINT_FRGM		TRUE
SOLVENT_METHOD		SMD
!required keywords
JOBTYPE		SP
SYM_IGNORE		TRUE
SUBSYSTEM		TRUE
GEN_SCFMAN		TRUE
CHILD_INSTRUCTION		2
SYM_IGNORE		TRUE
SCFMI		0
RI_K 0		
PARI_K 0		
MIN_PARI_K 0		
IARI_K 0		
OCC_RI_K 0		
PURECART		1111
MEM_STATIC		2000
MEM_TOTAL		96000
GUI		0
CHILD_MP		1
CHILD_MP_ORDERS		232
FRZ_RELAX		0
FRZ_RELAX_METHOD		0
EDA_CLS_ELEC		1
EDA_CLS_DISP		0
FRZ_ORTHO_DECOMP		1
EDA2		FALSE
FRGM_METHOD		FALSE
CIS_N_ROOTS  0
LOCAL_CIS    0
CIS_RLX_DNS  1
$end
$smx
SOLVENT			WATER
$end
--------------------------------------------------------------
 ----------------------------------------------------------------
             Standard Nuclear Orientation (Angstroms)
    I     Atom           X                Y                Z
 ----------------------------------------------------------------
    1      C      -2.7518988195     1.0869268207     1.5702901064
    2      C      -1.0658988195     1.1159268206    -0.3277098936
    3      C      -2.0478988195     1.7789268207     0.4262901064
    4      C      -0.4388988195     1.7749268206    -1.3737098936
    5      C      -2.3578988195     3.1139268207     0.1362901064
    6      C      -0.7508988195     3.1049268206    -1.6657098936
    7      C      -1.7128988195     3.7889268206    -0.9147098936
    8      H      -0.8088988195     0.0879268207    -0.1097098936
    9      H       0.3151011805     1.2599268207    -1.9487098936
   10      H      -2.6798988195     1.7019268207     2.4692901064
   11      H      -2.2358988195     0.1509268206     1.7762901064
   12      H      -3.1078988195     3.6289268206     0.7182901064
   13      H      -0.2348988195     3.5929268206    -2.4777098936
   14      H      -1.9618988195     4.8179268207    -1.1347098936
   15      H      -3.8153228195     0.8898108206     1.3696001064
 ----------------------------------------------------------------
 Nuclear Repulsion Energy =         268.90882440 hartrees
 There are       25 alpha and       25 beta electrons
 Requested basis set is def2-TZVPD
 There are 131 shells and 331 basis functions

 Total QAlloc Memory Limit  96000 MB
 Mega-Array Size      1956 MB
 MEM_STATIC part      2000 MB
 
 Citation of the SMD model:
 Marenich, A.V.; Cramer, C.J.; Truhlar, D.G.
 J. Phys. Chem. B 2009, 113, 6378-6396.
 iSolventCode=           1
 Solvent: water                                                           
 
 vradii
            1           2           3           4           5           6
    1   1.8500000   1.8500000   1.8500000   1.8500000   1.8500000   1.8500000
            7           8           9          10          11          12
    1   1.8500000   1.2000000   1.2000000   1.2000000   1.2000000   1.2000000
           13          14          15
    1   1.2000000   1.2000000   1.2000000
 Changing PCM_VDW_RADII to SMD_RADIUS
 Discretize the solute cavity surface with Lebedev spheres
	Using 110 Lebedev grid points for each H atom
	Using 194 Lebedev grid points for other atoms
	Atomic van der Waals radii will be scaled by 1.20
 Remove points where switching function is < 1.0e-08
 Keep 1093 surface tesserae and discard 1145 interior tesserae
 Molecular Surface Area = 132.380 Angst**2

                       Distance Matrix (Angstroms)
             C (  1)   C (  2)   C (  3)   C (  4)   C (  5)   C (  6)
   C (  2)  2.538866
   C (  3)  1.511031  1.404425
   C (  4)  3.806632  1.386191  2.414311
   C (  5)  2.514025  2.424163  1.400866  2.784885
   C (  6)  4.306741  2.417765  2.795881  1.396964  2.414484
   C (  7)  3.815174  2.812136  2.439386  2.426923  1.405792  1.399036
   H (  8)  2.756021  1.081830  2.163769  2.140225  3.408312  3.395113
   H (  9)  4.671165  2.134371  3.390244  1.079058  3.863867  2.149528
   H ( 10)  1.091609  3.282012  2.139907  4.449276  2.745964  4.773644
   H ( 11)  1.088480  2.593635  2.123259  3.973548  3.388783  4.772704
   H ( 12)  2.704515  3.402800  2.152060  3.864886  1.080023  3.393152
   H ( 13)  5.385316  3.383577  3.874375  2.136716  3.401406  1.078770
   H ( 14)  4.675627  3.893439  3.417549  3.411231  2.162377  2.163990
   H ( 15)  1.100001  3.239031  2.191837  4.439529  2.931182  4.848767
             C (  7)   H (  8)   H (  9)   H ( 10)   H ( 11)   H ( 12)
   H (  8)  3.893924
   H (  9)  3.402614  2.453341
   H ( 10)  4.091713  3.571677  5.355755
   H ( 11)  4.555223  2.365860  4.648990  1.755843
   H ( 12)  2.153675  4.302286  4.943883  2.638658  3.738480
   H ( 13)  2.160062  4.268715  2.454634  5.833242  5.826481  4.297655
   H ( 14)  1.081315  4.975232  4.301940  4.818070  5.507258  2.482065
   H ( 15)  4.247721  3.445281  5.311174  1.777087  1.790510  2.903000
             H ( 13)   H ( 14)
   H ( 14)  2.507350
   H ( 15)  5.909997  5.013666
 
 A cutoff of  1.0D-14 yielded   8360 shell pairs
 There are     54504 function pairs (     69458 Cartesian)
 Smallest overlap matrix eigenvalue = 6.06E-07
 Linear dependence detected in AO basis
 Tighter screening thresholds may be required for diffuse basis sets
 Use S2THRESH > 14 and THRESH = 14 in case of SCF convergence issues
 Number of orthogonalized atomic orbitals = 330
 Maximum deviation from orthogonality = 1.556E-10

 Scale SEOQF with 1.000000e-01/1.000000e-01/1.000000e-01

 Standard Electronic Orientation quadrupole field applied
 Nucleus-field energy     =     0.0000000205 hartrees
 Guess from superposition of atomic densities
 Warning:  Energy on first SCF cycle will be non-variational
 SAD guess density has 49.913408 electrons

 -----------------------------------------------------------------------
  General SCF calculation program by
  Eric Jon Sundstrom, Paul Horn, Yuezhi Mao, Dmitri Zuev, Alec White,
  David Stuck, Shaama M.S., Shane Yost, Joonho Lee, David Small,
  Daniel Levine, Susi Lehtola, Hugh Burton, Evgeny Epifanovsky
 -----------------------------------------------------------------------
 Exchange:     0.1670 Hartree-Fock + 1.0000 wB97X-V + LR-HF
 Correlation:  1.0000 wB97X-V
 Using Euler-Maclaurin-Lebedev (99,590) quadrature formula
 Nonlocal Correlation:  VV10 with C = 0.0100 and b = 6.00 and scale = 1.00000
 Grid used for NLC:  SG-1 standard quadrature
Energy prior to optimization (guess energy) = -271.521178115583
Begin Timing: Total SCF Calculation
begin iterations for algorithm: DIIS         
the SCF tolerance is set to 1.00e-08
    1    -271.5211781156      1.93e-03     00000 
    2    -271.5617129649      1.25e-03     00000 
    3    -271.5846986000      1.55e-04     00000 
    4    -271.5854062958      4.64e-05     00000 
    5    -271.5854571514      2.22e-05     00000 
    6    -271.5854652671      5.54e-06     00000 
    7    -271.5854660131      1.65e-06     00000 
    8    -271.5854660628      4.06e-07     00000 
    9    -271.5854660676      8.94e-08     00000 
   10    -271.5854660679      3.53e-08     00000 
   11    -271.5854660679      1.44e-08     00000 
   12    -271.5854660679      4.14e-09     00000 Convergence criterion met
Timing for Total SCF: 1272.00s (wall), 2522.68s (cpu)
(3)  G-ENP(liq) elect-nuc-pol free energy of system     -271.585466068 a.u.
(4)  G-CDS(liq) cavity-dispersion-solvent structure 
     free energy                                                3.1984 kcal/mol
(6)  G-S(liq) free energy of system                     -271.580369092 a.u.
E_pcm = -0.0076738644
E_cds = 0.0050969762
Multipole orders to be included
        2
        3
computing dipole RHS
computing quadrupole RHS
total number of RHS in solve_reponses: 8
RHS batch sizes
        8
Beginning Block Conjugate Gradient Iterations. Batch Number: 0
computing hessian-vector products by finite difference
              1      6.25e-01     00000 Conjugate Gradient Iteration
computing hessian-vector products by finite difference
              2      1.92e-01     00000 Conjugate Gradient Iteration
computing hessian-vector products by finite difference
              3      4.60e-02     00000 Conjugate Gradient Iteration
computing hessian-vector products by finite difference
              4      1.17e-02     00000 Conjugate Gradient Iteration
computing hessian-vector products by finite difference
              5      2.40e-03     00000 Conjugate Gradient Iteration
computing hessian-vector products by finite difference
              6      7.13e-04     00000 Conjugate Gradient Iteration
computing hessian-vector products by finite difference
              7      1.68e-04     00000 Conjugate Gradient Iteration
computing hessian-vector products by finite difference
              8      2.54e-05     00000 Conjugate Gradient Iteration
computing hessian-vector products by finite difference
              9      3.70e-06     00000 Conjugate Gradient Iteration
computing hessian-vector products by finite difference
             10      5.56e-07     00000 Conjugate Gradient Iteration
computing hessian-vector products by finite difference
             11      1.03e-07     00000 Conjugate Gradient Iteration
computing hessian-vector products by finite difference
             12      1.72e-08     00000 Conjugate Gradient Iteration
computing hessian-vector products by finite difference
             13      2.77e-09     00000 CG Converged
batch 0 complete
Done Calculating Responses
TESTING ORTHOGONALIZATION OF MULTIPOLE BASIS
Multipole virts passed orthogonality test
Virts Per Order
           75
          125
 
 --------------------------------------------------------------
 
                    Orbital Energies (a.u.)
 --------------------------------------------------------------
 
 Alpha MOs
 -- Occupied --
-10.2801 -10.2716 -10.2678 -10.2667 -10.2665 -10.2659 -10.2541  -0.9904
 -0.8995  -0.8744  -0.8058  -0.7242  -0.7002  -0.6229  -0.5669  -0.5617
 -0.5271  -0.5254  -0.5063  -0.4807  -0.4681  -0.4364  -0.4341  -0.3466
 -0.3332
 -- Virtual --
  0.0656   0.0682   0.0704   0.0843   0.0898   0.1094   0.1155   0.1179
  0.1408   0.1601   0.1708   0.1785   0.1868   0.1954   0.1992   0.2058
  0.2279   0.2332   0.2378   0.2446   0.2523   0.2629   0.2650   0.2760
  0.2859   0.2870   0.2927   0.2960   0.2982   0.3047   0.3062   0.3166
  0.3239   0.3297   0.3347   0.3451   0.3549   0.3565   0.3718   0.3772
  0.3791   0.3858   0.3911   0.3936   0.3973   0.4033   0.4069   0.4080
  0.4195   0.4318   0.4363   0.4404   0.4452   0.4506   0.4549   0.4623
  0.4686   0.4765   0.4810   0.4894   0.4974   0.5016   0.5158   0.5180
  0.5204   0.5259   0.5358   0.5472   0.5493   0.5564   0.5598   0.5701
  0.5765   0.5808   0.5924   0.5981   0.6019   0.6262   0.6388   0.6460
  0.6707   0.6756   0.6851   0.6881   0.6932   0.7072   0.7229   0.7281
  0.7336   0.7391   0.7497   0.7608   0.7676   0.7696   0.7774   0.7871
  0.7915   0.7946   0.7995   0.8070   0.8145   0.8266   0.8287   0.8324
  0.8382   0.8414   0.8536   0.8605   0.8677   0.8701   0.8837   0.8996
  0.9155   0.9265   0.9405   0.9484   0.9576   1.0076   1.0352   1.0420
  1.0476   1.0672   1.0681   1.0770   1.0915   1.1015   1.1047   1.1424
  1.1630   1.1744   1.2605   1.2753   1.3007   1.3310   1.3552   1.3595
  1.3752   1.4416   1.4535   1.4620   1.4640   1.4769   1.5318   1.5365
  1.6060   1.6166   1.6237   1.6283   1.6555   1.6767   1.7423   1.7763
  1.7838   1.7895   1.8074   1.8214   1.8358   1.8559   1.8891   1.9148
  1.9209   1.9250   1.9340   1.9765   1.9924   1.9963   2.0152   2.0284
  2.0402   2.0473   2.0723   2.0888   2.1163   2.1275   2.1774   2.1916
  2.2038   2.2360   2.2509   2.2756   2.2950   2.3138   2.3863   2.3970
  2.4037   2.4210   2.4607   2.5179   2.5435   2.5579   2.5654   2.6098
  2.6190   2.6451   2.6717   2.6809   2.6976   2.7152   2.7642   2.7690
  2.7817   2.8095   2.8156   2.8452   2.8646   2.8936   2.9111   2.9209
  2.9326   2.9410   2.9764   2.9786   2.9938   3.0194   3.0220   3.0541
  3.0631   3.0921   3.0964   3.1297   3.1642   3.1955   3.1997   3.2184
  3.2345   3.2598   3.2763   3.2889   3.3500   3.3617   3.3657   3.3788
  3.4135   3.4329   3.4481   3.4548   3.4615   3.4741   3.4872   3.4935
  3.5071   3.5378   3.5423   3.5430   3.5494   3.5628   3.5737   3.6065
  3.6300   3.6363   3.6517   3.6897   3.7148   3.7482   3.7652   3.8061
  3.8473   3.9003   3.9290   3.9438   3.9497   3.9983   4.0295   4.0498
  4.1243   4.2045   4.2625   4.2743   4.2815   4.3018   4.3269   4.3327
  4.3487   4.3579   4.3757   4.3966   4.4032   4.4462   4.4937   4.5238
  4.5931   4.6136   4.7589   4.7834   4.8088   4.8430   4.9089   4.9467
  5.0147   5.0477   5.1582   5.2696   5.3480   5.3713   5.4913   5.5243
  5.6621   5.8456  22.5962  22.6806  22.8692  22.8928  22.9884  23.0582
 23.3849
 --------------------------------------------------------------
 
          Ground-State Mulliken Net Atomic Charges

     Atom                 Charge (a.u.)
  ----------------------------------------
      1 C                    -1.076367
      2 C                    -0.467524
      3 C                     0.831217
      4 C                    -0.553631
      5 C                    -0.361425
      6 C                    -0.542921
      7 C                    -0.571619
      8 H                     0.363221
      9 H                     0.373922
     10 H                     0.261641
     11 H                     0.297274
     12 H                     0.410024
     13 H                     0.402636
     14 H                     0.381720
     15 H                     0.251833
  ----------------------------------------
  Sum of atomic charges =     0.000000

 -----------------------------------------------------------------
                    Cartesian Multipole Moments
 -----------------------------------------------------------------
    Charge (ESU x 10^10)
                -0.0000
    Dipole Moment (Debye)
         X      -0.2435      Y      -0.2311      Z       0.4413
       Tot       0.5545
    Quadrupole Moments (Debye-Ang)
        XX     -41.0955     XY      -2.2635     YY     -39.3751
        XZ      -4.8293     YZ      -0.7232     ZZ     -41.3313
    Octopole Moments (Debye-Ang^2)
       XXX     199.5208    XXY     -87.0595    XYY      53.3418
       YYY    -256.6952    XXZ      23.3951    XYZ      -8.2819
       YYZ       2.4053    XZZ      72.7425    YZZ     -88.8974
       ZZZ      32.4195
    Hexadecapole Moments (Debye-Ang^3)
      XXXX    -892.7957   XXXY     429.7326   XXYY    -383.6989
      XYYY     363.7319   YYYY   -1457.7811   XXXZ      25.1413
      XXYZ      79.4021   XYYZ       7.9630   YYYZ      99.7189
      XXZZ    -227.5404   XYZZ     156.1415   YYZZ    -312.8985
      XZZZ      44.3639   YZZZ     148.9016   ZZZZ    -404.2747
 -----------------------------------------------------------------
Archival summary:
1\1\nid00539\SP\ProcedureUnspecified\BasisUnspecified\78\meili\MonSep2703:57:202021MonSep2703:57:202021\0\\#,ProcedureUnspecified,BasisUnspecified,\\0,1\C\C,1,1.40087\H,2,1.08002,1,119.771\C,1,1.40442,2,119.569,3,-179.598,0\H,4,1.08183,1,120.432,2,179.424,0\C,4,1.38619,1,119.799,2,-1.75113,0\H,6,1.07906,4,119.424,1,179.968,0\C,6,1.39696,4,120.619,1,1.56935,0\H,8,1.07877,6,118.763,4,179.161,0\C,8,1.39904,6,120.454,4,-0.686127,0\H,10,1.08131,8,120.956,6,-179.897,0\C,1,1.51103,2,119.345,3,-1.16934,0\H,12,1.08848,1,108.435,2,-167.904,0\H,12,1.09161,1,109.559,2,-51.0937,0\H,12,1.1,1,113.226,2,69.9837,0\\\@

 Total job time:  25548.20s(wall), 50677.67s(cpu) 
 Mon Sep 27 03:57:22 2021

        *************************************************************
        *                                                           *
        *  Thank you very much for using Q-Chem.  Have a nice day.  *
        *                                                           *
        *************************************************************


Done Job For Fragment 1
calling putenv with: QCSCRATCH=/global/cscratch1/sd/meili 
calling putenv with: QCLOCALSCR=/tmp 
calling putenv with: QCTHREADS=32 
Doing General SCFMI
 Exchange:     0.1670 Hartree-Fock + 1.0000 wB97X-V + LR-HF
 Correlation:  1.0000 wB97X-V
 Using Euler-Maclaurin-Lebedev (99,590) quadrature formula
 Nonlocal Correlation:  VV10 with C = 0.0100 and b = 6.00 and scale = 1.00000
 Grid used for NLC:  SG-1 standard quadrature
performing fock build before subrot guess so that all methods have access
Printing subrot_rss_gen Method Specification:
Occupied Subspace Method is 0
Virtual Subspace Method is 0
Energy of the unrelaxed supersystem initial determinant -543.156512545121
performing fock build before subrot guess so that all methods have access
Printing subrot_rss_gen Method Specification:
Occupied Subspace Method is 0
Virtual Subspace Method is 0
Energy of the unrelaxed supersystem initial determinant w/ solvent -543.170988777588
write pseudocanon occs and virts to disk
write pseudocanon orbital energies to disk
Tolerance of ortho_decomp_scf: 1.00e-06
GDM subspace size: 20
Beginning the Orthogonal Decomposition of the Initial Supersystem Wavefunction
    1    -543.1462570938      1.16e-02     ortho_decomp Preconditoned Steepest Descent
    2    -543.1468293119      2.63e-04     ortho_decomp BFGS Step
    3    -543.1468308685      2.01e-05     ortho_decomp BFGS Step
    4    -543.1468308716      8.00e-07     ortho_decomp 00000 Convergence criterion met
 Hartree-Fock
 Hartree-Fock
 Hartree-Fock
Doing General SCFMI
 Exchange:     0.1670 Hartree-Fock + 1.0000 wB97X-V + LR-HF
 Correlation:  1.0000 wB97X-V
 Using Euler-Maclaurin-Lebedev (99,590) quadrature formula
 Nonlocal Correlation:  VV10 with C = 0.0100 and b = 6.00 and scale = 1.00000
 Grid used for NLC:  SG-1 standard quadrature
performing fock build at end of subrot_r(subrot) constructor so that all methods have access
<S^2> of initial wavefunction before polarization iterations 0.0000000000
Beginning iterations for the determination of the polarized wavefunction
Energy prior to optimization (guess energy) = -543.170988777588
Begin Timing: Total SCF Calculation
begin iterations for algorithm: DIIS         
the SCF tolerance is set to 1.00e-08
    1    -543.1709887776      2.46e-05     00000 
    2    -543.1710510592      1.02e-05     00000 
    3    -543.1710588660      5.90e-06     00000 
    4    -543.1710616263      1.39e-06     00000 
    5    -543.1710618958      6.53e-07     00000 
    6    -543.1710619455      1.51e-07     00000 
    7    -543.1710619490      5.52e-08     00000 
    8    -543.1710619494      2.13e-08     00000 
    9    -543.1710619494      5.91e-09     00000 Convergence criterion met
write pseudocanon occs and virts to disk
write pseudocanon orbital energies to disk
Timing for Total SCF: 6004.00s (wall), 11959.69s (cpu)
<S^2> of polarized wavefunction after polarization iterations 0.0000000000
relaxing scfmi constraint to allow all rotations in the entire AO span
Doing General SCFMI
 Exchange:     0.1670 Hartree-Fock + 1.0000 wB97X-V + LR-HF
 Correlation:  1.0000 wB97X-V
 Using Euler-Maclaurin-Lebedev (99,590) quadrature formula
 Nonlocal Correlation:  VV10 with C = 0.0100 and b = 6.00 and scale = 1.00000
 Grid used for NLC:  SG-1 standard quadrature
performing fock build at end of subrot_r(subrot) constructor so that all methods have access
<S^2> of polarized wavefunction before ct-allowed iterations 0.0000000000
Beginning iterations for the determination of the CT-Allowed wavefunction
Energy prior to optimization (guess energy) = -543.171061949409
Begin Timing: Total SCF Calculation
begin iterations for algorithm: DIIS         
the SCF tolerance is set to 1.00e-08
    1    -543.1710619494      4.25e-05     00000 
    2    -543.1714008331      3.69e-06     00000 
    3    -543.1714101937      6.42e-07     00000 
    4    -543.1714105641      2.13e-07     00000 
    5    -543.1714105792      9.22e-08     00000 
    6    -543.1714105829      1.88e-08     00000 
    7    -543.1714105831      7.87e-09     00000 Convergence criterion met
write pseudocanon occs and virts to disk
write pseudocanon orbital energies to disk
Timing for Total SCF: 4943.00s (wall), 9844.32s (cpu)
<S^2> of ct_allowed wavefunction after ct-allowed iterations 0.0000000000

================================
        Results of EDA2         
================================
Basic EDA Quantities
--------------------
Fragment Energies (Ha):
1 -271.5779085811
2 -271.5803690917
--------------------
  E_prp (kJ/mol) = 0.0000
  E_sol (kJ/mol) = 1.4429
  E_frz (kJ/mol) = -9.1009
  E_pol (kJ/mol) = -0.1921
  E_vct (kJ/mol) = -0.9153
  E_int (kJ/mol) = -8.7654
--------------------


Initial Wavefunction Decomposition
--------------------
  --------------------
  Orthogonal Fragment Subspace Decomposition:
  --------------------
     E_elec   (ELEC)   (kJ/mol) = -10.3763
     E_pauli  (PAULI)  (kJ/mol) = 12.3476
     E_disp   (DISP)   (kJ/mol) = -11.0722
     --------------------
     Terms summing to E_pauli:
     --------------------
        E_kep_pauli       (kJ/mol) = 16.3187
        E_disp_free_pauli (kJ/mol) = -3.9710
  --------------------
  Classical Frozen Decomposition:
  --------------------
     E_cls_elec  (CLS ELEC)  (kJ/mol) = -4.5106
     E_cls_pauli (CLS PAULI) (kJ/mol) = -4.5903
    [E_mod_pauli (MOD PAULI) (kJ/mol) = 6.4819 (CLS PAULI - DISP from orthogonal decomposition) ]
  --------------------
--------------------

Simplified EDA Summary (kJ/mol)
--------------------
 PREPARATION     0.0000
 SOLVATION       1.4429
 FROZEN          1.9713      (does not include dispersion)
[PAULI           12.3476]     (if this is negligible, then frozen describes electrostatics)
 DISPERSION      -11.0722
 POLARIZATION    -0.1921
 CHARGE TRANSFER -0.9153
 TOTAL           -8.7654     (PRP + SOL + FRZ + DISP + POL + CT)
--------------------
 
 --------------------------------------------------------------
 
                    Orbital Energies (a.u.)
 --------------------------------------------------------------
 
 Alpha MOs
 -- Occupied --
-10.2826 -10.2801 -10.2755 -10.2716 -10.2705 -10.2702 -10.2695 -10.2678
-10.2670 -10.2668 -10.2666 -10.2657 -10.2569 -10.2542  -0.9904  -0.9876
 -0.8995  -0.8977  -0.8745  -0.8709  -0.8060  -0.8058  -0.7249  -0.7238
 -0.7005  -0.6993  -0.6233  -0.6216  -0.5670  -0.5647  -0.5630  -0.5615
 -0.5288  -0.5268  -0.5235  -0.5228  -0.5067  -0.5061  -0.4819  -0.4808
 -0.4686  -0.4661  -0.4381  -0.4361  -0.4340  -0.4329  -0.3490  -0.3414
 -0.3349  -0.3330
 -- Virtual --
  0.0583   0.0622   0.0655   0.0677   0.0725   0.0756   0.0779   0.0906
  0.0945   0.0990   0.1051   0.1127   0.1146   0.1171   0.1271   0.1317
  0.1380   0.1497   0.1561   0.1585   0.1696   0.1725   0.1789   0.1843
  0.1886   0.1954   0.1999   0.2081   0.2102   0.2160   0.2200   0.2234
  0.2281   0.2307   0.2358   0.2386   0.2411   0.2456   0.2530   0.2555
  0.2623   0.2671   0.2688   0.2725   0.2783   0.2793   0.2818   0.2850
  0.2859   0.2888   0.2912   0.2953   0.2993   0.3015   0.3037   0.3091
  0.3140   0.3167   0.3175   0.3249   0.3259   0.3311   0.3333   0.3370
  0.3421   0.3450   0.3494   0.3544   0.3566   0.3582   0.3617   0.3661
  0.3688   0.3709   0.3755   0.3778   0.3791   0.3860   0.3861   0.3901
  0.3917   0.3934   0.3986   0.3988   0.4002   0.4028   0.4108   0.4141
  0.4161   0.4190   0.4233   0.4275   0.4308   0.4317   0.4359   0.4375
  0.4424   0.4441   0.4461   0.4522   0.4559   0.4584   0.4603   0.4666
  0.4682   0.4727   0.4739   0.4792   0.4797   0.4835   0.4882   0.4947
  0.4964   0.4991   0.5019   0.5051   0.5103   0.5109   0.5176   0.5214
  0.5269   0.5316   0.5326   0.5360   0.5407   0.5423   0.5456   0.5480
  0.5525   0.5549   0.5627   0.5659   0.5667   0.5768   0.5780   0.5830
  0.5854   0.5892   0.5919   0.5968   0.6080   0.6090   0.6139   0.6193
  0.6259   0.6267   0.6292   0.6335   0.6378   0.6434   0.6497   0.6536
  0.6602   0.6650   0.6709   0.6748   0.6768   0.6848   0.6888   0.6909
  0.6980   0.6991   0.7034   0.7083   0.7113   0.7140   0.7310   0.7311
  0.7335   0.7358   0.7420   0.7449   0.7466   0.7510   0.7515   0.7600
  0.7606   0.7662   0.7700   0.7723   0.7739   0.7820   0.7854   0.7886
  0.7897   0.7945   0.7961   0.7995   0.8034   0.8062   0.8108   0.8165
  0.8196   0.8261   0.8278   0.8305   0.8325   0.8389   0.8409   0.8450
  0.8499   0.8518   0.8541   0.8575   0.8613   0.8655   0.8689   0.8718
  0.8768   0.8827   0.8887   0.8909   0.8951   0.9002   0.9055   0.9116
  0.9128   0.9166   0.9304   0.9347   0.9385   0.9428   0.9516   0.9549
  0.9629   0.9651   0.9706   0.9814   0.9928   1.0048   1.0179   1.0248
  1.0358   1.0418   1.0465   1.0547   1.0624   1.0643   1.0677   1.0806
  1.0852   1.0867   1.0940   1.0999   1.1110   1.1125   1.1241   1.1255
  1.1385   1.1437   1.1528   1.1614   1.1682   1.1832   1.1853   1.2052
  1.2185   1.2255   1.2468   1.2787   1.2893   1.2968   1.3051   1.3296
  1.3348   1.3482   1.3604   1.3690   1.3746   1.3865   1.3976   1.4024
  1.4087   1.4334   1.4560   1.4599   1.4679   1.4711   1.4741   1.4853
  1.4979   1.5032   1.5125   1.5338   1.5398   1.5484   1.5501   1.5724
  1.6157   1.6220   1.6287   1.6354   1.6397   1.6495   1.6578   1.6769
  1.6813   1.6880   1.6994   1.7363   1.7664   1.7786   1.7870   1.7965
  1.7980   1.8106   1.8159   1.8211   1.8239   1.8306   1.8443   1.8562
  1.8652   1.8794   1.8965   1.9017   1.9213   1.9231   1.9321   1.9408
  1.9436   1.9492   1.9587   1.9623   1.9818   1.9980   2.0031   2.0059
  2.0158   2.0261   2.0312   2.0357   2.0470   2.0489   2.0543   2.0622
  2.0735   2.0850   2.0925   2.1017   2.1075   2.1249   2.1404   2.1480
  2.1524   2.1651   2.1720   2.1896   2.1997   2.2082   2.2169   2.2238
  2.2333   2.2422   2.2552   2.2618   2.2735   2.2790   2.3004   2.3045
  2.3159   2.3338   2.3398   2.3524   2.4005   2.4036   2.4103   2.4138
  2.4218   2.4273   2.4416   2.4483   2.4752   2.4917   2.5288   2.5364
  2.5512   2.5615   2.5697   2.5742   2.5871   2.6107   2.6180   2.6285
  2.6335   2.6409   2.6520   2.6619   2.6811   2.6864   2.6989   2.6998
  2.7125   2.7292   2.7399   2.7496   2.7581   2.7705   2.7765   2.7874
  2.7945   2.8086   2.8140   2.8235   2.8281   2.8402   2.8486   2.8522
  2.8635   2.8811   2.9090   2.9114   2.9212   2.9267   2.9300   2.9341
  2.9405   2.9476   2.9617   2.9697   2.9821   2.9912   2.9942   2.9986
  3.0098   3.0121   3.0266   3.0319   3.0382   3.0533   3.0565   3.0709
  3.0773   3.0870   3.0991   3.1029   3.1139   3.1243   3.1368   3.1517
  3.1768   3.1820   3.2021   3.2091   3.2208   3.2292   3.2354   3.2555
  3.2619   3.2737   3.2877   3.2950   3.3025   3.3116   3.3200   3.3343
  3.3492   3.3611   3.3665   3.3715   3.3849   3.3882   3.3990   3.4035
  3.4200   3.4294   3.4393   3.4452   3.4515   3.4608   3.4641   3.4686
  3.4735   3.4831   3.4871   3.4947   3.5073   3.5126   3.5171   3.5230
  3.5259   3.5338   3.5433   3.5487   3.5549   3.5552   3.5642   3.5680
  3.5743   3.5763   3.5911   3.5981   3.6013   3.6062   3.6143   3.6195
  3.6416   3.6440   3.6509   3.6605   3.6639   3.6684   3.6840   3.6972
  3.7007   3.7257   3.7368   3.7634   3.7751   3.7924   3.8161   3.8269
  3.8523   3.8532   3.9067   3.9172   3.9299   3.9334   3.9393   3.9496
  3.9547   3.9689   3.9896   4.0183   4.0319   4.0389   4.0694   4.0746
  4.1301   4.1460   4.2092   4.2117   4.2527   4.2635   4.2751   4.2870
  4.2882   4.2953   4.2980   4.3188   4.3230   4.3323   4.3389   4.3418
  4.3517   4.3558   4.3580   4.3638   4.3742   4.3826   4.3872   4.4078
  4.4170   4.4215   4.4319   4.4577   4.4769   4.5057   4.5258   4.5339
  4.5893   4.6001   4.6040   4.6332   4.7364   4.7683   4.7754   4.7969
  4.8032   4.8182   4.8220   4.8549   4.9306   4.9319   4.9587   4.9644
  5.0114   5.0261   5.0388   5.0566   5.1568   5.1774   5.2555   5.2823
  5.3242   5.3404   5.3529   5.3767   5.4173   5.4742   5.4966   5.5316
  5.6463   5.6840   5.7806   5.8634  22.6237  22.6462  22.6842  22.7125
 22.8721  22.8903  22.8948  22.9047  22.9939  23.0156  23.0484  23.0837
 23.3605  23.4135
 --------------------------------------------------------------
 
          Ground-State Mulliken Net Atomic Charges

     Atom                 Charge (a.u.)
  ----------------------------------------
      1 C                    -1.065943
      2 C                    -0.567311
      3 C                    -0.289731
      4 C                    -0.594768
      5 C                     0.918725
      6 C                    -0.672879
      7 C                    -0.521601
      8 H                     0.411732
      9 H                     0.419355
     10 H                     0.426253
     11 H                     0.390111
     12 H                     0.264384
     13 H                     0.298813
     14 H                     0.385250
     15 H                     0.207939
     16 C                    -0.996266
     17 C                    -0.374699
     18 C                     0.691729
     19 C                    -0.555163
     20 C                    -0.412339
     21 C                    -0.601406
     22 C                    -0.614357
     23 H                     0.452381
     24 H                     0.424147
     25 H                     0.262456
     26 H                     0.227951
     27 H                     0.428313
     28 H                     0.414465
     29 H                     0.385656
     30 H                     0.256803
  ----------------------------------------
  Sum of atomic charges =     0.000000

 -----------------------------------------------------------------
                    Cartesian Multipole Moments
 -----------------------------------------------------------------
    Charge (ESU x 10^10)
                -0.0000
    Dipole Moment (Debye)
         X      -0.4256      Y      -0.4268      Z       0.9430
       Tot       1.1191
    Quadrupole Moments (Debye-Ang)
        XX     -86.3721     XY       0.6674     YY     -76.8983
        XZ      -6.8654     YZ      -0.9954     ZZ     -79.2401
    Octopole Moments (Debye-Ang^2)
       XXX     -19.8659    XXY      24.0568    XYY     -18.8255
       YYY      -0.2710    XXZ       3.9243    XYZ      -3.3371
       YYZ     -10.9200    XZZ      13.9071    YZZ      -3.9619
       ZZZ      -4.1553
    Hexadecapole Moments (Debye-Ang^3)
      XXXX   -1786.3516   XXXY     877.5289   XXYY    -831.4861
      XYYY     758.2387   YYYY   -2929.8223   XXXZ      37.8307
      XXYZ     132.0463   XYYZ       4.2998   YYYZ     231.1430
      XXZZ    -431.7754   XYZZ     266.8424   YYZZ    -639.5999
      XZZZ      66.8937   YZZZ     277.3615   ZZZZ    -902.6005
 -----------------------------------------------------------------
Archival summary:
1\1\nid00539\SP\ProcedureUnspecified\BasisUnspecified\1416\meili\MonSep2710:02:442021MonSep2710:02:442021\0\\#,ProcedureUnspecified,BasisUnspecified,\\0,1\C\H,1,1.08183\C,1,1.38619,2,119.759\H,3,1.07906,1,119.424,2,-1.19912,0\C,3,1.39696,1,120.619,2,-179.598,0\H,5,1.07877,3,118.763,1,179.161,0\C,5,1.39904,3,120.454,1,-0.686127,0\H,7,1.08131,5,120.956,3,-179.897,0\C,1,1.40442,2,120.432,3,178.826,0\C,9,1.40087,1,119.569,2,179.424,0\H,10,1.08002,9,119.771,1,-179.598,0\C,9,1.51103,1,121.067,2,1.02293,0\H,12,1.08848,9,108.435,1,10.5004,0\H,12,1.09161,9,109.559,1,127.311,0\H,12,1.1,9,113.226,1,-111.612,0\C,2,3.06287,1,134.126,3,70.4134,0\H,16,1.08096,2,90.2719,1,58.9793,0\C,16,1.39514,2,84.0999,1,-60.286,0\H,18,1.07744,16,119.787,2,84.5156,0\C,18,1.39769,16,119.969,2,-91.6348,0\H,20,1.08098,18,119.886,16,178.635,0\C,16,1.40162,2,98.5366,1,178.985,0\C,22,1.40127,16,118.938,2,82.5088,0\H,23,1.08169,22,120.065,16,-177.87,0\C,20,1.41158,18,120.111,16,-4.69892,0\H,25,1.0821,20,120.437,18,-178.293,0\C,22,1.53045,16,121.306,2,-94.995,0\H,27,1.09123,22,106.939,16,-55.9468,0\H,27,1.09149,22,110.339,16,-172.194,0\H,27,1.1,22,114.284,16,63.72,0\\\@

 Total job time:  74691.31s(wall), 43701.49s(cpu) 
 Mon Sep 27 10:02:47 2021

        *************************************************************
        *                                                           *
        *  Thank you very much for using Q-Chem.  Have a nice day.  *
        *                                                           *
        *************************************************************


