
Running Job 1 of 1 SSI-052GLN-069ARG-1_PCM_TZVPD.in
qchem SSI-052GLN-069ARG-1_PCM_TZVPD.in_46716.0 /tmp/qchem46716/ 0
/global/common/cori/software/qchem/5.2/exe/qcprog.exe_s SSI-052GLN-069ARG-1_PCM_TZVPD.in_46716.0 /tmp/qchem46716/
                  Welcome to Q-Chem
     A Quantum Leap Into The Future Of Chemistry


 Q-Chem 5.2, Q-Chem, Inc., Pleasanton, CA (2019)

 License issued to: National Energy Research Scientific Computing Center

 Yihan Shao,  Zhengting Gan,  E. Epifanovsky,  A. T. B. Gilbert,  M. Wormit,  
 J. Kussmann,  A. W. Lange,  A. Behn,  Jia Deng,  Xintian Feng,  D. Ghosh,  
 M. Goldey,  P. R. Horn,  L. D. Jacobson,  I. Kaliman,  T. Kus,  A. Landau,  
 Jie Liu,  E. I. Proynov,  R. M. Richard,  R. P. Steele,  E. J. Sundstrom,  
 H. L. Woodcock III,  P. M. Zimmerman,  D. Zuev,  B. Albrecht,  E. Alguire,  
 S. A. Baeppler,  D. Barton,  Z. Benda,  Y. A. Bernard,  E. J. Berquist,  
 K. B. Bravaya,  H. Burton,  D. Casanova,  Chun-Min Chang,  Yunqing Chen,  
 A. Chien,  K. D. Closser,  M. P. Coons,  S. Coriani,  S. Dasgupta,  
 A. L. Dempwolff,  M. Diedenhofen,  Hainam Do,  R. G. Edgar,  Po-Tung Fang,  
 S. Faraji,  S. Fatehi,  Qingguo Feng,  K. D. Fenk,  J. Fosso-Tande,  
 J. Gayvert,  Qinghui Ge,  A. Ghysels,  G. Gidofalvi,  J. Gomes,  
 J. Gonthier,  A. Gunina,  D. Hait,  M. W. D. Hanson-Heine,  
 P. H. P. Harbach,  A. W. Hauser,  M. F. Herbst,  J. E. Herr,  
 E. G. Hohenstein,  Z. C. Holden,  Kerwin Hui,  B. C. Huynh,  T.-C. Jagau,  
 Hyunjun Ji,  B. Kaduk,  K. Khistyaev,  Jaehoon Kim,  P. Klunzinger,  K. Koh,  
 D. Kosenkov,  L. Koulias,  T. Kowalczyk,  C. M. Krauter,  A. Kunitsa,  
 Ka Un Lao,  A. Laurent,  K. V. Lawler,  Joonho Lee,  D. Lefrancois,  
 S. Lehtola,  D. S. Levine,  Yi-Pei Li,  You-Sheng Lin,  Fenglai Liu,  
 E. Livshits,  A. Luenser,  P. Manohar,  E. Mansoor,  S. F. Manzer,  
 Shan-Ping Mao,  Yuezhi Mao,  N. Mardirossian,  A. V. Marenich,  
 T. Markovich,  L. A. Martinez-Martinez,  S. A. Maurer,  N. J. Mayhall,  
 S. C. McKenzie,  J.-M. Mewes,  P. Morgante,  A. F. Morrison,  
 J. W. Mullinax,  K. Nanda,  T. S. Nguyen-Beck,  R. Olivares-Amaya,  
 J. A. Parkhill,  Zheng Pei,  T. M. Perrine,  F. Plasser,  P. Pokhilko,  
 S. Prager,  A. Prociuk,  E. Ramos,  D. R. Rehn,  F. Rob,  M. Scheurer,  
 M. Schneider,  N. Sergueev,  S. M. Sharada,  S. Sharma,  D. W. Small,  
 T. Stauch,  T. Stein,  Yu-Chuan Su,  A. J. W. Thom,  A. Tkatchenko,  
 T. Tsuchimochi,  N. M. Tubman,  L. Vogt,  M. L. Vidal,  O. Vydrov,  
 M. A. Watson,  J. Wenzel,  M. de Wergifosse,  T. A. Wesolowski,  A. White,  
 J. Witte,  A. Yamada,  Jun Yang,  K. Yao,  S. Yeganeh,  S. R. Yost,  
 Zhi-Qiang You,  A. Zech,  Igor Ying Zhang,  Xing Zhang,  Yan Zhao,  
 Ying Zhu,  B. R. Brooks,  G. K. L. Chan,  C. J. Cramer,  M. S. Gordon,  
 W. J. Hehre,  A. Klamt,  M. W. Schmidt,  C. D. Sherrill,  D. G. Truhlar,  
 A. Aspuru-Guzik,  R. Baer,  A. T. Bell,  N. A. Besley,  Jeng-Da Chai,  
 A. E. DePrince, III,  R. A. DiStasio Jr.,  A. Dreuw,  B. D. Dunietz,  
 T. R. Furlani,  Chao-Ping Hsu,  Yousung Jung,  Jing Kong,  D. S. Lambrecht,  
 WanZhen Liang,  C. Ochsenfeld,  V. A. Rassolov,  L. V. Slipchenko,  
 J. E. Subotnik,  T. Van Voorhis,  J. M. Herbert,  A. I. Krylov,  
 P. M. W. Gill,  M. Head-Gordon

 Contributors to earlier versions of Q-Chem not listed above: 
 R. D. Adamson,  B. Austin,  J. Baker,  G. J. O. Beran,  K. Brandhorst,  
 S. T. Brown,  E. F. C. Byrd,  A. K. Chakraborty,  C.-L. Cheng,  
 Siu Hung Chien,  D. M. Chipman,  D. L. Crittenden,  H. Dachsel,  
 R. J. Doerksen,  A. D. Dutoi,  L. Fusti-Molnar,  W. A. Goddard III,  
 A. Golubeva-Zadorozhnaya,  S. R. Gwaltney,  G. Hawkins,  A. Heyden,  
 S. Hirata,  G. Kedziora,  F. J. Keil,  C. Kelley,  Jihan Kim,  R. A. King,  
 R. Z. Khaliullin,  P. P. Korambath,  W. Kurlancheek,  A. M. Lee,  M. S. Lee,  
 S. V. Levchenko,  Ching Yeh Lin,  D. Liotard,  R. C. Lochan,  I. Lotan,  
 P. E. Maslen,  N. Nair,  D. P. O'Neill,  D. Neuhauser,  E. Neuscamman,  
 C. M. Oana,  R. Olson,  B. Peters,  R. Peverati,  P. A. Pieniazek,  
 Y. M. Rhee,  J. Ritchie,  M. A. Rohrdanz,  E. Rosta,  N. J. Russ,  
 H. F. Schaefer III,  N. E. Schultz,  N. Shenvi,  A. C. Simmonett,  A. Sodt,  
 D. Stuck,  K. S. Thanthiriwatte,  V. Vanovschi,  Tao Wang,  A. Warshel,  
 C. F. Williams,  Q. Wu,  X. Xu,  W. Zhang

 Please cite Q-Chem as follows:
 Y. Shao et al., Mol. Phys. 113, 184-215 (2015)
 DOI: 10.1080/00268976.2014.952696

 Q-Chem 5.2.0 for Intel X86 EM64T Linux

 Parts of Q-Chem use Armadillo 8.300.2 (Tropical Shenanigans).
 http://arma.sourceforge.net/

 Q-Chem begins on Sun Sep 26 08:24:13 2021  

Host: cori01
0

     Scratch files written to /tmp/qchem46716//
 May1019 |scratch|qcdevops|jenkins|workspace|build_RNUM -1
Processing $rem in /global/common/cori/software/qchem/5.2/config/preferences:
	 MEM_TOTAL  96000 
NAlpha2: 72
NElect   72
Mult     1
Symmetry turned off for PCM/SM12/SMD calculation

 Q-Chem warning in module libgen/rem_setup.C, line 2803:

 Neither GIA nor STOLL is specified by user. Use STOLL as the default


Checking the input file for inconsistencies... 	...done.

--------------------------------------------------------------
User input:
--------------------------------------------------------------
$comment
SSI-052GLN-069ARG-1.pdb
$end

$molecule
1 1
--
0 1
C   -1.783364264633   -1.528014977346   -2.205896334566
C   -1.382364264633   -0.123014977346   -2.359896334566
O   -0.568364264633    0.475985022654   -1.664896334566
N   -1.903364264633    0.637985022654   -3.158896334566
H   -2.791364264633   -1.678014977346   -2.594896334566
H   -1.771364264633   -1.757014977346   -1.144896334566
H   -1.581364264633    1.591985022654   -3.162896334566
H   -2.624364264633    0.318985022654   -3.788896334566
H   -1.063711264633   -2.156454977346   -2.751023334566
--
1 1
C    3.017635735367    0.694985022654    2.040103665434
C    0.668635735367   -0.043014977346    1.840103665434
N   -0.174364264633   -0.877014977346    1.247103665434
N    1.946635735367   -0.160014977346    1.549103665434
N    0.229635735367    0.845985022654    2.710103665434
H    0.219635735367   -1.606014977346    0.646103665434
H   -1.164364264633   -0.892014977346    1.425103665434
H    2.198635735367   -0.863014977346    0.852103665434
H    0.879635735367    1.432985022654    3.219103665434
H   -0.758364264633    0.966985022654    2.849103665434
H    2.634635735367    1.698985022654    2.224103665434
H    3.772635735367    0.781985022654    1.256103665434
H    3.502865735367    0.292085022654    2.941341665434
$end

$rem
JOBTYPE			EDA
EDA2			1
method			wB97X-V
BASIS			def2-TZVPD
XC_GRID			000099000590
NL_GRID			1
UNRESTRICTED		FALSE
MAX_SCF_CYCLES		200
SYMMETRY		FALSE
SYM_IGNORE		TRUE
MEM_STATIC		2000
BASIS_LIN_DEP_THRESH 	6
THRESH 			14
SCF_CONVERGENCE 	8
SCF_PRINT_FRGM 		TRUE
SOLVENT_METHOD          PCM
$end

$PCM
THEORY                  CPCM
METHOD                  SWIG
SOLVER                  INVERSION
RADII                   UFF
HPOINTS                 302
HEAVYPOINTS             302
PRINTLEVEL              0
$END

$SOLVENT
DIELECTRIC              78.390000 ! water
$END
--------------------------------------------------------------
 ----------------------------------------------------------------
             Standard Nuclear Orientation (Angstroms)
    I     Atom           X                Y                Z
 ----------------------------------------------------------------
    1      C      -1.7833642646    -1.5280149773    -2.2058963346
    2      C      -1.3823642646    -0.1230149773    -2.3598963346
    3      O      -0.5683642646     0.4759850227    -1.6648963346
    4      N      -1.9033642646     0.6379850227    -3.1588963346
    5      H      -2.7913642646    -1.6780149773    -2.5948963346
    6      H      -1.7713642646    -1.7570149773    -1.1448963346
    7      H      -1.5813642646     1.5919850227    -3.1628963346
    8      H      -2.6243642646     0.3189850227    -3.7888963346
    9      H      -1.0637112646    -2.1564549773    -2.7510233346
   10      C       3.0176357354     0.6949850227     2.0401036654
   11      C       0.6686357354    -0.0430149773     1.8401036654
   12      N      -0.1743642646    -0.8770149773     1.2471036654
   13      N       1.9466357354    -0.1600149773     1.5491036654
   14      N       0.2296357354     0.8459850227     2.7101036654
   15      H       0.2196357354    -1.6060149773     0.6461036654
   16      H      -1.1643642646    -0.8920149773     1.4251036654
   17      H       2.1986357354    -0.8630149773     0.8521036654
   18      H       0.8796357354     1.4329850227     3.2191036654
   19      H      -0.7583642646     0.9669850227     2.8491036654
   20      H       2.6346357354     1.6989850227     2.2241036654
   21      H       3.7726357354     0.7819850227     1.2561036654
   22      H       3.5028657354     0.2920850227     2.9413416654
 ----------------------------------------------------------------
 Nuclear Repulsion Energy =         458.85803597 hartrees
 There are       36 alpha and       36 beta electrons
 Requested basis set is def2-TZVPD
 There are 183 shells and 453 basis functions

 Total QAlloc Memory Limit  96000 MB
 Mega-Array Size      1956 MB
 MEM_STATIC part      2000 MB
 Discretize the solute cavity surface with Lebedev spheres
	Using 302 Lebedev grid points for each H atom
	Using 302 Lebedev grid points for other atoms
	Atomic van der Waals radii will be scaled by 1.20
 Remove points where switching function is < 1.0e-08
 Keep 2581 surface tesserae and discard 4063 interior tesserae
 Molecular Surface Area = 253.232 Angst**2
 A cutoff of  1.0D-14 yielded  14591 shell pairs
 There are     89547 function pairs (    111415 Cartesian)
 Smallest overlap matrix eigenvalue = 5.81E-06

 Scale SEOQF with 1.000000e-01/1.000000e-01/1.000000e-01

 Standard Electronic Orientation quadrupole field applied
 Nucleus-field energy     =    -0.0000000268 hartrees

 -----------------------------------------------------------------------
  General SCF calculation program by
  Eric Jon Sundstrom, Paul Horn, Yuezhi Mao, Dmitri Zuev, Alec White,
  David Stuck, Shaama M.S., Shane Yost, Joonho Lee, David Small,
  Daniel Levine, Susi Lehtola, Hugh Burton, Evgeny Epifanovsky
 -----------------------------------------------------------------------
================================================================
                 ALMO-EDA with the EDA2 driver                  
================================================================
 The second-generation ALMO-EDA (for DFT):                      
 P. R. Horn, Y. Mao and M. Head-Gordon, PCCP, 18, 23067 (2016)  
 Decomposition of the frozen energy:                            
 P. R. Horn, Y. Mao and M. Head-Gordon, JCP, 144, 114107 (2016) 
 FERF model for polarization:                                   
 P. R. Horn and M. Head-Gordon, JCP, 143, 114111 (2015)         
Using eda2 option set 1
Option set summary: Frozen orbital wavefunction, initial wavefunction decomposition, and nDQ polarization.
--------------------------------
Printing EDA Options
--------------------------------
eda_child_super_basis      0
fragmo_guess_mode          0
child_mp                   1
child_mp_orders            232
cls_elec                   1
cls_disp                   0
scfmi_mode                 1
scfmi_occs                 0
scfmi_virts                0
frz_relax                  0
frz_relax_method           0
dc_pen_start               0
dc_pen_conv                0
dc_pen_increment           0
dc_pen_steps               0
dc_pen_thresh_factor       0
dc_pen_pre_newton_thresh   0
frz_ortho_decomp           1
frz_ortho_decomp_conv      6
frgm_method                2
scfmi_freeze_ss            0
separate_rehyb             0
plot_diff_den              0
eda_nocv                   0
eda_vct_relax              1
disp_free_x                0
disp_free_c                0
eda_bsse                   0
eda_pct_a                  0
eda_covp                   0
--------------------------------
Attempting to make child job directory: /tmp/qchem46716//Frg1/
Attempting to make child job directory: /tmp/qchem46716//Frg2/
Creating input file /tmp/qchem46716/Frg1.input
using default PutDataFrgm: nothing
calling putenv with: QCSCRATCH=/tmp/qchem46716/ 
calling putenv with: QCLOCALSCR=/tmp/qchem46716/ 
Spawning Job For Fragment 0
                  Welcome to Q-Chem
     A Quantum Leap Into The Future Of Chemistry


 Q-Chem 5.2, Q-Chem, Inc., Pleasanton, CA (2019)

 License issued to: National Energy Research Scientific Computing Center

 Yihan Shao,  Zhengting Gan,  E. Epifanovsky,  A. T. B. Gilbert,  M. Wormit,  
 J. Kussmann,  A. W. Lange,  A. Behn,  Jia Deng,  Xintian Feng,  D. Ghosh,  
 M. Goldey,  P. R. Horn,  L. D. Jacobson,  I. Kaliman,  T. Kus,  A. Landau,  
 Jie Liu,  E. I. Proynov,  R. M. Richard,  R. P. Steele,  E. J. Sundstrom,  
 H. L. Woodcock III,  P. M. Zimmerman,  D. Zuev,  B. Albrecht,  E. Alguire,  
 S. A. Baeppler,  D. Barton,  Z. Benda,  Y. A. Bernard,  E. J. Berquist,  
 K. B. Bravaya,  H. Burton,  D. Casanova,  Chun-Min Chang,  Yunqing Chen,  
 A. Chien,  K. D. Closser,  M. P. Coons,  S. Coriani,  S. Dasgupta,  
 A. L. Dempwolff,  M. Diedenhofen,  Hainam Do,  R. G. Edgar,  Po-Tung Fang,  
 S. Faraji,  S. Fatehi,  Qingguo Feng,  K. D. Fenk,  J. Fosso-Tande,  
 J. Gayvert,  Qinghui Ge,  A. Ghysels,  G. Gidofalvi,  J. Gomes,  
 J. Gonthier,  A. Gunina,  D. Hait,  M. W. D. Hanson-Heine,  
 P. H. P. Harbach,  A. W. Hauser,  M. F. Herbst,  J. E. Herr,  
 E. G. Hohenstein,  Z. C. Holden,  Kerwin Hui,  B. C. Huynh,  T.-C. Jagau,  
 Hyunjun Ji,  B. Kaduk,  K. Khistyaev,  Jaehoon Kim,  P. Klunzinger,  K. Koh,  
 D. Kosenkov,  L. Koulias,  T. Kowalczyk,  C. M. Krauter,  A. Kunitsa,  
 Ka Un Lao,  A. Laurent,  K. V. Lawler,  Joonho Lee,  D. Lefrancois,  
 S. Lehtola,  D. S. Levine,  Yi-Pei Li,  You-Sheng Lin,  Fenglai Liu,  
 E. Livshits,  A. Luenser,  P. Manohar,  E. Mansoor,  S. F. Manzer,  
 Shan-Ping Mao,  Yuezhi Mao,  N. Mardirossian,  A. V. Marenich,  
 T. Markovich,  L. A. Martinez-Martinez,  S. A. Maurer,  N. J. Mayhall,  
 S. C. McKenzie,  J.-M. Mewes,  P. Morgante,  A. F. Morrison,  
 J. W. Mullinax,  K. Nanda,  T. S. Nguyen-Beck,  R. Olivares-Amaya,  
 J. A. Parkhill,  Zheng Pei,  T. M. Perrine,  F. Plasser,  P. Pokhilko,  
 S. Prager,  A. Prociuk,  E. Ramos,  D. R. Rehn,  F. Rob,  M. Scheurer,  
 M. Schneider,  N. Sergueev,  S. M. Sharada,  S. Sharma,  D. W. Small,  
 T. Stauch,  T. Stein,  Yu-Chuan Su,  A. J. W. Thom,  A. Tkatchenko,  
 T. Tsuchimochi,  N. M. Tubman,  L. Vogt,  M. L. Vidal,  O. Vydrov,  
 M. A. Watson,  J. Wenzel,  M. de Wergifosse,  T. A. Wesolowski,  A. White,  
 J. Witte,  A. Yamada,  Jun Yang,  K. Yao,  S. Yeganeh,  S. R. Yost,  
 Zhi-Qiang You,  A. Zech,  Igor Ying Zhang,  Xing Zhang,  Yan Zhao,  
 Ying Zhu,  B. R. Brooks,  G. K. L. Chan,  C. J. Cramer,  M. S. Gordon,  
 W. J. Hehre,  A. Klamt,  M. W. Schmidt,  C. D. Sherrill,  D. G. Truhlar,  
 A. Aspuru-Guzik,  R. Baer,  A. T. Bell,  N. A. Besley,  Jeng-Da Chai,  
 A. E. DePrince, III,  R. A. DiStasio Jr.,  A. Dreuw,  B. D. Dunietz,  
 T. R. Furlani,  Chao-Ping Hsu,  Yousung Jung,  Jing Kong,  D. S. Lambrecht,  
 WanZhen Liang,  C. Ochsenfeld,  V. A. Rassolov,  L. V. Slipchenko,  
 J. E. Subotnik,  T. Van Voorhis,  J. M. Herbert,  A. I. Krylov,  
 P. M. W. Gill,  M. Head-Gordon

 Contributors to earlier versions of Q-Chem not listed above: 
 R. D. Adamson,  B. Austin,  J. Baker,  G. J. O. Beran,  K. Brandhorst,  
 S. T. Brown,  E. F. C. Byrd,  A. K. Chakraborty,  C.-L. Cheng,  
 Siu Hung Chien,  D. M. Chipman,  D. L. Crittenden,  H. Dachsel,  
 R. J. Doerksen,  A. D. Dutoi,  L. Fusti-Molnar,  W. A. Goddard III,  
 A. Golubeva-Zadorozhnaya,  S. R. Gwaltney,  G. Hawkins,  A. Heyden,  
 S. Hirata,  G. Kedziora,  F. J. Keil,  C. Kelley,  Jihan Kim,  R. A. King,  
 R. Z. Khaliullin,  P. P. Korambath,  W. Kurlancheek,  A. M. Lee,  M. S. Lee,  
 S. V. Levchenko,  Ching Yeh Lin,  D. Liotard,  R. C. Lochan,  I. Lotan,  
 P. E. Maslen,  N. Nair,  D. P. O'Neill,  D. Neuhauser,  E. Neuscamman,  
 C. M. Oana,  R. Olson,  B. Peters,  R. Peverati,  P. A. Pieniazek,  
 Y. M. Rhee,  J. Ritchie,  M. A. Rohrdanz,  E. Rosta,  N. J. Russ,  
 H. F. Schaefer III,  N. E. Schultz,  N. Shenvi,  A. C. Simmonett,  A. Sodt,  
 D. Stuck,  K. S. Thanthiriwatte,  V. Vanovschi,  Tao Wang,  A. Warshel,  
 C. F. Williams,  Q. Wu,  X. Xu,  W. Zhang

 Please cite Q-Chem as follows:
 Y. Shao et al., Mol. Phys. 113, 184-215 (2015)
 DOI: 10.1080/00268976.2014.952696

 Q-Chem 5.2.0 for Intel X86 EM64T Linux

 Parts of Q-Chem use Armadillo 8.300.2 (Tropical Shenanigans).
 http://arma.sourceforge.net/

 Q-Chem begins on Sun Sep 26 08:24:16 2021  

Host: cori01
0

     Scratch files written to /tmp/qchem46716//Frg1//
 May1019 |scratch|qcdevops|jenkins|workspace|build_RNUM -1
Processing $rem in /global/common/cori/software/qchem/5.2/config/preferences:
	 MEM_TOTAL  96000 
NAlpha2: 32
NElect   32
Mult     1
Symmetry turned off for PCM/SM12/SMD calculation

Checking the input file for inconsistencies... 	...done.

--------------------------------------------------------------
User input:
--------------------------------------------------------------
$molecule
0 1
 6	-1.7833642646	-1.5280149773	-2.2058963346
 6	-1.3823642646	-0.1230149773	-2.3598963346
 8	-0.5683642646	0.4759850227	-1.6648963346
 7	-1.9033642646	0.6379850227	-3.1588963346
 1	-2.7913642646	-1.6780149773	-2.5948963346
 1	-1.7713642646	-1.7570149773	-1.1448963346
 1	-1.5813642646	1.5919850227	-3.1628963346
 1	-2.6243642646	0.3189850227	-3.7888963346
 1	-1.0637112646	-2.1564549773	-2.7510233346
$end
$rem
EDA2		1
METHOD		WB97X-V
BASIS		DEF2-TZVPD
XC_GRID		000099000590
NL_GRID		1
UNRESTRICTED		FALSE
MAX_SCF_CYCLES		200
SYMMETRY		FALSE
SYM_IGNORE		TRUE
BASIS_LIN_DEP_THRESH		6
THRESH		14
SCF_CONVERGENCE		8
SCF_PRINT_FRGM		TRUE
SOLVENT_METHOD		PCM
!required keywords
JOBTYPE		SP
SYM_IGNORE		TRUE
SUBSYSTEM		TRUE
GEN_SCFMAN		TRUE
CHILD_INSTRUCTION		2
SYM_IGNORE		TRUE
SCFMI		0
RI_K 0		
PARI_K 0		
MIN_PARI_K 0		
IARI_K 0		
OCC_RI_K 0		
PURECART		1111
MEM_STATIC		2000
MEM_TOTAL		96000
GUI		0
CHILD_MP		1
CHILD_MP_ORDERS		232
FRZ_RELAX		0
FRZ_RELAX_METHOD		0
EDA_CLS_ELEC		1
EDA_CLS_DISP		0
FRZ_ORTHO_DECOMP		1
EDA2		FALSE
FRGM_METHOD		FALSE
CIS_N_ROOTS  0
LOCAL_CIS    0
CIS_RLX_DNS  1
$end
$pcm
THEORY                  CPCM
METHOD                  SWIG
SOLVER                  INVERSION
RADII                   UFF
HPOINTS                 302
HEAVYPOINTS             302
PRINTLEVEL              0
$end
$solvent
DIELECTRIC              78.390000 ! water
$end
--------------------------------------------------------------
 ----------------------------------------------------------------
             Standard Nuclear Orientation (Angstroms)
    I     Atom           X                Y                Z
 ----------------------------------------------------------------
    1      C      -1.7833642646    -1.5280149773    -2.2058963346
    2      C      -1.3823642646    -0.1230149773    -2.3598963346
    3      O      -0.5683642646     0.4759850227    -1.6648963346
    4      N      -1.9033642646     0.6379850227    -3.1588963346
    5      H      -2.7913642646    -1.6780149773    -2.5948963346
    6      H      -1.7713642646    -1.7570149773    -1.1448963346
    7      H      -1.5813642646     1.5919850227    -3.1628963346
    8      H      -2.6243642646     0.3189850227    -3.7888963346
    9      H      -1.0637112646    -2.1564549773    -2.7510233346
 ----------------------------------------------------------------
 Nuclear Repulsion Energy =         126.58896774 hartrees
 There are       16 alpha and       16 beta electrons
 Requested basis set is def2-TZVPD
 There are 78 shells and 196 basis functions

 Total QAlloc Memory Limit  96000 MB
 Mega-Array Size      1956 MB
 MEM_STATIC part      2000 MB
 Discretize the solute cavity surface with Lebedev spheres
	Using 302 Lebedev grid points for each H atom
	Using 302 Lebedev grid points for other atoms
	Atomic van der Waals radii will be scaled by 1.20
 Remove points where switching function is < 1.0e-08
 Keep 1182 surface tesserae and discard 1536 interior tesserae
 Molecular Surface Area = 125.863 Angst**2

                       Distance Matrix (Angstroms)
             C (  1)   C (  2)   O (  3)   N (  4)   H (  5)   H (  6)
   C (  2)  1.469198
   O (  3)  2.405186  1.226549
   N (  4)  2.369423  1.220231  2.010101
   H (  5)  1.090819  2.111523  3.232081  2.543717
   H (  6)  1.085498  2.073042  2.589189  3.132035  1.774582
   H (  7)  3.269718  1.904110  2.125001  1.006884  3.532651  3.914617
   H (  8)  2.573826  1.944214  2.960264  1.009209  2.332710  3.468158
   H (  9)  1.100000  2.095089  2.890464  2.946230  1.799463  1.799991
             H (  7)   H (  8)
   H (  8)  1.760754
   H (  9)  3.806364  3.104935
 
 A cutoff of  1.0D-14 yielded   3060 shell pairs
 There are     19554 function pairs (     24713 Cartesian)
 Smallest overlap matrix eigenvalue = 7.76E-06

 Scale SEOQF with 1.000000e-01/1.000000e-01/1.000000e-01

 Standard Electronic Orientation quadrupole field applied
 Nucleus-field energy     =    -0.0000000157 hartrees
 Guess from superposition of atomic densities
 Warning:  Energy on first SCF cycle will be non-variational
 SAD guess density has 31.604610 electrons

 -----------------------------------------------------------------------
  General SCF calculation program by
  Eric Jon Sundstrom, Paul Horn, Yuezhi Mao, Dmitri Zuev, Alec White,
  David Stuck, Shaama M.S., Shane Yost, Joonho Lee, David Small,
  Daniel Levine, Susi Lehtola, Hugh Burton, Evgeny Epifanovsky
 -----------------------------------------------------------------------
 Exchange:     0.1670 Hartree-Fock + 1.0000 wB97X-V + LR-HF
 Correlation:  1.0000 wB97X-V
 Using Euler-Maclaurin-Lebedev (99,590) quadrature formula
 Nonlocal Correlation:  VV10 with C = 0.0100 and b = 6.00 and scale = 1.00000
 Grid used for NLC:  SG-1 standard quadrature
Energy prior to optimization (guess energy) = -208.646699425511
Begin Timing: Total SCF Calculation
begin iterations for algorithm: DIIS         
the SCF tolerance is set to 1.00e-08
    1    -208.6466994255      1.28e-02     00000 
    2    -207.9576625749      1.73e-02     00000 
    3    -209.1808266113      2.99e-03     00000 
    4    -209.2089724795      1.09e-03     00000 
    5    -209.2135711488      1.30e-04     00000 
    6    -209.2137160112      5.94e-05     00000 
    7    -209.2137405842      1.59e-05     00000 
    8    -209.2137430082      3.32e-06     00000 
    9    -209.2137432172      9.09e-07     00000 
   10    -209.2137432285      2.50e-07     00000 
   11    -209.2137432294      9.88e-08     00000 
   12    -209.2137432295      3.29e-08     00000 
   13    -209.2137432295      6.67e-09     00000 Convergence criterion met
Timing for Total SCF: 379.00s (wall), 750.95s (cpu)

************** Final PCM Free Energy Summary **************
 G_electrostatic  =      -0.01378797 hartree =      -8.65207980 kcal/mol
 G_cavitation     =       0.00000000 hartree =       0.00000000 kcal/mol
 G_dispersion     =       0.00000000 hartree =       0.00000000 kcal/mol
 G_repulsion      =       0.00000000 hartree =       0.00000000 kcal/mol
 --------------------------------------------------
 Non-electrostatic Free Energy =       0.00000000 hartree =       0.00000000 kcal/mol
 Total                         =      -0.01378797 hartree =      -8.65207980 kcal/mol
 --------------------------------------------------
 SCF Energy (H0 + V/2)                       =    -209.21374323 
 Solute Internal Energy (H0)                 =    -209.19995526 
 Total Free Energy (H0 + V/2 + non-elec)     =    -209.21374323 hartree
                                             = -131283.60533989 kcal/mol
***********************************************************

E_pcm = -0.0137879669
Multipole orders to be included
        2
        3
computing dipole RHS
computing quadrupole RHS
total number of RHS in solve_reponses: 8
RHS batch sizes
        8
Beginning Block Conjugate Gradient Iterations. Batch Number: 0
computing hessian-vector products by finite difference
              1      5.37e-01     00000 Conjugate Gradient Iteration
computing hessian-vector products by finite difference
              2      1.78e-01     00000 Conjugate Gradient Iteration
computing hessian-vector products by finite difference
              3      4.72e-02     00000 Conjugate Gradient Iteration
computing hessian-vector products by finite difference
              4      1.20e-02     00000 Conjugate Gradient Iteration
computing hessian-vector products by finite difference
              5      1.78e-03     00000 Conjugate Gradient Iteration
computing hessian-vector products by finite difference
              6      3.53e-04     00000 Conjugate Gradient Iteration
computing hessian-vector products by finite difference
              7      5.62e-05     00000 Conjugate Gradient Iteration
computing hessian-vector products by finite difference
              8      6.79e-06     00000 Conjugate Gradient Iteration
computing hessian-vector products by finite difference
              9      8.88e-07     00000 Conjugate Gradient Iteration
computing hessian-vector products by finite difference
             10      1.10e-07     00000 Conjugate Gradient Iteration
computing hessian-vector products by finite difference
             11      1.51e-08     00000 Conjugate Gradient Iteration
computing hessian-vector products by finite difference
             12      4.89e-09     00000 CG Converged
batch 0 complete
Done Calculating Responses
TESTING ORTHOGONALIZATION OF MULTIPOLE BASIS
Multipole virts passed orthogonality test
Virts Per Order
        48
        80
 
 --------------------------------------------------------------
 
                    Orbital Energies (a.u.)
 --------------------------------------------------------------
 
 Alpha MOs
 -- Occupied --
-19.1527 -14.4255 -10.3533 -10.2742  -1.1920  -1.0456  -0.8863  -0.7233
 -0.6727  -0.5898  -0.5846  -0.5170  -0.5004  -0.4930  -0.3694  -0.3555
 -- Virtual --
  0.0600   0.0914   0.0966   0.1002   0.1263   0.1312   0.1394   0.1448
  0.1741   0.1776   0.1926   0.2105   0.2247   0.2481   0.2503   0.2620
  0.2648   0.2690   0.2966   0.3153   0.3286   0.3326   0.3403   0.3471
  0.3570   0.3574   0.3766   0.3817   0.3885   0.4051   0.4178   0.4257
  0.4356   0.4496   0.4594   0.4692   0.4746   0.4951   0.5019   0.5068
  0.5193   0.5377   0.5739   0.5860   0.5942   0.6132   0.6244   0.6387
  0.6432   0.6594   0.6788   0.7003   0.7080   0.7300   0.7379   0.7606
  0.7728   0.7935   0.7979   0.8138   0.8358   0.8449   0.8795   0.8845
  0.9106   0.9735   0.9850   0.9998   1.0102   1.0223   1.0793   1.0897
  1.1259   1.1815   1.2367   1.2565   1.2830   1.3251   1.3461   1.3892
  1.4897   1.5088   1.5372   1.6673   1.7076   1.7396   1.7796   1.7991
  1.8250   1.8891   1.8992   1.9238   1.9549   1.9665   1.9713   2.0325
  2.0865   2.1067   2.1393   2.1867   2.1919   2.2294   2.3492   2.3927
  2.4124   2.4199   2.4821   2.4926   2.5483   2.5662   2.5765   2.6566
  2.6832   2.7340   2.7986   2.8181   2.8482   2.9260   3.0053   3.0271
  3.0757   3.1123   3.1710   3.2113   3.2188   3.2396   3.2608   3.3061
  3.3190   3.3399   3.4324   3.4430   3.4879   3.5652   3.5964   3.6167
  3.6458   3.6660   3.7868   3.8497   3.9224   3.9342   4.0397   4.1155
  4.1582   4.2635   4.2802   4.4455   4.5326   4.6169   4.6600   4.7412
  4.8777   4.8989   4.9100   5.0149   5.1640   5.2739   5.2954   5.4003
  5.5096   5.5234   5.5633   5.5860   5.6421   5.8227   5.9852   6.2272
  6.3107   6.6113   6.6718   6.7948   6.8901   7.0063   7.2820   7.3617
 22.6101  23.8988  32.5250  44.3635
 --------------------------------------------------------------
 
          Ground-State Mulliken Net Atomic Charges

     Atom                 Charge (a.u.)
  ----------------------------------------
      1 C                    -0.590740
      2 C                     0.436866
      3 O                    -0.665007
      4 N                    -0.210470
      5 H                     0.246933
      6 H                     0.198870
      7 H                     0.208377
      8 H                     0.176100
      9 H                     0.199070
  ----------------------------------------
  Sum of atomic charges =     0.000000

 -----------------------------------------------------------------
                    Cartesian Multipole Moments
 -----------------------------------------------------------------
    Charge (ESU x 10^10)
                 0.0000
    Dipole Moment (Debye)
         X      -3.8050      Y      -1.3112      Z      -3.5938
       Tot       5.3956
    Quadrupole Moments (Debye-Ang)
        XX     -15.0458     XY       0.6348     YY     -20.8882
        XZ      13.4369     YZ       0.4883     ZZ      -7.3512
    Octopole Moments (Debye-Ang^2)
       XXX      83.5389    XXY       3.5947    XYY      29.6386
       YYY      17.8814    XXZ      24.5980    XYZ       2.2397
       YYZ      45.8941    XZZ     -12.4080    YZZ       9.5980
       ZZZ     108.5006
    Hexadecapole Moments (Debye-Ang^3)
      XXXX    -326.7677   XXXY     -29.4160   XXYY     -83.7901
      XYYY     -43.0795   YYYY    -160.9429   XXXZ    -184.6590
      XXYZ     -10.4035   XYYZ     -72.7234   YYYZ     -36.5725
      XXZZ     -91.8176   XYZZ     -26.8783   YYZZ    -139.1145
      XZZZ     -98.0912   YZZZ     -52.1941   ZZZZ    -667.9652
 -----------------------------------------------------------------
Archival summary:
1\1\nid00504\SP\ProcedureUnspecified\BasisUnspecified\1125\meili\SunSep2610:11:532021SunSep2610:11:532021\0\\#,ProcedureUnspecified,BasisUnspecified,\\0,1\C\N,1,1.22023\H,2,1.00688,1,117.191\H,2,1.00921,1,121.109,3,179.826,0\O,1,1.22655,2,110.476,3,2.42397,0\C,1,1.4692,2,123.264,3,177.681,0\H,6,1.0855,1,107.529,2,-140.036,0\H,6,1.09082,1,110.264,2,-21.0069,0\H,6,1.1,1,108.411,2,100.01,0\\\@

 Total job time:  6457.69s(wall), 12746.75s(cpu) 
 Sun Sep 26 10:11:54 2021

        *************************************************************
        *                                                           *
        *  Thank you very much for using Q-Chem.  Have a nice day.  *
        *                                                           *
        *************************************************************


Done Job For Fragment 0
calling putenv with: QCSCRATCH=/global/cscratch1/sd/meili 
calling putenv with: QCLOCALSCR=/tmp 
calling putenv with: QCTHREADS=32 
Creating input file /tmp/qchem46716/Frg2.input
using default PutDataFrgm: nothing
calling putenv with: QCSCRATCH=/tmp/qchem46716/ 
calling putenv with: QCLOCALSCR=/tmp/qchem46716/ 
Spawning Job For Fragment 1
                  Welcome to Q-Chem
     A Quantum Leap Into The Future Of Chemistry


 Q-Chem 5.2, Q-Chem, Inc., Pleasanton, CA (2019)

 License issued to: National Energy Research Scientific Computing Center

 Yihan Shao,  Zhengting Gan,  E. Epifanovsky,  A. T. B. Gilbert,  M. Wormit,  
 J. Kussmann,  A. W. Lange,  A. Behn,  Jia Deng,  Xintian Feng,  D. Ghosh,  
 M. Goldey,  P. R. Horn,  L. D. Jacobson,  I. Kaliman,  T. Kus,  A. Landau,  
 Jie Liu,  E. I. Proynov,  R. M. Richard,  R. P. Steele,  E. J. Sundstrom,  
 H. L. Woodcock III,  P. M. Zimmerman,  D. Zuev,  B. Albrecht,  E. Alguire,  
 S. A. Baeppler,  D. Barton,  Z. Benda,  Y. A. Bernard,  E. J. Berquist,  
 K. B. Bravaya,  H. Burton,  D. Casanova,  Chun-Min Chang,  Yunqing Chen,  
 A. Chien,  K. D. Closser,  M. P. Coons,  S. Coriani,  S. Dasgupta,  
 A. L. Dempwolff,  M. Diedenhofen,  Hainam Do,  R. G. Edgar,  Po-Tung Fang,  
 S. Faraji,  S. Fatehi,  Qingguo Feng,  K. D. Fenk,  J. Fosso-Tande,  
 J. Gayvert,  Qinghui Ge,  A. Ghysels,  G. Gidofalvi,  J. Gomes,  
 J. Gonthier,  A. Gunina,  D. Hait,  M. W. D. Hanson-Heine,  
 P. H. P. Harbach,  A. W. Hauser,  M. F. Herbst,  J. E. Herr,  
 E. G. Hohenstein,  Z. C. Holden,  Kerwin Hui,  B. C. Huynh,  T.-C. Jagau,  
 Hyunjun Ji,  B. Kaduk,  K. Khistyaev,  Jaehoon Kim,  P. Klunzinger,  K. Koh,  
 D. Kosenkov,  L. Koulias,  T. Kowalczyk,  C. M. Krauter,  A. Kunitsa,  
 Ka Un Lao,  A. Laurent,  K. V. Lawler,  Joonho Lee,  D. Lefrancois,  
 S. Lehtola,  D. S. Levine,  Yi-Pei Li,  You-Sheng Lin,  Fenglai Liu,  
 E. Livshits,  A. Luenser,  P. Manohar,  E. Mansoor,  S. F. Manzer,  
 Shan-Ping Mao,  Yuezhi Mao,  N. Mardirossian,  A. V. Marenich,  
 T. Markovich,  L. A. Martinez-Martinez,  S. A. Maurer,  N. J. Mayhall,  
 S. C. McKenzie,  J.-M. Mewes,  P. Morgante,  A. F. Morrison,  
 J. W. Mullinax,  K. Nanda,  T. S. Nguyen-Beck,  R. Olivares-Amaya,  
 J. A. Parkhill,  Zheng Pei,  T. M. Perrine,  F. Plasser,  P. Pokhilko,  
 S. Prager,  A. Prociuk,  E. Ramos,  D. R. Rehn,  F. Rob,  M. Scheurer,  
 M. Schneider,  N. Sergueev,  S. M. Sharada,  S. Sharma,  D. W. Small,  
 T. Stauch,  T. Stein,  Yu-Chuan Su,  A. J. W. Thom,  A. Tkatchenko,  
 T. Tsuchimochi,  N. M. Tubman,  L. Vogt,  M. L. Vidal,  O. Vydrov,  
 M. A. Watson,  J. Wenzel,  M. de Wergifosse,  T. A. Wesolowski,  A. White,  
 J. Witte,  A. Yamada,  Jun Yang,  K. Yao,  S. Yeganeh,  S. R. Yost,  
 Zhi-Qiang You,  A. Zech,  Igor Ying Zhang,  Xing Zhang,  Yan Zhao,  
 Ying Zhu,  B. R. Brooks,  G. K. L. Chan,  C. J. Cramer,  M. S. Gordon,  
 W. J. Hehre,  A. Klamt,  M. W. Schmidt,  C. D. Sherrill,  D. G. Truhlar,  
 A. Aspuru-Guzik,  R. Baer,  A. T. Bell,  N. A. Besley,  Jeng-Da Chai,  
 A. E. DePrince, III,  R. A. DiStasio Jr.,  A. Dreuw,  B. D. Dunietz,  
 T. R. Furlani,  Chao-Ping Hsu,  Yousung Jung,  Jing Kong,  D. S. Lambrecht,  
 WanZhen Liang,  C. Ochsenfeld,  V. A. Rassolov,  L. V. Slipchenko,  
 J. E. Subotnik,  T. Van Voorhis,  J. M. Herbert,  A. I. Krylov,  
 P. M. W. Gill,  M. Head-Gordon

 Contributors to earlier versions of Q-Chem not listed above: 
 R. D. Adamson,  B. Austin,  J. Baker,  G. J. O. Beran,  K. Brandhorst,  
 S. T. Brown,  E. F. C. Byrd,  A. K. Chakraborty,  C.-L. Cheng,  
 Siu Hung Chien,  D. M. Chipman,  D. L. Crittenden,  H. Dachsel,  
 R. J. Doerksen,  A. D. Dutoi,  L. Fusti-Molnar,  W. A. Goddard III,  
 A. Golubeva-Zadorozhnaya,  S. R. Gwaltney,  G. Hawkins,  A. Heyden,  
 S. Hirata,  G. Kedziora,  F. J. Keil,  C. Kelley,  Jihan Kim,  R. A. King,  
 R. Z. Khaliullin,  P. P. Korambath,  W. Kurlancheek,  A. M. Lee,  M. S. Lee,  
 S. V. Levchenko,  Ching Yeh Lin,  D. Liotard,  R. C. Lochan,  I. Lotan,  
 P. E. Maslen,  N. Nair,  D. P. O'Neill,  D. Neuhauser,  E. Neuscamman,  
 C. M. Oana,  R. Olson,  B. Peters,  R. Peverati,  P. A. Pieniazek,  
 Y. M. Rhee,  J. Ritchie,  M. A. Rohrdanz,  E. Rosta,  N. J. Russ,  
 H. F. Schaefer III,  N. E. Schultz,  N. Shenvi,  A. C. Simmonett,  A. Sodt,  
 D. Stuck,  K. S. Thanthiriwatte,  V. Vanovschi,  Tao Wang,  A. Warshel,  
 C. F. Williams,  Q. Wu,  X. Xu,  W. Zhang

 Please cite Q-Chem as follows:
 Y. Shao et al., Mol. Phys. 113, 184-215 (2015)
 DOI: 10.1080/00268976.2014.952696

 Q-Chem 5.2.0 for Intel X86 EM64T Linux

 Parts of Q-Chem use Armadillo 8.300.2 (Tropical Shenanigans).
 http://arma.sourceforge.net/

 Q-Chem begins on Sun Sep 26 10:11:56 2021  

Host: cori01
0

     Scratch files written to /tmp/qchem46716//Frg2//
 May1019 |scratch|qcdevops|jenkins|workspace|build_RNUM -1
Processing $rem in /global/common/cori/software/qchem/5.2/config/preferences:
	 MEM_TOTAL  96000 
NAlpha2: 40
NElect   40
Mult     1
Symmetry turned off for PCM/SM12/SMD calculation

Checking the input file for inconsistencies... 	...done.

--------------------------------------------------------------
User input:
--------------------------------------------------------------
$molecule
1 1
 6	3.0176357354	0.6949850227	2.0401036654
 6	0.6686357354	-0.0430149773	1.8401036654
 7	-0.1743642646	-0.8770149773	1.2471036654
 7	1.9466357354	-0.1600149773	1.5491036654
 7	0.2296357354	0.8459850227	2.7101036654
 1	0.2196357354	-1.6060149773	0.6461036654
 1	-1.1643642646	-0.8920149773	1.4251036654
 1	2.1986357354	-0.8630149773	0.8521036654
 1	0.8796357354	1.4329850227	3.2191036654
 1	-0.7583642646	0.9669850227	2.8491036654
 1	2.6346357354	1.6989850227	2.2241036654
 1	3.7726357354	0.7819850227	1.2561036654
 1	3.5028657354	0.2920850227	2.9413416654
$end
$rem
EDA2		1
METHOD		WB97X-V
BASIS		DEF2-TZVPD
XC_GRID		000099000590
NL_GRID		1
UNRESTRICTED		FALSE
MAX_SCF_CYCLES		200
SYMMETRY		FALSE
SYM_IGNORE		TRUE
BASIS_LIN_DEP_THRESH		6
THRESH		14
SCF_CONVERGENCE		8
SCF_PRINT_FRGM		TRUE
SOLVENT_METHOD		PCM
!required keywords
JOBTYPE		SP
SYM_IGNORE		TRUE
SUBSYSTEM		TRUE
GEN_SCFMAN		TRUE
CHILD_INSTRUCTION		2
SYM_IGNORE		TRUE
SCFMI		0
RI_K 0		
PARI_K 0		
MIN_PARI_K 0		
IARI_K 0		
OCC_RI_K 0		
PURECART		1111
MEM_STATIC		2000
MEM_TOTAL		96000
GUI		0
CHILD_MP		1
CHILD_MP_ORDERS		232
FRZ_RELAX		0
FRZ_RELAX_METHOD		0
EDA_CLS_ELEC		1
EDA_CLS_DISP		0
FRZ_ORTHO_DECOMP		1
EDA2		FALSE
FRGM_METHOD		FALSE
CIS_N_ROOTS  0
LOCAL_CIS    0
CIS_RLX_DNS  1
$end
$pcm
THEORY                  CPCM
METHOD                  SWIG
SOLVER                  INVERSION
RADII                   UFF
HPOINTS                 302
HEAVYPOINTS             302
PRINTLEVEL              0
$end
$solvent
DIELECTRIC              78.390000 ! water
$end
--------------------------------------------------------------
 ----------------------------------------------------------------
             Standard Nuclear Orientation (Angstroms)
    I     Atom           X                Y                Z
 ----------------------------------------------------------------
    1      C       3.0176357354     0.6949850227     2.0401036654
    2      C       0.6686357354    -0.0430149773     1.8401036654
    3      N      -0.1743642646    -0.8770149773     1.2471036654
    4      N       1.9466357354    -0.1600149773     1.5491036654
    5      N       0.2296357354     0.8459850227     2.7101036654
    6      H       0.2196357354    -1.6060149773     0.6461036654
    7      H      -1.1643642646    -0.8920149773     1.4251036654
    8      H       2.1986357354    -0.8630149773     0.8521036654
    9      H       0.8796357354     1.4329850227     3.2191036654
   10      H      -0.7583642646     0.9669850227     2.8491036654
   11      H       2.6346357354     1.6989850227     2.2241036654
   12      H       3.7726357354     0.7819850227     1.2561036654
   13      H       3.5028657354     0.2920850227     2.9413416654
 ----------------------------------------------------------------
 Nuclear Repulsion Energy =         194.24222240 hartrees
 There are       20 alpha and       20 beta electrons
 Requested basis set is def2-TZVPD
 There are 105 shells and 257 basis functions

 Total QAlloc Memory Limit  96000 MB
 Mega-Array Size      1956 MB
 MEM_STATIC part      2000 MB
 Discretize the solute cavity surface with Lebedev spheres
	Using 302 Lebedev grid points for each H atom
	Using 302 Lebedev grid points for other atoms
	Atomic van der Waals radii will be scaled by 1.20
 Remove points where switching function is < 1.0e-08
 Keep 1565 surface tesserae and discard 2361 interior tesserae
 Molecular Surface Area = 152.212 Angst**2

                       Distance Matrix (Angstroms)
             C (  1)   C (  2)   N (  3)   N (  4)   N (  5)   H (  6)
   C (  2)  2.470313
   N (  3)  3.645394  1.325841
   N (  4)  1.455729  1.315923  2.259189
   N (  5)  2.871349  1.319069  2.296152  2.303920
   H (  6)  3.881577  2.017475  1.023659  2.426696  3.205074
   H (  7)  4.515077  2.062260  1.005987  3.198362  2.571985  1.741291
   H (  8)  2.123551  1.997359  2.405691  1.021529  3.201532  2.123894
   H (  9)  2.550633  2.030945  3.214934  2.542644  1.012991  4.036267
   H ( 10)  3.871258  2.018542  2.511533  3.205800  1.005040  3.525624
   H ( 11)  1.090211  2.654652  3.934563  2.094003  2.597659  4.386950
   H ( 12)  1.091902  3.264429  4.281492  2.075449  3.830282  4.324171
   H ( 13)  1.100003  3.059065  4.214173  2.136486  3.327809  4.432888
             H (  7)   H (  8)   H (  9)   H ( 10)   H ( 11)   H ( 12)
   H (  8)  3.411589
   H (  9)  3.577988  3.551629
   H ( 10)  2.376656  4.010082  1.742728
   H ( 11)  4.667342  2.938762  2.034897  3.526882
   H ( 12)  5.215823  2.312297  3.556209  4.806437  1.752985
   H ( 13)  5.048179  2.720329  2.874046  4.315331  1.802116  1.775614

 
 A cutoff of  1.0D-14 yielded   5443 shell pairs
 There are     33171 function pairs (     41504 Cartesian)
 Smallest overlap matrix eigenvalue = 1.64E-05

 Scale SEOQF with 1.000000e-01/1.000000e-01/1.000000e-01

 Standard Electronic Orientation quadrupole field applied
 Nucleus-field energy     =    -0.0000000111 hartrees
 Guess from superposition of atomic densities
 Warning:  Energy on first SCF cycle will be non-variational
 SAD guess density has 40.388232 electrons

 -----------------------------------------------------------------------
  General SCF calculation program by
  Eric Jon Sundstrom, Paul Horn, Yuezhi Mao, Dmitri Zuev, Alec White,
  David Stuck, Shaama M.S., Shane Yost, Joonho Lee, David Small,
  Daniel Levine, Susi Lehtola, Hugh Burton, Evgeny Epifanovsky
 -----------------------------------------------------------------------
 Exchange:     0.1670 Hartree-Fock + 1.0000 wB97X-V + LR-HF
 Correlation:  1.0000 wB97X-V
 Using Euler-Maclaurin-Lebedev (99,590) quadrature formula
 Nonlocal Correlation:  VV10 with C = 0.0100 and b = 6.00 and scale = 1.00000
 Grid used for NLC:  SG-1 standard quadrature
Energy prior to optimization (guess energy) = -244.725264050990
Begin Timing: Total SCF Calculation
begin iterations for algorithm: DIIS         
the SCF tolerance is set to 1.00e-08
    1    -244.7252640510      7.93e-03     00000 
    2    -244.9406990776      6.22e-03     00000 
    3    -245.1793064329      2.87e-04     00000 
    4    -245.1798721175      1.61e-04     00000 
    5    -245.1800479839      3.39e-05     00000 
    6    -245.1800563441      1.34e-05     00000 
    7    -245.1800578276      2.17e-06     00000 
    8    -245.1800578982      7.30e-07     00000 
    9    -245.1800579070      2.90e-07     00000 
   10    -245.1800579085      7.29e-08     00000 
   11    -245.1800579086      1.78e-08     00000 
   12    -245.1800579086      8.49e-09     00000 Convergence criterion met
Timing for Total SCF: 717.00s (wall), 1421.53s (cpu)

************** Final PCM Free Energy Summary **************
 G_electrostatic  =      -0.08144023 hartree =     -51.10451328 kcal/mol
 G_cavitation     =       0.00000000 hartree =       0.00000000 kcal/mol
 G_dispersion     =       0.00000000 hartree =       0.00000000 kcal/mol
 G_repulsion      =       0.00000000 hartree =       0.00000000 kcal/mol
 --------------------------------------------------
 Non-electrostatic Free Energy =       0.00000000 hartree =       0.00000000 kcal/mol
 Total                         =      -0.08144023 hartree =     -51.10451328 kcal/mol
 --------------------------------------------------
 SCF Energy (H0 + V/2)                       =    -245.18005791 
 Solute Internal Energy (H0)                 =    -245.09861768 
 Total Free Energy (H0 + V/2 + non-elec)     =    -245.18005791 hartree
                                             = -153852.80843800 kcal/mol
***********************************************************

E_pcm = -0.0814402262
Multipole orders to be included
        2
        3
computing dipole RHS
computing quadrupole RHS
total number of RHS in solve_reponses: 8
RHS batch sizes
        8
Beginning Block Conjugate Gradient Iterations. Batch Number: 0
computing hessian-vector products by finite difference
              1      4.55e-01     00000 Conjugate Gradient Iteration
computing hessian-vector products by finite difference
              2      1.76e-01     00000 Conjugate Gradient Iteration
computing hessian-vector products by finite difference
              3      5.02e-02     00000 Conjugate Gradient Iteration
computing hessian-vector products by finite difference
              4      1.35e-02     00000 Conjugate Gradient Iteration
computing hessian-vector products by finite difference
              5      1.94e-03     00000 Conjugate Gradient Iteration
computing hessian-vector products by finite difference
              6      3.07e-04     00000 Conjugate Gradient Iteration
computing hessian-vector products by finite difference
              7      4.09e-05     00000 Conjugate Gradient Iteration
computing hessian-vector products by finite difference
              8      5.23e-06     00000 Conjugate Gradient Iteration
computing hessian-vector products by finite difference
              9      7.40e-07     00000 Conjugate Gradient Iteration
computing hessian-vector products by finite difference
             10      9.66e-08     00000 Conjugate Gradient Iteration
computing hessian-vector products by finite difference
             11      1.51e-08     00000 Conjugate Gradient Iteration
computing hessian-vector products by finite difference
             12      1.92e-09     00000 CG Converged
batch 0 complete
Done Calculating Responses
TESTING ORTHOGONALIZATION OF MULTIPOLE BASIS
Multipole virts passed orthogonality test
Virts Per Order
           60
          100
 
 --------------------------------------------------------------
 
                    Orbital Energies (a.u.)
 --------------------------------------------------------------
 
 Alpha MOs
 -- Occupied --
-14.4833 -14.4779 -14.4736 -10.4499 -10.3298  -1.2017  -1.0835  -1.0703
 -0.8813  -0.7939  -0.7502  -0.7170  -0.6488  -0.6381  -0.6221  -0.5976
 -0.5513  -0.5322  -0.4261  -0.4017
 -- Virtual --
  0.0479   0.0757   0.0806   0.0859   0.1127   0.1155   0.1245   0.1416
  0.1574   0.1599   0.1796   0.1870   0.1940   0.1968   0.2121   0.2215
  0.2313   0.2348   0.2380   0.2575   0.2672   0.2699   0.2801   0.2900
  0.2966   0.3075   0.3101   0.3139   0.3227   0.3305   0.3437   0.3494
  0.3547   0.3586   0.3651   0.3791   0.3942   0.3976   0.4055   0.4173
  0.4263   0.4350   0.4499   0.4540   0.4644   0.4675   0.4720   0.4837
  0.4880   0.4961   0.5022   0.5086   0.5161   0.5261   0.5354   0.5372
  0.5496   0.5527   0.5665   0.5757   0.5904   0.6033   0.6221   0.6359
  0.6452   0.6633   0.6676   0.6855   0.7109   0.7234   0.7280   0.7479
  0.7809   0.7867   0.7988   0.8074   0.8131   0.8227   0.8406   0.8489
  0.8614   0.8703   0.8837   0.9028   0.9157   0.9575   0.9679   0.9737
  1.0150   1.0442   1.0520   1.0738   1.0817   1.0936   1.1141   1.1251
  1.1348   1.1617   1.1919   1.2375   1.2531   1.3237   1.3426   1.3884
  1.4059   1.4288   1.4569   1.4657   1.5308   1.5484   1.6054   1.6509
  1.6615   1.6909   1.7287   1.7672   1.8182   1.8330   1.8622   1.8695
  1.8803   1.8911   1.9189   1.9316   1.9783   1.9821   2.0132   2.0451
  2.0907   2.1069   2.1464   2.1863   2.1953   2.2132   2.2240   2.2791
  2.3016   2.3102   2.3583   2.3810   2.4181   2.4441   2.4777   2.4854
  2.5342   2.5618   2.5988   2.6200   2.6372   2.6444   2.6864   2.6889
  2.7665   2.7842   2.8369   2.8436   2.8619   2.8744   2.9320   2.9418
  3.0145   3.1023   3.1141   3.1287   3.1460   3.1635   3.2084   3.2250
  3.2510   3.2556   3.2787   3.3135   3.3373   3.3791   3.3839   3.4173
  3.4459   3.4837   3.5128   3.5657   3.5751   3.6237   3.6706   3.7239
  3.7924   3.8681   3.9102   3.9691   4.0288   4.1040   4.1558   4.2031
  4.2622   4.2938   4.3096   4.3273   4.3766   4.4494   4.5633   4.5953
  4.6472   4.8127   4.8421   4.8523   4.9054   4.9659   4.9860   5.0298
  5.0746   5.0824   5.1040   5.1268   5.1795   5.2105   5.2632   5.3497
  5.3751   5.3937   5.4134   5.4273   5.4585   5.4873   5.5502   5.6207
  5.6780   5.7545   5.7849   5.8539   6.1045   6.1903   6.3613   6.4541
 22.6450  23.6302  32.3051  32.4346  32.8048
 --------------------------------------------------------------
 
          Ground-State Mulliken Net Atomic Charges

     Atom                 Charge (a.u.)
  ----------------------------------------
      1 C                    -0.807746
      2 C                     0.586726
      3 N                    -0.271720
      4 N                    -0.086955
      5 N                    -0.252210
      6 H                     0.204352
      7 H                     0.192211
      8 H                     0.242354
      9 H                     0.176354
     10 H                     0.203329
     11 H                     0.288326
     12 H                     0.264278
     13 H                     0.260700
  ----------------------------------------
  Sum of atomic charges =     1.000000

 -----------------------------------------------------------------
                    Cartesian Multipole Moments
 -----------------------------------------------------------------
    Charge (ESU x 10^10)
                 4.8032
    Dipole Moment (Debye)
         X       3.9903      Y      -0.0860      Z       8.7651
       Tot       9.6310
    Quadrupole Moments (Debye-Ang)
        XX     -11.0888     XY       1.6789     YY     -22.7370
        XZ       5.6370     YZ       7.4083     ZZ      -9.4254
    Octopole Moments (Debye-Ang^2)
       XXX     -65.2431    XXY       0.3854    XYY     -30.4779
       YYY     -11.8338    XXZ     -24.6414    XYZ       7.6970
       YYZ     -44.4408    XZZ     -22.8329    YZZ      23.8119
       ZZZ    -114.8407
    Hexadecapole Moments (Debye-Ang^3)
      XXXX    -437.1713   XXXY     -29.5177   XXYY    -103.4469
      XYYY     -44.1602   YYYY    -110.2343   XXXZ    -139.5342
      XXYZ       0.2246   XYYZ     -59.5584   YYYZ     -36.2230
      XXZZ    -149.4051   XYZZ       4.5510   YYZZ    -108.0817
      XZZZ    -168.3990   YZZZ      34.7764   ZZZZ    -576.2297
 -----------------------------------------------------------------
Archival summary:
1\1\nid00504\SP\ProcedureUnspecified\BasisUnspecified\328(1+,1)\meili\SunSep2614:00:082021SunSep2614:00:082021\0\\#,ProcedureUnspecified,BasisUnspecified,\\1,1\C\N,1,1.31592\H,2,1.02153,1,116.85\N,1,1.31907,2,121.938,3,-178.945,0\H,4,1.00504,1,119.969,2,174.482,0\H,4,1.01299,1,120.557,2,-3.41183,0\N,1,1.32584,2,117.559,3,2.55098,0\H,7,1.00599,1,123.777,2,177.751,0\H,7,1.02366,1,117.764,2,4.08231,0\C,2,1.45573,1,125.994,3,174.292,0\H,10,1.09021,2,109.837,1,-29.8908,0\H,10,1.0919,2,108.26,1,-146.281,0\H,10,1.1,2,112.691,1,94.0779,0\\\@

 Total job time:  13694.29s(wall), 27140.46s(cpu) 
 Sun Sep 26 14:00:10 2021

        *************************************************************
        *                                                           *
        *  Thank you very much for using Q-Chem.  Have a nice day.  *
        *                                                           *
        *************************************************************


Done Job For Fragment 1
calling putenv with: QCSCRATCH=/global/cscratch1/sd/meili 
calling putenv with: QCLOCALSCR=/tmp 
calling putenv with: QCTHREADS=32 
Doing General SCFMI
 Exchange:     0.1670 Hartree-Fock + 1.0000 wB97X-V + LR-HF
 Correlation:  1.0000 wB97X-V
 Using Euler-Maclaurin-Lebedev (99,590) quadrature formula
 Nonlocal Correlation:  VV10 with C = 0.0100 and b = 6.00 and scale = 1.00000
 Grid used for NLC:  SG-1 standard quadrature
performing fock build before subrot guess so that all methods have access
Printing subrot_rss_gen Method Specification:
Occupied Subspace Method is 0
Virtual Subspace Method is 0
Energy of the unrelaxed supersystem initial determinant -454.315265795551
performing fock build before subrot guess so that all methods have access
Printing subrot_rss_gen Method Specification:
Occupied Subspace Method is 0
Virtual Subspace Method is 0
Energy of the unrelaxed supersystem initial determinant w/ solvent -454.393721012593
write pseudocanon occs and virts to disk
write pseudocanon orbital energies to disk
Tolerance of ortho_decomp_scf: 1.00e-06
GDM subspace size: 20
Beginning the Orthogonal Decomposition of the Initial Supersystem Wavefunction
    1    -454.2857250734      3.37e-02     ortho_decomp Preconditoned Steepest Descent
    2    -454.2877126138      8.08e-04     ortho_decomp BFGS Step
    3    -454.2877180610      4.69e-05     ortho_decomp BFGS Step
    4    -454.2877180657      1.53e-06     ortho_decomp BFGS Step
    5    -454.2877180657      4.46e-08     ortho_decomp 00000 Convergence criterion met
 Hartree-Fock
 Hartree-Fock
 Hartree-Fock
Doing General SCFMI
 Exchange:     0.1670 Hartree-Fock + 1.0000 wB97X-V + LR-HF
 Correlation:  1.0000 wB97X-V
 Using Euler-Maclaurin-Lebedev (99,590) quadrature formula
 Nonlocal Correlation:  VV10 with C = 0.0100 and b = 6.00 and scale = 1.00000
 Grid used for NLC:  SG-1 standard quadrature
performing fock build at end of subrot_r(subrot) constructor so that all methods have access
<S^2> of initial wavefunction before polarization iterations 0.0000000000
Beginning iterations for the determination of the polarized wavefunction
Energy prior to optimization (guess energy) = -454.393721012593
Begin Timing: Total SCF Calculation
begin iterations for algorithm: DIIS         
the SCF tolerance is set to 1.00e-08
    1    -454.3937210126      6.94e-05     00000 
    2    -454.3939459027      4.47e-05     00000 
    3    -454.3939884888      1.86e-05     00000 
    4    -454.3939997228      6.61e-06     00000 
    5    -454.3940013814      2.69e-06     00000 
    6    -454.3940016966      8.30e-07     00000 
    7    -454.3940017384      3.44e-07     00000 
    8    -454.3940017437      7.64e-08     00000 
    9    -454.3940017442      2.85e-08     00000 
   10    -454.3940017442      1.02e-08     00000 
   11    -454.3940017442      3.51e-09     00000 Convergence criterion met
write pseudocanon occs and virts to disk
write pseudocanon orbital energies to disk
Timing for Total SCF: 2863.00s (wall), 5685.45s (cpu)
<S^2> of polarized wavefunction after polarization iterations 0.0000000000
relaxing scfmi constraint to allow all rotations in the entire AO span
Doing General SCFMI
 Exchange:     0.1670 Hartree-Fock + 1.0000 wB97X-V + LR-HF
 Correlation:  1.0000 wB97X-V
 Using Euler-Maclaurin-Lebedev (99,590) quadrature formula
 Nonlocal Correlation:  VV10 with C = 0.0100 and b = 6.00 and scale = 1.00000
 Grid used for NLC:  SG-1 standard quadrature
performing fock build at end of subrot_r(subrot) constructor so that all methods have access
<S^2> of polarized wavefunction before ct-allowed iterations 0.0000000000
Beginning iterations for the determination of the CT-Allowed wavefunction
Energy prior to optimization (guess energy) = -454.394001744226
Begin Timing: Total SCF Calculation
begin iterations for algorithm: DIIS         
the SCF tolerance is set to 1.00e-08
    1    -454.3940017442      6.01e-05     00000 
    2    -454.3943442161      5.81e-06     00000 
    3    -454.3943544332      1.26e-06     00000 
    4    -454.3943547864      1.25e-06     00000 
    5    -454.3943548995      1.34e-07     00000 
    6    -454.3943549039      5.55e-08     00000 
    7    -454.3943549043      1.52e-08     00000 
    8    -454.3943549043      4.41e-09     00000 Convergence criterion met
write pseudocanon occs and virts to disk
write pseudocanon orbital energies to disk
Timing for Total SCF: 2002.00s (wall), 3977.64s (cpu)
<S^2> of ct_allowed wavefunction after ct-allowed iterations 0.0000000000

================================
        Results of EDA2         
================================
Basic EDA Quantities
--------------------
Fragment Energies (Ha):
1 -209.2137432295
2 -245.1800579086
--------------------
  E_prp (kJ/mol) = -0.0000
  E_sol (kJ/mol) = 44.0380
  E_frz (kJ/mol) = -43.8276
  E_pol (kJ/mol) = -0.7371
  E_vct (kJ/mol) = -0.9272
  E_int (kJ/mol) = -1.4539
--------------------


Initial Wavefunction Decomposition
--------------------
  --------------------
  Orthogonal Fragment Subspace Decomposition:
  --------------------
     E_elec   (ELEC)   (kJ/mol) = -57.4941
     E_pauli  (PAULI)  (kJ/mol) = 22.5679
     E_disp   (DISP)   (kJ/mol) = -8.9015
     --------------------
     Terms summing to E_pauli:
     --------------------
        E_kep_pauli       (kJ/mol) = 28.4998
        E_disp_free_pauli (kJ/mol) = -5.9319
  --------------------
  Classical Frozen Decomposition:
  --------------------
     E_cls_elec  (CLS ELEC)  (kJ/mol) = -45.2559
     E_cls_pauli (CLS PAULI) (kJ/mol) = 1.4283
    [E_mod_pauli (MOD PAULI) (kJ/mol) = 10.3298 (CLS PAULI - DISP from orthogonal decomposition) ]
  --------------------
--------------------

Simplified EDA Summary (kJ/mol)
--------------------
 PREPARATION     -0.0000
 SOLVATION       44.0380
 FROZEN          -34.9261      (does not include dispersion)
[PAULI           22.5679]     (if this is negligible, then frozen describes electrostatics)
 DISPERSION      -8.9015
 POLARIZATION    -0.7371
 CHARGE TRANSFER -0.9272
 TOTAL           -1.4539     (PRP + SOL + FRZ + DISP + POL + CT)
--------------------
 
 --------------------------------------------------------------
 
                    Orbital Energies (a.u.)
 --------------------------------------------------------------
 
 Alpha MOs
 -- Occupied --
-19.1533 -14.4807 -14.4755 -14.4688 -14.4267 -10.4466 -10.3547 -10.3287
-10.2774  -1.1985  -1.1930  -1.0810  -1.0666  -1.0466  -0.8891  -0.8793
 -0.7915  -0.7476  -0.7247  -0.7140  -0.6741  -0.6465  -0.6349  -0.6195
 -0.5955  -0.5916  -0.5866  -0.5493  -0.5310  -0.5202  -0.5018  -0.4952
 -0.4228  -0.3991  -0.3699  -0.3551
 -- Virtual --
  0.0463   0.0654   0.0724   0.0779   0.0867   0.0917   0.1032   0.1093
  0.1116   0.1171   0.1249   0.1299   0.1367   0.1418   0.1522   0.1609
  0.1637   0.1689   0.1767   0.1797   0.1930   0.1994   0.2047   0.2118
  0.2179   0.2229   0.2272   0.2308   0.2362   0.2468   0.2496   0.2579
  0.2612   0.2614   0.2697   0.2803   0.2827   0.2887   0.2926   0.2970
  0.3024   0.3051   0.3180   0.3197   0.3228   0.3261   0.3306   0.3329
  0.3371   0.3425   0.3449   0.3503   0.3543   0.3582   0.3619   0.3647
  0.3683   0.3761   0.3797   0.3866   0.3936   0.3987   0.4023   0.4063
  0.4098   0.4146   0.4195   0.4229   0.4314   0.4384   0.4437   0.4498
  0.4518   0.4619   0.4635   0.4687   0.4698   0.4759   0.4777   0.4823
  0.4871   0.4948   0.5009   0.5030   0.5047   0.5141   0.5165   0.5259
  0.5304   0.5396   0.5406   0.5512   0.5529   0.5646   0.5714   0.5716
  0.5789   0.5844   0.5899   0.5977   0.6064   0.6117   0.6220   0.6264
  0.6290   0.6319   0.6426   0.6488   0.6503   0.6562   0.6700   0.6729
  0.6914   0.6960   0.7013   0.7095   0.7131   0.7190   0.7308   0.7361
  0.7446   0.7536   0.7601   0.7652   0.7736   0.7874   0.7946   0.8007
  0.8062   0.8119   0.8176   0.8274   0.8311   0.8374   0.8452   0.8525
  0.8626   0.8641   0.8784   0.8815   0.8858   0.8954   0.9044   0.9141
  0.9356   0.9405   0.9475   0.9547   0.9772   0.9772   0.9843   0.9946
  1.0145   1.0259   1.0346   1.0381   1.0482   1.0574   1.0609   1.0685
  1.0810   1.0979   1.1074   1.1140   1.1272   1.1394   1.1549   1.1613
  1.1813   1.1929   1.2038   1.2273   1.2408   1.2594   1.2866   1.2897
  1.3085   1.3368   1.3496   1.3497   1.3725   1.3767   1.4211   1.4380
  1.4524   1.4836   1.4910   1.5042   1.5321   1.5426   1.5643   1.5845
  1.6243   1.6468   1.6657   1.6803   1.6965   1.7334   1.7392   1.7457
  1.7637   1.7839   1.8124   1.8322   1.8379   1.8540   1.8587   1.8769
  1.8938   1.8998   1.9124   1.9267   1.9343   1.9392   1.9482   1.9606
  1.9834   1.9847   1.9998   2.0165   2.0231   2.0473   2.0686   2.0789
  2.0991   2.1164   2.1283   2.1628   2.1660   2.1856   2.2009   2.2081
  2.2222   2.2350   2.2421   2.2483   2.2881   2.3019   2.3192   2.3328
  2.3845   2.3934   2.4103   2.4179   2.4299   2.4373   2.4538   2.4678
  2.4961   2.5110   2.5220   2.5397   2.5602   2.5780   2.6013   2.6094
  2.6162   2.6263   2.6341   2.6611   2.6763   2.6846   2.6974   2.7014
  2.7100   2.7645   2.7912   2.8083   2.8119   2.8346   2.8451   2.8611
  2.8797   2.8924   2.9145   2.9480   2.9730   2.9863   3.0196   3.0356
  3.0577   3.0897   3.1192   3.1222   3.1395   3.1564   3.1668   3.1931
  3.2102   3.2213   3.2320   3.2345   3.2530   3.2611   3.2692   3.2775
  3.2867   3.3064   3.3322   3.3383   3.3468   3.3565   3.3767   3.3927
  3.3992   3.4276   3.4536   3.4589   3.4796   3.4902   3.5003   3.5237
  3.5739   3.5797   3.5880   3.6214   3.6325   3.6495   3.6571   3.6786
  3.6843   3.7329   3.7911   3.8127   3.8656   3.8752   3.9185   3.9334
  3.9577   3.9918   4.0374   4.0524   4.1136   4.1398   4.1765   4.1814
  4.2188   4.2710   4.2776   4.2997   4.3135   4.3317   4.3468   4.3837
  4.4536   4.4622   4.5434   4.5734   4.6072   4.6321   4.6572   4.6904
  4.7472   4.8295   4.8667   4.8742   4.8932   4.9085   4.9223   4.9404
  4.9922   5.0042   5.0203   5.0704   5.0882   5.0991   5.1204   5.1435
  5.1790   5.1885   5.2430   5.2755   5.2840   5.3045   5.3613   5.3951
  5.4062   5.4145   5.4332   5.4406   5.4732   5.5028   5.5208   5.5322
  5.5621   5.5744   5.5882   5.6366   5.6746   5.6961   5.7667   5.7947
  5.8249   5.8647   5.9994   6.1173   6.1969   6.2355   6.3227   6.3765
  6.4628   6.6310   6.7090   6.8167   6.9001   7.0228   7.2993   7.3905
 22.6337  22.6520  23.6466  23.9128  32.3606  32.4702  32.5588  32.8320
 44.4026
 --------------------------------------------------------------
 
          Ground-State Mulliken Net Atomic Charges

     Atom                 Charge (a.u.)
  ----------------------------------------
      1 C                    -0.505080
      2 C                     0.423448
      3 O                    -0.654250
      4 N                    -0.207038
      5 H                     0.257373
      6 H                     0.106867
      7 H                     0.218072
      8 H                     0.168644
      9 H                     0.198327
     10 C                    -0.844965
     11 C                     0.586704
     12 N                    -0.238790
     13 N                    -0.095441
     14 N                    -0.263016
     15 H                     0.201431
     16 H                     0.177629
     17 H                     0.247847
     18 H                     0.169218
     19 H                     0.210641
     20 H                     0.308651
     21 H                     0.271008
     22 H                     0.262719
  ----------------------------------------
  Sum of atomic charges =     1.000000

 -----------------------------------------------------------------
                    Cartesian Multipole Moments
 -----------------------------------------------------------------
    Charge (ESU x 10^10)
                 4.8032
    Dipole Moment (Debye)
         X       0.1228      Y      -1.3547      Z       4.9919
       Tot       5.1739
    Quadrupole Moments (Debye-Ang)
        XX     -26.3646     XY       2.2641     YY     -43.8390
        XZ      19.0397     YZ       7.9850     ZZ     -17.1177
    Octopole Moments (Debye-Ang^2)
       XXX      17.3384    XXY       3.8465    XYY      -0.9349
       YYY       6.2133    XXZ      -0.8408    XYZ       9.6822
       YYZ       0.9173    XZZ     -35.8695    YZZ      33.1045
       ZZZ      -8.2007
    Hexadecapole Moments (Debye-Ang^3)
      XXXX    -766.6581   XXXY     -59.0741   XXYY    -187.5295
      XYYY     -87.3661   YYYY    -272.1203   XXXZ    -325.1692
      XXYZ      -9.9274   XYYZ    -132.1414   YYYZ     -72.3941
      XXZZ    -241.9884   XYZZ     -22.0657   YYZZ    -247.5903
      XZZZ    -266.6135   YZZZ     -16.9210   ZZZZ   -1247.3374
 -----------------------------------------------------------------
Archival summary:
1\1\nid00504\SP\ProcedureUnspecified\BasisUnspecified\14413(1+,1)\meili\SunSep2616:27:382021SunSep2616:27:382021\0\\#,ProcedureUnspecified,BasisUnspecified,\\1,1\O\C,1,1.22655\N,2,1.22023,1,110.476\H,3,1.00688,2,117.191,1,2.42397,0\H,3,1.00921,2,121.109,1,-177.75,0\C,2,1.4692,1,126.069,3,-175.094,0\H,6,1.0855,2,107.529,1,34.4654,0\H,6,1.09082,2,110.264,1,153.494,0\H,6,1.1,2,108.411,1,-85.4888,0\H,7,2.68227,6,130.465,2,-58.2365,0\N,10,1.02366,7,98.4192,6,115.529,0\H,11,1.00599,10,118.167,7,38.5211,0\C,11,1.32584,10,117.764,7,-147.447,0\N,13,1.31592,11,117.559,10,4.08231,0\H,14,1.02153,13,116.85,11,2.55098,0\N,13,1.31907,11,120.486,10,-174.445,0\H,16,1.00504,13,119.969,11,-7.05669,0\H,16,1.01299,13,120.557,11,175.049,0\C,14,1.45573,13,125.994,11,176.843,0\H,19,1.09021,14,109.837,13,-29.8908,0\H,19,1.0919,14,108.26,13,-146.281,0\H,19,1.1,14,112.691,13,94.0779,0\\\@

 Total job time:  29008.10s(wall), 17606.65s(cpu) 
 Sun Sep 26 16:27:41 2021

        *************************************************************
        *                                                           *
        *  Thank you very much for using Q-Chem.  Have a nice day.  *
        *                                                           *
        *************************************************************


