
Running Job 1 of 1 SSI-108TRP-151ASN-1_SMD_TZVPD.in
qchem SSI-108TRP-151ASN-1_SMD_TZVPD.in_59500.0 /tmp/qchem59500/ 0
/global/common/cori/software/qchem/5.2/exe/qcprog.exe_s SSI-108TRP-151ASN-1_SMD_TZVPD.in_59500.0 /tmp/qchem59500/
                  Welcome to Q-Chem
     A Quantum Leap Into The Future Of Chemistry


 Q-Chem 5.2, Q-Chem, Inc., Pleasanton, CA (2019)

 License issued to: National Energy Research Scientific Computing Center

 Yihan Shao,  Zhengting Gan,  E. Epifanovsky,  A. T. B. Gilbert,  M. Wormit,  
 J. Kussmann,  A. W. Lange,  A. Behn,  Jia Deng,  Xintian Feng,  D. Ghosh,  
 M. Goldey,  P. R. Horn,  L. D. Jacobson,  I. Kaliman,  T. Kus,  A. Landau,  
 Jie Liu,  E. I. Proynov,  R. M. Richard,  R. P. Steele,  E. J. Sundstrom,  
 H. L. Woodcock III,  P. M. Zimmerman,  D. Zuev,  B. Albrecht,  E. Alguire,  
 S. A. Baeppler,  D. Barton,  Z. Benda,  Y. A. Bernard,  E. J. Berquist,  
 K. B. Bravaya,  H. Burton,  D. Casanova,  Chun-Min Chang,  Yunqing Chen,  
 A. Chien,  K. D. Closser,  M. P. Coons,  S. Coriani,  S. Dasgupta,  
 A. L. Dempwolff,  M. Diedenhofen,  Hainam Do,  R. G. Edgar,  Po-Tung Fang,  
 S. Faraji,  S. Fatehi,  Qingguo Feng,  K. D. Fenk,  J. Fosso-Tande,  
 J. Gayvert,  Qinghui Ge,  A. Ghysels,  G. Gidofalvi,  J. Gomes,  
 J. Gonthier,  A. Gunina,  D. Hait,  M. W. D. Hanson-Heine,  
 P. H. P. Harbach,  A. W. Hauser,  M. F. Herbst,  J. E. Herr,  
 E. G. Hohenstein,  Z. C. Holden,  Kerwin Hui,  B. C. Huynh,  T.-C. Jagau,  
 Hyunjun Ji,  B. Kaduk,  K. Khistyaev,  Jaehoon Kim,  P. Klunzinger,  K. Koh,  
 D. Kosenkov,  L. Koulias,  T. Kowalczyk,  C. M. Krauter,  A. Kunitsa,  
 Ka Un Lao,  A. Laurent,  K. V. Lawler,  Joonho Lee,  D. Lefrancois,  
 S. Lehtola,  D. S. Levine,  Yi-Pei Li,  You-Sheng Lin,  Fenglai Liu,  
 E. Livshits,  A. Luenser,  P. Manohar,  E. Mansoor,  S. F. Manzer,  
 Shan-Ping Mao,  Yuezhi Mao,  N. Mardirossian,  A. V. Marenich,  
 T. Markovich,  L. A. Martinez-Martinez,  S. A. Maurer,  N. J. Mayhall,  
 S. C. McKenzie,  J.-M. Mewes,  P. Morgante,  A. F. Morrison,  
 J. W. Mullinax,  K. Nanda,  T. S. Nguyen-Beck,  R. Olivares-Amaya,  
 J. A. Parkhill,  Zheng Pei,  T. M. Perrine,  F. Plasser,  P. Pokhilko,  
 S. Prager,  A. Prociuk,  E. Ramos,  D. R. Rehn,  F. Rob,  M. Scheurer,  
 M. Schneider,  N. Sergueev,  S. M. Sharada,  S. Sharma,  D. W. Small,  
 T. Stauch,  T. Stein,  Yu-Chuan Su,  A. J. W. Thom,  A. Tkatchenko,  
 T. Tsuchimochi,  N. M. Tubman,  L. Vogt,  M. L. Vidal,  O. Vydrov,  
 M. A. Watson,  J. Wenzel,  M. de Wergifosse,  T. A. Wesolowski,  A. White,  
 J. Witte,  A. Yamada,  Jun Yang,  K. Yao,  S. Yeganeh,  S. R. Yost,  
 Zhi-Qiang You,  A. Zech,  Igor Ying Zhang,  Xing Zhang,  Yan Zhao,  
 Ying Zhu,  B. R. Brooks,  G. K. L. Chan,  C. J. Cramer,  M. S. Gordon,  
 W. J. Hehre,  A. Klamt,  M. W. Schmidt,  C. D. Sherrill,  D. G. Truhlar,  
 A. Aspuru-Guzik,  R. Baer,  A. T. Bell,  N. A. Besley,  Jeng-Da Chai,  
 A. E. DePrince, III,  R. A. DiStasio Jr.,  A. Dreuw,  B. D. Dunietz,  
 T. R. Furlani,  Chao-Ping Hsu,  Yousung Jung,  Jing Kong,  D. S. Lambrecht,  
 WanZhen Liang,  C. Ochsenfeld,  V. A. Rassolov,  L. V. Slipchenko,  
 J. E. Subotnik,  T. Van Voorhis,  J. M. Herbert,  A. I. Krylov,  
 P. M. W. Gill,  M. Head-Gordon

 Contributors to earlier versions of Q-Chem not listed above: 
 R. D. Adamson,  B. Austin,  J. Baker,  G. J. O. Beran,  K. Brandhorst,  
 S. T. Brown,  E. F. C. Byrd,  A. K. Chakraborty,  C.-L. Cheng,  
 Siu Hung Chien,  D. M. Chipman,  D. L. Crittenden,  H. Dachsel,  
 R. J. Doerksen,  A. D. Dutoi,  L. Fusti-Molnar,  W. A. Goddard III,  
 A. Golubeva-Zadorozhnaya,  S. R. Gwaltney,  G. Hawkins,  A. Heyden,  
 S. Hirata,  G. Kedziora,  F. J. Keil,  C. Kelley,  Jihan Kim,  R. A. King,  
 R. Z. Khaliullin,  P. P. Korambath,  W. Kurlancheek,  A. M. Lee,  M. S. Lee,  
 S. V. Levchenko,  Ching Yeh Lin,  D. Liotard,  R. C. Lochan,  I. Lotan,  
 P. E. Maslen,  N. Nair,  D. P. O'Neill,  D. Neuhauser,  E. Neuscamman,  
 C. M. Oana,  R. Olson,  B. Peters,  R. Peverati,  P. A. Pieniazek,  
 Y. M. Rhee,  J. Ritchie,  M. A. Rohrdanz,  E. Rosta,  N. J. Russ,  
 H. F. Schaefer III,  N. E. Schultz,  N. Shenvi,  A. C. Simmonett,  A. Sodt,  
 D. Stuck,  K. S. Thanthiriwatte,  V. Vanovschi,  Tao Wang,  A. Warshel,  
 C. F. Williams,  Q. Wu,  X. Xu,  W. Zhang

 Please cite Q-Chem as follows:
 Y. Shao et al., Mol. Phys. 113, 184-215 (2015)
 DOI: 10.1080/00268976.2014.952696

 Q-Chem 5.2.0 for Intel X86 EM64T Linux

 Parts of Q-Chem use Armadillo 8.300.2 (Tropical Shenanigans).
 http://arma.sourceforge.net/

 Q-Chem begins on Sun Sep 26 13:29:42 2021  

Host: cori01
0

     Scratch files written to /tmp/qchem59500//
 May1019 |scratch|qcdevops|jenkins|workspace|build_RNUM -1
Processing $rem in /global/common/cori/software/qchem/5.2/config/preferences:
	 MEM_TOTAL  96000 
NAlpha2: 102
NElect   102
Mult     1
Symmetry turned off for PCM/SM12/SMD calculation

 Q-Chem warning in module libgen/rem_setup.C, line 2803:

 Neither GIA nor STOLL is specified by user. Use STOLL as the default


Checking the input file for inconsistencies... 	...done.

--------------------------------------------------------------
User input:
--------------------------------------------------------------
$comment
SSI-108TRP-151ASN-1.pdb
$end

$molecule
0 1
--
0 1
C   -2.201631181019   -4.107579964030    1.025269141503
C   -1.016631181019   -0.630579964030    0.386269141503
C   -0.785631181019   -2.020579964030    0.404269141503
C   -1.978631181019   -2.642579964030    0.898269141503
C   -2.865631181019   -1.638579964030    1.145269141503
C   -0.045631181019    0.270420035970   -0.019730858497
C    1.174368818981   -0.236579964030   -0.430730858497
C    1.423368818981   -1.609579964030   -0.426730858497
C    0.468368818981   -2.501579964030    0.001269141503
N   -2.291631181019   -0.433579964030    0.843269141503
H   -0.240631181019    1.331420035970   -0.008730858497
H    1.956368818981    0.437420035970   -0.751730858497
H   -2.715631181019    0.483420035970    1.006269141503
H    2.397368818981   -1.975579964030   -0.715730858497
H   -3.875631181019   -1.777579964030    1.513269141503
H    0.682368818981   -3.556579964030    0.057269141503
H   -2.798631181019   -4.302579964030    1.917269141503
H   -1.233631181019   -4.581579964030    1.187269141503
H   -2.666031181019   -4.580591964030    0.147439141503
--
0 1
C    1.053368818981    3.826420035970   -2.022730858497
C    1.939368818981    3.447420035970   -0.862730858497
O    2.980368818981    2.762420035970   -1.014730858497
N    1.550368818981    3.911420035970    0.306269141503
H    0.062368818981    3.416420035970   -1.828730858497
H    1.435368818981    3.359420035970   -2.929730858497
H    2.103368818981    3.668420035970    1.115269141503
H    0.670368818981    4.389420035970    0.422269141503
H    0.976528818981    4.914390035970   -2.165640858497
$end

$rem
JOBTYPE			EDA
EDA2			1
method			wB97X-V
BASIS			def2-TZVPD
XC_GRID			000099000590
NL_GRID			1
UNRESTRICTED		FALSE
MAX_SCF_CYCLES		200
SYMMETRY		FALSE
SYM_IGNORE		TRUE
MEM_STATIC		2000
BASIS_LIN_DEP_THRESH 	6
THRESH 			14
SCF_CONVERGENCE 	8
SCF_PRINT_FRGM 		TRUE
SOLVENT_METHOD          SMD
$end

$SMX
SOLVENT			WATER
$END
--------------------------------------------------------------
 ----------------------------------------------------------------
             Standard Nuclear Orientation (Angstroms)
    I     Atom           X                Y                Z
 ----------------------------------------------------------------
    1      C      -2.2016311810    -4.1075799640     1.0252691415
    2      C      -1.0166311810    -0.6305799640     0.3862691415
    3      C      -0.7856311810    -2.0205799640     0.4042691415
    4      C      -1.9786311810    -2.6425799640     0.8982691415
    5      C      -2.8656311810    -1.6385799640     1.1452691415
    6      C      -0.0456311810     0.2704200360    -0.0197308585
    7      C       1.1743688190    -0.2365799640    -0.4307308585
    8      C       1.4233688190    -1.6095799640    -0.4267308585
    9      C       0.4683688190    -2.5015799640     0.0012691415
   10      N      -2.2916311810    -0.4335799640     0.8432691415
   11      H      -0.2406311810     1.3314200360    -0.0087308585
   12      H       1.9563688190     0.4374200360    -0.7517308585
   13      H      -2.7156311810     0.4834200360     1.0062691415
   14      H       2.3973688190    -1.9755799640    -0.7157308585
   15      H      -3.8756311810    -1.7775799640     1.5132691415
   16      H       0.6823688190    -3.5565799640     0.0572691415
   17      H      -2.7986311810    -4.3025799640     1.9172691415
   18      H      -1.2336311810    -4.5815799640     1.1872691415
   19      H      -2.6660311810    -4.5805919640     0.1474391415
   20      C       1.0533688190     3.8264200360    -2.0227308585
   21      C       1.9393688190     3.4474200360    -0.8627308585
   22      O       2.9803688190     2.7624200360    -1.0147308585
   23      N       1.5503688190     3.9114200360     0.3062691415
   24      H       0.0623688190     3.4164200360    -1.8287308585
   25      H       1.4353688190     3.3594200360    -2.9297308585
   26      H       2.1033688190     3.6684200360     1.1152691415
   27      H       0.6703688190     4.3894200360     0.4222691415
   28      H       0.9765288190     4.9143900360    -2.1656408585
 ----------------------------------------------------------------
 Nuclear Repulsion Energy =         813.12420714 hartrees
 There are       51 alpha and       51 beta electrons
 Requested basis set is def2-TZVPD
 There are 253 shells and 647 basis functions

 Total QAlloc Memory Limit  96000 MB
 Mega-Array Size      1956 MB
 MEM_STATIC part      2000 MB
 
 Citation of the SMD model:
 Marenich, A.V.; Cramer, C.J.; Truhlar, D.G.
 J. Phys. Chem. B 2009, 113, 6378-6396.
 iSolventCode=           1
 Solvent: water                                                           
 
 vradii
            1           2           3           4           5           6
    1   1.8500000   1.8500000   1.8500000   1.8500000   1.8500000   1.8500000
            7           8           9          10          11          12
    1   1.8500000   1.8500000   1.8500000   1.8900000   1.2000000   1.2000000
           13          14          15          16          17          18
    1   1.2000000   1.2000000   1.2000000   1.2000000   1.2000000   1.2000000
           19          20          21          22          23          24
    1   1.2000000   1.8500000   1.8500000   1.5200000   1.8900000   1.2000000
           25          26          27          28
    1   1.2000000   1.2000000   1.2000000   1.2000000
 Changing PCM_VDW_RADII to SMD_RADIUS
 Discretize the solute cavity surface with Lebedev spheres
	Using 110 Lebedev grid points for each H atom
	Using 194 Lebedev grid points for other atoms
	Atomic van der Waals radii will be scaled by 1.20
 Remove points where switching function is < 1.0e-08
 Keep 2085 surface tesserae and discard 2171 interior tesserae
 Molecular Surface Area = 252.121 Angst**2
 A cutoff of  1.0D-14 yielded  26854 shell pairs
 There are    176400 function pairs (    223636 Cartesian)
 Smallest overlap matrix eigenvalue = 3.42E-07
 Linear dependence detected in AO basis
 Tighter screening thresholds may be required for diffuse basis sets
 Use S2THRESH > 14 and THRESH = 14 in case of SCF convergence issues
 Number of orthogonalized atomic orbitals = 643
 Maximum deviation from orthogonality = 1.162E-10

 Scale SEOQF with 1.000000e-01/1.000000e-01/1.000000e-01

 Standard Electronic Orientation quadrupole field applied
 Nucleus-field energy     =     0.0000000545 hartrees

 -----------------------------------------------------------------------
  General SCF calculation program by
  Eric Jon Sundstrom, Paul Horn, Yuezhi Mao, Dmitri Zuev, Alec White,
  David Stuck, Shaama M.S., Shane Yost, Joonho Lee, David Small,
  Daniel Levine, Susi Lehtola, Hugh Burton, Evgeny Epifanovsky
 -----------------------------------------------------------------------
================================================================
                 ALMO-EDA with the EDA2 driver                  
================================================================
 The second-generation ALMO-EDA (for DFT):                      
 P. R. Horn, Y. Mao and M. Head-Gordon, PCCP, 18, 23067 (2016)  
 Decomposition of the frozen energy:                            
 P. R. Horn, Y. Mao and M. Head-Gordon, JCP, 144, 114107 (2016) 
 FERF model for polarization:                                   
 P. R. Horn and M. Head-Gordon, JCP, 143, 114111 (2015)         
Using eda2 option set 1
Option set summary: Frozen orbital wavefunction, initial wavefunction decomposition, and nDQ polarization.
--------------------------------
Printing EDA Options
--------------------------------
eda_child_super_basis      0
fragmo_guess_mode          0
child_mp                   1
child_mp_orders            232
cls_elec                   1
cls_disp                   0
scfmi_mode                 1
scfmi_occs                 0
scfmi_virts                0
frz_relax                  0
frz_relax_method           0
dc_pen_start               0
dc_pen_conv                0
dc_pen_increment           0
dc_pen_steps               0
dc_pen_thresh_factor       0
dc_pen_pre_newton_thresh   0
frz_ortho_decomp           1
frz_ortho_decomp_conv      6
frgm_method                2
scfmi_freeze_ss            0
separate_rehyb             0
plot_diff_den              0
eda_nocv                   0
eda_vct_relax              1
disp_free_x                0
disp_free_c                0
eda_bsse                   0
eda_pct_a                  0
eda_covp                   0
--------------------------------
Attempting to make child job directory: /tmp/qchem59500//Frg1/
Attempting to make child job directory: /tmp/qchem59500//Frg2/
Creating input file /tmp/qchem59500/Frg1.input
using default PutDataFrgm: nothing
calling putenv with: QCSCRATCH=/tmp/qchem59500/ 
calling putenv with: QCLOCALSCR=/tmp/qchem59500/ 
Spawning Job For Fragment 0
                  Welcome to Q-Chem
     A Quantum Leap Into The Future Of Chemistry


 Q-Chem 5.2, Q-Chem, Inc., Pleasanton, CA (2019)

 License issued to: National Energy Research Scientific Computing Center

 Yihan Shao,  Zhengting Gan,  E. Epifanovsky,  A. T. B. Gilbert,  M. Wormit,  
 J. Kussmann,  A. W. Lange,  A. Behn,  Jia Deng,  Xintian Feng,  D. Ghosh,  
 M. Goldey,  P. R. Horn,  L. D. Jacobson,  I. Kaliman,  T. Kus,  A. Landau,  
 Jie Liu,  E. I. Proynov,  R. M. Richard,  R. P. Steele,  E. J. Sundstrom,  
 H. L. Woodcock III,  P. M. Zimmerman,  D. Zuev,  B. Albrecht,  E. Alguire,  
 S. A. Baeppler,  D. Barton,  Z. Benda,  Y. A. Bernard,  E. J. Berquist,  
 K. B. Bravaya,  H. Burton,  D. Casanova,  Chun-Min Chang,  Yunqing Chen,  
 A. Chien,  K. D. Closser,  M. P. Coons,  S. Coriani,  S. Dasgupta,  
 A. L. Dempwolff,  M. Diedenhofen,  Hainam Do,  R. G. Edgar,  Po-Tung Fang,  
 S. Faraji,  S. Fatehi,  Qingguo Feng,  K. D. Fenk,  J. Fosso-Tande,  
 J. Gayvert,  Qinghui Ge,  A. Ghysels,  G. Gidofalvi,  J. Gomes,  
 J. Gonthier,  A. Gunina,  D. Hait,  M. W. D. Hanson-Heine,  
 P. H. P. Harbach,  A. W. Hauser,  M. F. Herbst,  J. E. Herr,  
 E. G. Hohenstein,  Z. C. Holden,  Kerwin Hui,  B. C. Huynh,  T.-C. Jagau,  
 Hyunjun Ji,  B. Kaduk,  K. Khistyaev,  Jaehoon Kim,  P. Klunzinger,  K. Koh,  
 D. Kosenkov,  L. Koulias,  T. Kowalczyk,  C. M. Krauter,  A. Kunitsa,  
 Ka Un Lao,  A. Laurent,  K. V. Lawler,  Joonho Lee,  D. Lefrancois,  
 S. Lehtola,  D. S. Levine,  Yi-Pei Li,  You-Sheng Lin,  Fenglai Liu,  
 E. Livshits,  A. Luenser,  P. Manohar,  E. Mansoor,  S. F. Manzer,  
 Shan-Ping Mao,  Yuezhi Mao,  N. Mardirossian,  A. V. Marenich,  
 T. Markovich,  L. A. Martinez-Martinez,  S. A. Maurer,  N. J. Mayhall,  
 S. C. McKenzie,  J.-M. Mewes,  P. Morgante,  A. F. Morrison,  
 J. W. Mullinax,  K. Nanda,  T. S. Nguyen-Beck,  R. Olivares-Amaya,  
 J. A. Parkhill,  Zheng Pei,  T. M. Perrine,  F. Plasser,  P. Pokhilko,  
 S. Prager,  A. Prociuk,  E. Ramos,  D. R. Rehn,  F. Rob,  M. Scheurer,  
 M. Schneider,  N. Sergueev,  S. M. Sharada,  S. Sharma,  D. W. Small,  
 T. Stauch,  T. Stein,  Yu-Chuan Su,  A. J. W. Thom,  A. Tkatchenko,  
 T. Tsuchimochi,  N. M. Tubman,  L. Vogt,  M. L. Vidal,  O. Vydrov,  
 M. A. Watson,  J. Wenzel,  M. de Wergifosse,  T. A. Wesolowski,  A. White,  
 J. Witte,  A. Yamada,  Jun Yang,  K. Yao,  S. Yeganeh,  S. R. Yost,  
 Zhi-Qiang You,  A. Zech,  Igor Ying Zhang,  Xing Zhang,  Yan Zhao,  
 Ying Zhu,  B. R. Brooks,  G. K. L. Chan,  C. J. Cramer,  M. S. Gordon,  
 W. J. Hehre,  A. Klamt,  M. W. Schmidt,  C. D. Sherrill,  D. G. Truhlar,  
 A. Aspuru-Guzik,  R. Baer,  A. T. Bell,  N. A. Besley,  Jeng-Da Chai,  
 A. E. DePrince, III,  R. A. DiStasio Jr.,  A. Dreuw,  B. D. Dunietz,  
 T. R. Furlani,  Chao-Ping Hsu,  Yousung Jung,  Jing Kong,  D. S. Lambrecht,  
 WanZhen Liang,  C. Ochsenfeld,  V. A. Rassolov,  L. V. Slipchenko,  
 J. E. Subotnik,  T. Van Voorhis,  J. M. Herbert,  A. I. Krylov,  
 P. M. W. Gill,  M. Head-Gordon

 Contributors to earlier versions of Q-Chem not listed above: 
 R. D. Adamson,  B. Austin,  J. Baker,  G. J. O. Beran,  K. Brandhorst,  
 S. T. Brown,  E. F. C. Byrd,  A. K. Chakraborty,  C.-L. Cheng,  
 Siu Hung Chien,  D. M. Chipman,  D. L. Crittenden,  H. Dachsel,  
 R. J. Doerksen,  A. D. Dutoi,  L. Fusti-Molnar,  W. A. Goddard III,  
 A. Golubeva-Zadorozhnaya,  S. R. Gwaltney,  G. Hawkins,  A. Heyden,  
 S. Hirata,  G. Kedziora,  F. J. Keil,  C. Kelley,  Jihan Kim,  R. A. King,  
 R. Z. Khaliullin,  P. P. Korambath,  W. Kurlancheek,  A. M. Lee,  M. S. Lee,  
 S. V. Levchenko,  Ching Yeh Lin,  D. Liotard,  R. C. Lochan,  I. Lotan,  
 P. E. Maslen,  N. Nair,  D. P. O'Neill,  D. Neuhauser,  E. Neuscamman,  
 C. M. Oana,  R. Olson,  B. Peters,  R. Peverati,  P. A. Pieniazek,  
 Y. M. Rhee,  J. Ritchie,  M. A. Rohrdanz,  E. Rosta,  N. J. Russ,  
 H. F. Schaefer III,  N. E. Schultz,  N. Shenvi,  A. C. Simmonett,  A. Sodt,  
 D. Stuck,  K. S. Thanthiriwatte,  V. Vanovschi,  Tao Wang,  A. Warshel,  
 C. F. Williams,  Q. Wu,  X. Xu,  W. Zhang

 Please cite Q-Chem as follows:
 Y. Shao et al., Mol. Phys. 113, 184-215 (2015)
 DOI: 10.1080/00268976.2014.952696

 Q-Chem 5.2.0 for Intel X86 EM64T Linux

 Parts of Q-Chem use Armadillo 8.300.2 (Tropical Shenanigans).
 http://arma.sourceforge.net/

 Q-Chem begins on Sun Sep 26 13:29:48 2021  

Host: cori01
0

     Scratch files written to /tmp/qchem59500//Frg1//
 May1019 |scratch|qcdevops|jenkins|workspace|build_RNUM -1
Processing $rem in /global/common/cori/software/qchem/5.2/config/preferences:
	 MEM_TOTAL  96000 
NAlpha2: 70
NElect   70
Mult     1
Symmetry turned off for PCM/SM12/SMD calculation

Checking the input file for inconsistencies... 	...done.

--------------------------------------------------------------
User input:
--------------------------------------------------------------
$molecule
0 1
 6	-2.2016311810	-4.1075799640	1.0252691415
 6	-1.0166311810	-0.6305799640	0.3862691415
 6	-0.7856311810	-2.0205799640	0.4042691415
 6	-1.9786311810	-2.6425799640	0.8982691415
 6	-2.8656311810	-1.6385799640	1.1452691415
 6	-0.0456311810	0.2704200360	-0.0197308585
 6	1.1743688190	-0.2365799640	-0.4307308585
 6	1.4233688190	-1.6095799640	-0.4267308585
 6	0.4683688190	-2.5015799640	0.0012691415
 7	-2.2916311810	-0.4335799640	0.8432691415
 1	-0.2406311810	1.3314200360	-0.0087308585
 1	1.9563688190	0.4374200360	-0.7517308585
 1	-2.7156311810	0.4834200360	1.0062691415
 1	2.3973688190	-1.9755799640	-0.7157308585
 1	-3.8756311810	-1.7775799640	1.5132691415
 1	0.6823688190	-3.5565799640	0.0572691415
 1	-2.7986311810	-4.3025799640	1.9172691415
 1	-1.2336311810	-4.5815799640	1.1872691415
 1	-2.6660311810	-4.5805919640	0.1474391415
$end
$rem
EDA2		1
METHOD		WB97X-V
BASIS		DEF2-TZVPD
XC_GRID		000099000590
NL_GRID		1
UNRESTRICTED		FALSE
MAX_SCF_CYCLES		200
SYMMETRY		FALSE
SYM_IGNORE		TRUE
BASIS_LIN_DEP_THRESH		6
THRESH		14
SCF_CONVERGENCE		8
SCF_PRINT_FRGM		TRUE
SOLVENT_METHOD		SMD
!required keywords
JOBTYPE		SP
SYM_IGNORE		TRUE
SUBSYSTEM		TRUE
GEN_SCFMAN		TRUE
CHILD_INSTRUCTION		2
SYM_IGNORE		TRUE
SCFMI		0
RI_K 0		
PARI_K 0		
MIN_PARI_K 0		
IARI_K 0		
OCC_RI_K 0		
PURECART		1111
MEM_STATIC		2000
MEM_TOTAL		96000
GUI		0
CHILD_MP		1
CHILD_MP_ORDERS		232
FRZ_RELAX		0
FRZ_RELAX_METHOD		0
EDA_CLS_ELEC		1
EDA_CLS_DISP		0
FRZ_ORTHO_DECOMP		1
EDA2		FALSE
FRGM_METHOD		FALSE
CIS_N_ROOTS  0
LOCAL_CIS    0
CIS_RLX_DNS  1
$end
$smx
SOLVENT			WATER
$end
--------------------------------------------------------------
 ----------------------------------------------------------------
             Standard Nuclear Orientation (Angstroms)
    I     Atom           X                Y                Z
 ----------------------------------------------------------------
    1      C      -2.2016311810    -4.1075799640     1.0252691415
    2      C      -1.0166311810    -0.6305799640     0.3862691415
    3      C      -0.7856311810    -2.0205799640     0.4042691415
    4      C      -1.9786311810    -2.6425799640     0.8982691415
    5      C      -2.8656311810    -1.6385799640     1.1452691415
    6      C      -0.0456311810     0.2704200360    -0.0197308585
    7      C       1.1743688190    -0.2365799640    -0.4307308585
    8      C       1.4233688190    -1.6095799640    -0.4267308585
    9      C       0.4683688190    -2.5015799640     0.0012691415
   10      N      -2.2916311810    -0.4335799640     0.8432691415
   11      H      -0.2406311810     1.3314200360    -0.0087308585
   12      H       1.9563688190     0.4374200360    -0.7517308585
   13      H      -2.7156311810     0.4834200360     1.0062691415
   14      H       2.3973688190    -1.9755799640    -0.7157308585
   15      H      -3.8756311810    -1.7775799640     1.5132691415
   16      H       0.6823688190    -3.5565799640     0.0572691415
   17      H      -2.7986311810    -4.3025799640     1.9172691415
   18      H      -1.2336311810    -4.5815799640     1.1872691415
   19      H      -2.6660311810    -4.5805919640     0.1474391415
 ----------------------------------------------------------------
 Nuclear Repulsion Energy =         486.64437574 hartrees
 There are       35 alpha and       35 beta electrons
 Requested basis set is def2-TZVPD
 There are 175 shells and 451 basis functions

 Total QAlloc Memory Limit  96000 MB
 Mega-Array Size      1956 MB
 MEM_STATIC part      2000 MB
 
 Citation of the SMD model:
 Marenich, A.V.; Cramer, C.J.; Truhlar, D.G.
 J. Phys. Chem. B 2009, 113, 6378-6396.
 iSolventCode=           1
 Solvent: water                                                           
 
 vradii
            1           2           3           4           5           6
    1   1.8500000   1.8500000   1.8500000   1.8500000   1.8500000   1.8500000
            7           8           9          10          11          12
    1   1.8500000   1.8500000   1.8500000   1.8900000   1.2000000   1.2000000
           13          14          15          16          17          18
    1   1.2000000   1.2000000   1.2000000   1.2000000   1.2000000   1.2000000
           19
    1   1.2000000
 Changing PCM_VDW_RADII to SMD_RADIUS
 Discretize the solute cavity surface with Lebedev spheres
	Using 110 Lebedev grid points for each H atom
	Using 194 Lebedev grid points for other atoms
	Atomic van der Waals radii will be scaled by 1.20
 Remove points where switching function is < 1.0e-08
 Keep 1361 surface tesserae and discard 1569 interior tesserae
 Molecular Surface Area = 164.189 Angst**2
 A cutoff of  1.0D-14 yielded  14480 shell pairs
 There are     98310 function pairs (    126491 Cartesian)
 Smallest overlap matrix eigenvalue = 4.88E-07
 Linear dependence detected in AO basis
 Tighter screening thresholds may be required for diffuse basis sets
 Use S2THRESH > 14 and THRESH = 14 in case of SCF convergence issues
 Number of orthogonalized atomic orbitals = 448
 Maximum deviation from orthogonality = 2.088E-10

 Scale SEOQF with 1.000000e-01/1.000000e-01/1.000000e-01

 Standard Electronic Orientation quadrupole field applied
 Nucleus-field energy     =     0.0000000269 hartrees
 Guess from superposition of atomic densities
 Warning:  Energy on first SCF cycle will be non-variational
 SAD guess density has 69.692991 electrons

 -----------------------------------------------------------------------
  General SCF calculation program by
  Eric Jon Sundstrom, Paul Horn, Yuezhi Mao, Dmitri Zuev, Alec White,
  David Stuck, Shaama M.S., Shane Yost, Joonho Lee, David Small,
  Daniel Levine, Susi Lehtola, Hugh Burton, Evgeny Epifanovsky
 -----------------------------------------------------------------------
 Exchange:     0.1670 Hartree-Fock + 1.0000 wB97X-V + LR-HF
 Correlation:  1.0000 wB97X-V
 Using Euler-Maclaurin-Lebedev (99,590) quadrature formula
 Nonlocal Correlation:  VV10 with C = 0.0100 and b = 6.00 and scale = 1.00000
 Grid used for NLC:  SG-1 standard quadrature
Energy prior to optimization (guess energy) = -402.924954425284
Begin Timing: Total SCF Calculation
begin iterations for algorithm: DIIS         
the SCF tolerance is set to 1.00e-08
    1    -402.9249544253      3.30e-03     00000 
    2    -402.9666508061      3.08e-03     00000 
    3    -403.1714141223      3.65e-04     00000 
    4    -403.1751478243      1.52e-04     00000 
    5    -403.1758507419      2.87e-05     00000 
    6    -403.1758915508      1.79e-05     00000 
    7    -403.1759011993      4.04e-06     00000 
    8    -403.1759027064      1.54e-06     00000 
    9    -403.1759029356      8.13e-07     00000 
   10    -403.1759030193      3.10e-07     00000 
   11    -403.1759030329      8.98e-08     00000 
   12    -403.1759030340      4.20e-08     00000 
   13    -403.1759030341      1.33e-08     00000 
   14    -403.1759030341      4.26e-09     00000 Convergence criterion met
Timing for Total SCF: 4083.00s (wall), 8125.46s (cpu)
(3)  G-ENP(liq) elect-nuc-pol free energy of system     -403.175903034 a.u.
(4)  G-CDS(liq) cavity-dispersion-solvent structure 
     free energy                                                3.7944 kcal/mol
(6)  G-S(liq) free energy of system                     -403.169856334 a.u.
E_pcm = -0.0161088661
E_cds = 0.0060466999
Multipole orders to be included
        2
        3
computing dipole RHS
computing quadrupole RHS
total number of RHS in solve_reponses: 8
RHS batch sizes
        8
Beginning Block Conjugate Gradient Iterations. Batch Number: 0
computing hessian-vector products by finite difference
              1      6.56e-01     00000 Conjugate Gradient Iteration
computing hessian-vector products by finite difference
              2      2.11e-01     00000 Conjugate Gradient Iteration
computing hessian-vector products by finite difference
              3      6.69e-02     00000 Conjugate Gradient Iteration
computing hessian-vector products by finite difference
              4      2.52e-02     00000 Conjugate Gradient Iteration
computing hessian-vector products by finite difference
              5      7.90e-03     00000 Conjugate Gradient Iteration
computing hessian-vector products by finite difference
              6      2.19e-03     00000 Conjugate Gradient Iteration
computing hessian-vector products by finite difference
              7      4.97e-04     00000 Conjugate Gradient Iteration
computing hessian-vector products by finite difference
              8      9.64e-05     00000 Conjugate Gradient Iteration
computing hessian-vector products by finite difference
              9      1.81e-05     00000 Conjugate Gradient Iteration
computing hessian-vector products by finite difference
             10      3.29e-06     00000 Conjugate Gradient Iteration
computing hessian-vector products by finite difference
             11      5.94e-07     00000 Conjugate Gradient Iteration
computing hessian-vector products by finite difference
             12      1.03e-07     00000 Conjugate Gradient Iteration
computing hessian-vector products by finite difference
             13      1.60e-08     00000 Conjugate Gradient Iteration
computing hessian-vector products by finite difference
             14      7.24e-09     00000 CG Converged
batch 0 complete
Done Calculating Responses
TESTING ORTHOGONALIZATION OF MULTIPOLE BASIS
Multipole virts passed orthogonality test
Virts Per Order
          105
          175
 
 --------------------------------------------------------------
 
                    Orbital Energies (a.u.)
 --------------------------------------------------------------
 
 Alpha MOs
 -- Occupied --
-14.4434 -10.2954 -10.2894 -10.2667 -10.2643 -10.2630 -10.2607 -10.2577
-10.2551 -10.2526  -1.1127  -0.9790  -0.9274  -0.8675  -0.8575  -0.8120
 -0.7422  -0.7096  -0.6733  -0.6451  -0.5940  -0.5804  -0.5529  -0.5456
 -0.5347  -0.5115  -0.5080  -0.4893  -0.4735  -0.4525  -0.4465  -0.4276
 -0.3757  -0.3156  -0.2879
 -- Virtual --
  0.0570   0.0643   0.0798   0.0825   0.0959   0.1026   0.1039   0.1107
  0.1314   0.1350   0.1399   0.1503   0.1610   0.1699   0.1788   0.1841
  0.1904   0.1978   0.2030   0.2134   0.2188   0.2258   0.2328   0.2500
  0.2517   0.2574   0.2607   0.2657   0.2703   0.2785   0.2810   0.2824
  0.2844   0.2899   0.2948   0.2973   0.3085   0.3107   0.3170   0.3279
  0.3280   0.3332   0.3388   0.3429   0.3451   0.3461   0.3534   0.3567
  0.3624   0.3712   0.3787   0.3814   0.3834   0.3907   0.3953   0.3977
  0.4033   0.4107   0.4160   0.4189   0.4242   0.4260   0.4310   0.4421
  0.4445   0.4513   0.4547   0.4609   0.4618   0.4648   0.4711   0.4736
  0.4864   0.4976   0.5027   0.5034   0.5054   0.5180   0.5234   0.5285
  0.5352   0.5398   0.5461   0.5492   0.5512   0.5567   0.5606   0.5684
  0.5766   0.5817   0.5912   0.5958   0.6049   0.6149   0.6258   0.6290
  0.6348   0.6439   0.6494   0.6538   0.6587   0.6801   0.6835   0.6846
  0.6939   0.6965   0.7006   0.7086   0.7142   0.7230   0.7281   0.7367
  0.7393   0.7499   0.7552   0.7582   0.7640   0.7691   0.7773   0.7808
  0.7843   0.7925   0.7944   0.7999   0.8043   0.8076   0.8156   0.8209
  0.8281   0.8340   0.8379   0.8433   0.8478   0.8540   0.8627   0.8658
  0.8732   0.8805   0.8935   0.8939   0.9062   0.9119   0.9201   0.9348
  0.9477   0.9555   0.9658   0.9854   0.9955   1.0050   1.0118   1.0164
  1.0434   1.0457   1.0551   1.0683   1.0743   1.0844   1.0936   1.1041
  1.1217   1.1302   1.1431   1.1488   1.1725   1.1886   1.2005   1.2256
  1.2393   1.2464   1.2678   1.2761   1.3086   1.3093   1.3457   1.3578
  1.3884   1.4005   1.4032   1.4197   1.4334   1.4559   1.4600   1.4740
  1.5214   1.5573   1.5651   1.5707   1.5834   1.5890   1.6174   1.6194
  1.6508   1.6652   1.7000   1.7092   1.7273   1.7453   1.7511   1.7780
  1.7996   1.8297   1.8484   1.8577   1.8693   1.8756   1.8904   1.8960
  1.9060   1.9258   1.9481   1.9515   1.9612   1.9715   1.9768   1.9878
  2.0004   2.0041   2.0123   2.0285   2.0404   2.0613   2.0699   2.0792
  2.0987   2.1279   2.1465   2.1778   2.1912   2.2035   2.2140   2.2266
  2.2645   2.2913   2.3033   2.3221   2.3259   2.3658   2.3719   2.3837
  2.4156   2.4382   2.4495   2.4629   2.4970   2.5103   2.5204   2.5571
  2.5589   2.5803   2.6034   2.6193   2.6330   2.6545   2.6775   2.6875
  2.7000   2.7259   2.7582   2.7627   2.7753   2.7922   2.8131   2.8203
  2.8246   2.8367   2.8552   2.8746   2.8861   2.8999   2.9046   2.9194
  2.9412   2.9516   2.9670   2.9846   2.9898   3.0179   3.0340   3.0402
  3.0433   3.0701   3.0934   3.0988   3.1073   3.1425   3.1575   3.1701
  3.1775   3.1928   3.2101   3.2291   3.2409   3.2589   3.2696   3.2718
  3.2907   3.3036   3.3174   3.3248   3.3606   3.3696   3.3838   3.3964
  3.4117   3.4223   3.4336   3.4434   3.4480   3.4569   3.4724   3.4837
  3.4990   3.5109   3.5187   3.5274   3.5375   3.5425   3.5641   3.5795
  3.5865   3.5962   3.6168   3.6372   3.6511   3.6621   3.6690   3.6896
  3.7074   3.7255   3.7272   3.7341   3.7607   3.7730   3.7922   3.8030
  3.8181   3.8629   3.8915   3.9362   3.9428   3.9563   3.9959   4.0305
  4.0606   4.0822   4.1140   4.1626   4.1775   4.2066   4.2299   4.2409
  4.2604   4.2749   4.2935   4.3051   4.3279   4.3696   4.3742   4.3794
  4.4235   4.4302   4.4474   4.4753   4.4932   4.5470   4.5727   4.5995
  4.6438   4.6517   4.6783   4.7766   4.7978   4.8299   4.8540   4.9287
  4.9456   4.9725   4.9875   4.9929   5.0279   5.0793   5.0810   5.1179
  5.1525   5.1680   5.2132   5.2322   5.2710   5.4050   5.4215   5.4660
  5.5237   5.5651   5.5972   5.6626   5.7200   5.8103   5.8371   5.9540
  5.9829   6.2727   6.3608  22.6756  22.7571  22.9457  22.9677  23.0021
 23.2313  23.2735  23.4960  23.8267  32.8460
 --------------------------------------------------------------
 
          Ground-State Mulliken Net Atomic Charges

     Atom                 Charge (a.u.)
  ----------------------------------------
      1 C                    -1.027530
      2 C                    -0.188289
      3 C                     0.406311
      4 C                     0.766919
      5 C                    -0.860113
      6 C                    -0.622838
      7 C                    -0.438271
      8 C                    -0.618929
      9 C                    -0.530119
     10 N                     0.123787
     11 H                     0.422100
     12 H                     0.401687
     13 H                     0.233420
     14 H                     0.415131
     15 H                     0.318732
     16 H                     0.383050
     17 H                     0.290469
     18 H                     0.287383
     19 H                     0.237100
  ----------------------------------------
  Sum of atomic charges =     0.000000

 -----------------------------------------------------------------
                    Cartesian Multipole Moments
 -----------------------------------------------------------------
    Charge (ESU x 10^10)
                -0.0000
    Dipole Moment (Debye)
         X      -2.3811      Y       1.5236      Z       0.9784
       Tot       2.9913
    Quadrupole Moments (Debye-Ang)
        XX     -47.3126     XY      -1.2298     YY     -53.9851
        XZ      -6.3619     YZ      -0.3890     ZZ     -62.3633
    Octopole Moments (Debye-Ang^2)
       XXX     109.1768    XXY      90.6752    XYY      43.5269
       YYY     267.8286    XXZ      -7.0614    XYZ       3.4691
       YYZ     -18.6630    XZZ      42.7710    YZZ     100.2252
       ZZZ     -69.7014
    Hexadecapole Moments (Debye-Ang^3)
      XXXX    -967.4063   XXXY    -332.3923   XXYY    -434.4396
      XYYY    -346.8874   YYYY   -1606.1190   XXXZ     127.5750
      XXYZ      45.5710   XYYZ      55.5969   YYYZ     165.9601
      XXZZ    -209.1560   XYZZ    -110.6760   YYZZ    -330.3881
      XZZZ     214.2587   YZZZ     179.9830   ZZZZ    -267.6563
 -----------------------------------------------------------------
Archival summary:
1\1\nid00537\SP\ProcedureUnspecified\BasisUnspecified\199\meili\MonSep2709:31:422021MonSep2709:31:422021\0\\#,ProcedureUnspecified,BasisUnspecified,\\0,1\C\C,1,1.40224\H,2,1.07794,1,119.89\C,2,1.37509,1,119.21,3,-178.209,0\H,4,1.07989,2,119.33,1,178.588,0\C,4,1.3954,2,121.013,1,1.74821,0\H,6,1.08113,4,119.025,2,178.564,0\C,6,1.38361,4,121.134,2,-0.776913,0\H,8,1.07883,6,121.519,4,179.232,0\C,8,1.38545,6,117.822,4,-0.500609,0\N,10,1.36868,8,131.081,6,179.617,0\H,11,1.02334,10,124.62,8,-3.70108,0\C,11,1.36847,10,109.736,8,-178.961,0\H,13,1.0839,11,125.359,10,-179.031,0\C,13,1.36228,11,109.624,10,0.268247,0\C,15,1.48731,13,127.795,11,-176.951,0\H,16,1.08993,15,107.933,13,-155.322,0\H,16,1.09092,15,109.144,13,-39.7662,0\H,16,1.1,15,114.754,13,84.4113,0\\\@

 Total job time:  72114.92s(wall), 143327.56s(cpu) 
 Mon Sep 27 09:31:43 2021

        *************************************************************
        *                                                           *
        *  Thank you very much for using Q-Chem.  Have a nice day.  *
        *                                                           *
        *************************************************************


Done Job For Fragment 0
calling putenv with: QCSCRATCH=/global/cscratch1/sd/meili 
calling putenv with: QCLOCALSCR=/tmp 
calling putenv with: QCTHREADS=32 
Creating input file /tmp/qchem59500/Frg2.input
using default PutDataFrgm: nothing
calling putenv with: QCSCRATCH=/tmp/qchem59500/ 
calling putenv with: QCLOCALSCR=/tmp/qchem59500/ 
Spawning Job For Fragment 1
                  Welcome to Q-Chem
     A Quantum Leap Into The Future Of Chemistry


 Q-Chem 5.2, Q-Chem, Inc., Pleasanton, CA (2019)

 License issued to: National Energy Research Scientific Computing Center

 Yihan Shao,  Zhengting Gan,  E. Epifanovsky,  A. T. B. Gilbert,  M. Wormit,  
 J. Kussmann,  A. W. Lange,  A. Behn,  Jia Deng,  Xintian Feng,  D. Ghosh,  
 M. Goldey,  P. R. Horn,  L. D. Jacobson,  I. Kaliman,  T. Kus,  A. Landau,  
 Jie Liu,  E. I. Proynov,  R. M. Richard,  R. P. Steele,  E. J. Sundstrom,  
 H. L. Woodcock III,  P. M. Zimmerman,  D. Zuev,  B. Albrecht,  E. Alguire,  
 S. A. Baeppler,  D. Barton,  Z. Benda,  Y. A. Bernard,  E. J. Berquist,  
 K. B. Bravaya,  H. Burton,  D. Casanova,  Chun-Min Chang,  Yunqing Chen,  
 A. Chien,  K. D. Closser,  M. P. Coons,  S. Coriani,  S. Dasgupta,  
 A. L. Dempwolff,  M. Diedenhofen,  Hainam Do,  R. G. Edgar,  Po-Tung Fang,  
 S. Faraji,  S. Fatehi,  Qingguo Feng,  K. D. Fenk,  J. Fosso-Tande,  
 J. Gayvert,  Qinghui Ge,  A. Ghysels,  G. Gidofalvi,  J. Gomes,  
 J. Gonthier,  A. Gunina,  D. Hait,  M. W. D. Hanson-Heine,  
 P. H. P. Harbach,  A. W. Hauser,  M. F. Herbst,  J. E. Herr,  
 E. G. Hohenstein,  Z. C. Holden,  Kerwin Hui,  B. C. Huynh,  T.-C. Jagau,  
 Hyunjun Ji,  B. Kaduk,  K. Khistyaev,  Jaehoon Kim,  P. Klunzinger,  K. Koh,  
 D. Kosenkov,  L. Koulias,  T. Kowalczyk,  C. M. Krauter,  A. Kunitsa,  
 Ka Un Lao,  A. Laurent,  K. V. Lawler,  Joonho Lee,  D. Lefrancois,  
 S. Lehtola,  D. S. Levine,  Yi-Pei Li,  You-Sheng Lin,  Fenglai Liu,  
 E. Livshits,  A. Luenser,  P. Manohar,  E. Mansoor,  S. F. Manzer,  
 Shan-Ping Mao,  Yuezhi Mao,  N. Mardirossian,  A. V. Marenich,  
 T. Markovich,  L. A. Martinez-Martinez,  S. A. Maurer,  N. J. Mayhall,  
 S. C. McKenzie,  J.-M. Mewes,  P. Morgante,  A. F. Morrison,  
 J. W. Mullinax,  K. Nanda,  T. S. Nguyen-Beck,  R. Olivares-Amaya,  
 J. A. Parkhill,  Zheng Pei,  T. M. Perrine,  F. Plasser,  P. Pokhilko,  
 S. Prager,  A. Prociuk,  E. Ramos,  D. R. Rehn,  F. Rob,  M. Scheurer,  
 M. Schneider,  N. Sergueev,  S. M. Sharada,  S. Sharma,  D. W. Small,  
 T. Stauch,  T. Stein,  Yu-Chuan Su,  A. J. W. Thom,  A. Tkatchenko,  
 T. Tsuchimochi,  N. M. Tubman,  L. Vogt,  M. L. Vidal,  O. Vydrov,  
 M. A. Watson,  J. Wenzel,  M. de Wergifosse,  T. A. Wesolowski,  A. White,  
 J. Witte,  A. Yamada,  Jun Yang,  K. Yao,  S. Yeganeh,  S. R. Yost,  
 Zhi-Qiang You,  A. Zech,  Igor Ying Zhang,  Xing Zhang,  Yan Zhao,  
 Ying Zhu,  B. R. Brooks,  G. K. L. Chan,  C. J. Cramer,  M. S. Gordon,  
 W. J. Hehre,  A. Klamt,  M. W. Schmidt,  C. D. Sherrill,  D. G. Truhlar,  
 A. Aspuru-Guzik,  R. Baer,  A. T. Bell,  N. A. Besley,  Jeng-Da Chai,  
 A. E. DePrince, III,  R. A. DiStasio Jr.,  A. Dreuw,  B. D. Dunietz,  
 T. R. Furlani,  Chao-Ping Hsu,  Yousung Jung,  Jing Kong,  D. S. Lambrecht,  
 WanZhen Liang,  C. Ochsenfeld,  V. A. Rassolov,  L. V. Slipchenko,  
 J. E. Subotnik,  T. Van Voorhis,  J. M. Herbert,  A. I. Krylov,  
 P. M. W. Gill,  M. Head-Gordon

 Contributors to earlier versions of Q-Chem not listed above: 
 R. D. Adamson,  B. Austin,  J. Baker,  G. J. O. Beran,  K. Brandhorst,  
 S. T. Brown,  E. F. C. Byrd,  A. K. Chakraborty,  C.-L. Cheng,  
 Siu Hung Chien,  D. M. Chipman,  D. L. Crittenden,  H. Dachsel,  
 R. J. Doerksen,  A. D. Dutoi,  L. Fusti-Molnar,  W. A. Goddard III,  
 A. Golubeva-Zadorozhnaya,  S. R. Gwaltney,  G. Hawkins,  A. Heyden,  
 S. Hirata,  G. Kedziora,  F. J. Keil,  C. Kelley,  Jihan Kim,  R. A. King,  
 R. Z. Khaliullin,  P. P. Korambath,  W. Kurlancheek,  A. M. Lee,  M. S. Lee,  
 S. V. Levchenko,  Ching Yeh Lin,  D. Liotard,  R. C. Lochan,  I. Lotan,  
 P. E. Maslen,  N. Nair,  D. P. O'Neill,  D. Neuhauser,  E. Neuscamman,  
 C. M. Oana,  R. Olson,  B. Peters,  R. Peverati,  P. A. Pieniazek,  
 Y. M. Rhee,  J. Ritchie,  M. A. Rohrdanz,  E. Rosta,  N. J. Russ,  
 H. F. Schaefer III,  N. E. Schultz,  N. Shenvi,  A. C. Simmonett,  A. Sodt,  
 D. Stuck,  K. S. Thanthiriwatte,  V. Vanovschi,  Tao Wang,  A. Warshel,  
 C. F. Williams,  Q. Wu,  X. Xu,  W. Zhang

 Please cite Q-Chem as follows:
 Y. Shao et al., Mol. Phys. 113, 184-215 (2015)
 DOI: 10.1080/00268976.2014.952696

 Q-Chem 5.2.0 for Intel X86 EM64T Linux

 Parts of Q-Chem use Armadillo 8.300.2 (Tropical Shenanigans).
 http://arma.sourceforge.net/

 Q-Chem begins on Mon Sep 27 09:31:45 2021  

Host: cori01
0

     Scratch files written to /tmp/qchem59500//Frg2//
 May1019 |scratch|qcdevops|jenkins|workspace|build_RNUM -1
Processing $rem in /global/common/cori/software/qchem/5.2/config/preferences:
	 MEM_TOTAL  96000 
NAlpha2: 32
NElect   32
Mult     1
Symmetry turned off for PCM/SM12/SMD calculation

Checking the input file for inconsistencies... 	...done.

--------------------------------------------------------------
User input:
--------------------------------------------------------------
$molecule
0 1
 6	1.0533688190	3.8264200360	-2.0227308585
 6	1.9393688190	3.4474200360	-0.8627308585
 8	2.9803688190	2.7624200360	-1.0147308585
 7	1.5503688190	3.9114200360	0.3062691415
 1	0.0623688190	3.4164200360	-1.8287308585
 1	1.4353688190	3.3594200360	-2.9297308585
 1	2.1033688190	3.6684200360	1.1152691415
 1	0.6703688190	4.3894200360	0.4222691415
 1	0.9765288190	4.9143900360	-2.1656408585
$end
$rem
EDA2		1
METHOD		WB97X-V
BASIS		DEF2-TZVPD
XC_GRID		000099000590
NL_GRID		1
UNRESTRICTED		FALSE
MAX_SCF_CYCLES		200
SYMMETRY		FALSE
SYM_IGNORE		TRUE
BASIS_LIN_DEP_THRESH		6
THRESH		14
SCF_CONVERGENCE		8
SCF_PRINT_FRGM		TRUE
SOLVENT_METHOD		SMD
!required keywords
JOBTYPE		SP
SYM_IGNORE		TRUE
SUBSYSTEM		TRUE
GEN_SCFMAN		TRUE
CHILD_INSTRUCTION		2
SYM_IGNORE		TRUE
SCFMI		0
RI_K 0		
PARI_K 0		
MIN_PARI_K 0		
IARI_K 0		
OCC_RI_K 0		
PURECART		1111
MEM_STATIC		2000
MEM_TOTAL		96000
GUI		0
CHILD_MP		1
CHILD_MP_ORDERS		232
FRZ_RELAX		0
FRZ_RELAX_METHOD		0
EDA_CLS_ELEC		1
EDA_CLS_DISP		0
FRZ_ORTHO_DECOMP		1
EDA2		FALSE
FRGM_METHOD		FALSE
CIS_N_ROOTS  0
LOCAL_CIS    0
CIS_RLX_DNS  1
$end
$smx
SOLVENT			WATER
$end
--------------------------------------------------------------
 ----------------------------------------------------------------
             Standard Nuclear Orientation (Angstroms)
    I     Atom           X                Y                Z
 ----------------------------------------------------------------
    1      C       1.0533688190     3.8264200360    -2.0227308585
    2      C       1.9393688190     3.4474200360    -0.8627308585
    3      O       2.9803688190     2.7624200360    -1.0147308585
    4      N       1.5503688190     3.9114200360     0.3062691415
    5      H       0.0623688190     3.4164200360    -1.8287308585
    6      H       1.4353688190     3.3594200360    -2.9297308585
    7      H       2.1033688190     3.6684200360     1.1152691415
    8      H       0.6703688190     4.3894200360     0.4222691415
    9      H       0.9765288190     4.9143900360    -2.1656408585
 ----------------------------------------------------------------
 Nuclear Repulsion Energy =         122.01692495 hartrees
 There are       16 alpha and       16 beta electrons
 Requested basis set is def2-TZVPD
 There are 78 shells and 196 basis functions

 Total QAlloc Memory Limit  96000 MB
 Mega-Array Size      1956 MB
 MEM_STATIC part      2000 MB
 
 Citation of the SMD model:
 Marenich, A.V.; Cramer, C.J.; Truhlar, D.G.
 J. Phys. Chem. B 2009, 113, 6378-6396.
 iSolventCode=           1
 Solvent: water                                                           
 
 vradii
            1           2           3           4           5           6
    1   1.8500000   1.8500000   1.5200000   1.8900000   1.2000000   1.2000000
            7           8           9
    1   1.2000000   1.2000000   1.2000000
 Changing PCM_VDW_RADII to SMD_RADIUS
 Discretize the solute cavity surface with Lebedev spheres
	Using 110 Lebedev grid points for each H atom
	Using 194 Lebedev grid points for other atoms
	Atomic van der Waals radii will be scaled by 1.20
 Remove points where switching function is < 1.0e-08
 Keep 724 surface tesserae and discard 602 interior tesserae
 Molecular Surface Area = 89.823 Angst**2

                       Distance Matrix (Angstroms)
             C (  1)   C (  2)   O (  3)   N (  4)   H (  5)   H (  6)
   C (  2)  1.508057
   O (  3)  2.421051  1.255392
   N (  4)  2.382955  1.316502  2.260562
   H (  5)  1.089870  2.111219  3.099199  2.649036
   H (  6)  1.089340  2.129378  2.531928  3.284756  1.760846
   H (  7)  3.312779  1.997053  2.475250  1.009623  3.591145  4.111415
   H (  8)  2.538047  2.036897  3.169889  1.008137  2.526538  3.589154
   H (  9)  1.100003  2.185552  3.157680  2.728659  1.786928  1.792289
             H (  7)   H (  8)
   H (  8)  1.747449
   H (  9)  3.685998  2.658309
 
 A cutoff of  1.0D-14 yielded   3054 shell pairs
 There are     19544 function pairs (     24702 Cartesian)
 Smallest overlap matrix eigenvalue = 9.63E-06

 Scale SEOQF with 1.000000e-01/1.000000e-01/1.000000e-01

 Standard Electronic Orientation quadrupole field applied
 Nucleus-field energy     =     0.0000000275 hartrees
 Guess from superposition of atomic densities
 Warning:  Energy on first SCF cycle will be non-variational
 SAD guess density has 31.604610 electrons

 -----------------------------------------------------------------------
  General SCF calculation program by
  Eric Jon Sundstrom, Paul Horn, Yuezhi Mao, Dmitri Zuev, Alec White,
  David Stuck, Shaama M.S., Shane Yost, Joonho Lee, David Small,
  Daniel Levine, Susi Lehtola, Hugh Burton, Evgeny Epifanovsky
 -----------------------------------------------------------------------
 Exchange:     0.1670 Hartree-Fock + 1.0000 wB97X-V + LR-HF
 Correlation:  1.0000 wB97X-V
 Using Euler-Maclaurin-Lebedev (99,590) quadrature formula
 Nonlocal Correlation:  VV10 with C = 0.0100 and b = 6.00 and scale = 1.00000
 Grid used for NLC:  SG-1 standard quadrature
Energy prior to optimization (guess energy) = -208.696187566358
Begin Timing: Total SCF Calculation
begin iterations for algorithm: DIIS         
the SCF tolerance is set to 1.00e-08
    1    -208.6961875664      1.26e-02     00000 
    2    -208.2489576990      1.58e-02     00000 
    3    -209.2325186060      2.54e-03     00000 
    4    -209.2541845613      8.04e-04     00000 
    5    -209.2575942803      2.12e-04     00000 
    6    -209.2579069734      7.03e-05     00000 
    7    -209.2579541134      2.25e-05     00000 
    8    -209.2579603741      6.72e-06     00000 
    9    -209.2579613531      2.31e-06     00000 
   10    -209.2579614156      4.35e-07     00000 
   11    -209.2579614173      1.67e-07     00000 
   12    -209.2579614176      2.21e-08     00000 
   13    -209.2579614176      5.11e-09     00000 Convergence criterion met
Timing for Total SCF: 324.00s (wall), 641.45s (cpu)
(3)  G-ENP(liq) elect-nuc-pol free energy of system     -209.257961418 a.u.
(4)  G-CDS(liq) cavity-dispersion-solvent structure 
     free energy                                                3.4388 kcal/mol
(6)  G-S(liq) free energy of system                     -209.252481279 a.u.
E_pcm = -0.0316506568
E_cds = 0.0054801390
Multipole orders to be included
        2
        3
computing dipole RHS
computing quadrupole RHS
total number of RHS in solve_reponses: 8
RHS batch sizes
        8
Beginning Block Conjugate Gradient Iterations. Batch Number: 0
computing hessian-vector products by finite difference
              1      6.32e-01     00000 Conjugate Gradient Iteration
computing hessian-vector products by finite difference
              2      1.94e-01     00000 Conjugate Gradient Iteration
computing hessian-vector products by finite difference
              3      5.00e-02     00000 Conjugate Gradient Iteration
computing hessian-vector products by finite difference
              4      1.25e-02     00000 Conjugate Gradient Iteration
computing hessian-vector products by finite difference
              5      1.84e-03     00000 Conjugate Gradient Iteration
computing hessian-vector products by finite difference
              6      4.28e-04     00000 Conjugate Gradient Iteration
computing hessian-vector products by finite difference
              7      6.03e-05     00000 Conjugate Gradient Iteration
computing hessian-vector products by finite difference
              8      6.73e-06     00000 Conjugate Gradient Iteration
computing hessian-vector products by finite difference
              9      9.26e-07     00000 Conjugate Gradient Iteration
computing hessian-vector products by finite difference
             10      9.85e-08     00000 Conjugate Gradient Iteration
computing hessian-vector products by finite difference
             11      1.12e-08     00000 Conjugate Gradient Iteration
computing hessian-vector products by finite difference
             12      2.28e-09     00000 CG Converged
batch 0 complete
Done Calculating Responses
TESTING ORTHOGONALIZATION OF MULTIPOLE BASIS
Multipole virts passed orthogonality test
Virts Per Order
        48
        80
 
 --------------------------------------------------------------
 
                    Orbital Energies (a.u.)
 --------------------------------------------------------------
 
 Alpha MOs
 -- Occupied --
-19.1851 -14.4291 -10.3805 -10.2621  -1.1660  -1.0453  -0.8648  -0.7118
 -0.6535  -0.5901  -0.5640  -0.5171  -0.4969  -0.4760  -0.3845  -0.3763
 -- Virtual --
  0.0638   0.0936   0.0958   0.1034   0.1274   0.1341   0.1397   0.1481
  0.1725   0.1925   0.2098   0.2103   0.2333   0.2447   0.2456   0.2567
  0.2590   0.2830   0.3133   0.3167   0.3297   0.3362   0.3456   0.3548
  0.3602   0.3777   0.3830   0.3868   0.3940   0.4034   0.4179   0.4258
  0.4275   0.4573   0.4582   0.4758   0.4836   0.4898   0.4930   0.4963
  0.5296   0.5360   0.5419   0.5693   0.5709   0.5848   0.6338   0.6396
  0.6514   0.6557   0.6640   0.6781   0.7041   0.7122   0.7252   0.7583
  0.7789   0.7873   0.8024   0.8087   0.8172   0.8400   0.8544   0.8770
  0.9230   0.9618   0.9732   0.9973   1.0119   1.0344   1.0670   1.1090
  1.1300   1.1737   1.2247   1.2570   1.2945   1.3047   1.3251   1.4038
  1.4787   1.5049   1.5122   1.6060   1.6766   1.7265   1.7558   1.8018
  1.8350   1.8715   1.8838   1.9237   1.9259   1.9341   2.0070   2.0275
  2.0612   2.0980   2.1481   2.1956   2.2566   2.2912   2.3001   2.3134
  2.3627   2.4074   2.4329   2.4945   2.5196   2.5873   2.6210   2.6315
  2.6952   2.7327   2.7436   2.8106   2.8757   2.9282   2.9447   2.9831
  3.0407   3.1129   3.1401   3.1587   3.2008   3.2330   3.2592   3.2805
  3.3181   3.3202   3.3540   3.4180   3.4728   3.5127   3.5472   3.5739
  3.6055   3.6498   3.7341   3.7721   3.8673   3.9247   4.0198   4.0486
  4.0932   4.1835   4.3083   4.3942   4.5520   4.5995   4.6263   4.6497
  4.8258   4.8910   4.9103   4.9281   5.1559   5.1814   5.2689   5.3518
  5.3658   5.3994   5.4057   5.4880   5.5416   5.7329   5.8818   6.1399
  6.2054   6.4810   6.6217   6.7005   6.7862   6.9592   7.2124   7.2994
 22.6226  23.5355  32.4223  44.2792
 --------------------------------------------------------------
 
          Ground-State Mulliken Net Atomic Charges

     Atom                 Charge (a.u.)
  ----------------------------------------
      1 C                    -0.654359
      2 C                     0.464946
      3 O                    -0.720019
      4 N                    -0.296037
      5 H                     0.236232
      6 H                     0.220703
      7 H                     0.259896
      8 H                     0.239102
      9 H                     0.249536
  ----------------------------------------
  Sum of atomic charges =     0.000000

 -----------------------------------------------------------------
                    Cartesian Multipole Moments
 -----------------------------------------------------------------
    Charge (ESU x 10^10)
                 0.0000
    Dipole Moment (Debye)
         X      -4.9946      Y       3.2470      Z       2.0471
       Tot       6.2991
    Quadrupole Moments (Debye-Ang)
        XX     -45.2916     XY     -10.1420     YY      -3.2849
        XZ       8.6156     YZ       4.7407     ZZ     -22.4850
    Octopole Moments (Debye-Ang^2)
       XXX    -207.6641    XXY    -137.3292    XYY     -61.6611
       YYY    -151.7595    XXZ      52.8438    XYZ      22.1997
       YYZ      32.3828    XZZ     -46.3870    YZZ     -74.9877
       ZZZ      69.3080
    Hexadecapole Moments (Debye-Ang^3)
      XXXX    -852.1534   XXXY    -635.8248   XXYY    -540.5448
      XYYY    -460.0780   YYYY   -1391.7060   XXXZ     210.1085
      XXYZ     161.1420   XYYZ      92.9193   YYYZ     246.1517
      XXZZ    -167.2297   XYZZ    -144.6511   YYZZ    -308.5436
      XZZZ     122.5182   YZZZ     237.3695   ZZZZ    -275.4390
 -----------------------------------------------------------------
Archival summary:
1\1\nid00537\SP\ProcedureUnspecified\BasisUnspecified\1125\meili\MonSep2711:04:092021MonSep2711:04:092021\0\\#,ProcedureUnspecified,BasisUnspecified,\\0,1\C\O,1,1.25539\N,1,1.3165,2,123.014\H,3,1.00814,1,121.817,2,-174.475,0\H,3,1.00962,1,117.7,2,-2.43902,0\C,1,1.50806,2,122.085,3,178.608,0\H,6,1.08934,1,109.068,2,3.77249,0\H,6,1.08987,1,107.623,2,120.47,0\H,6,1.1,1,112.926,2,-118.719,0\\\@

 Total job time:  5544.74s(wall), 10962.71s(cpu) 
 Mon Sep 27 11:04:10 2021

        *************************************************************
        *                                                           *
        *  Thank you very much for using Q-Chem.  Have a nice day.  *
        *                                                           *
        *************************************************************


Done Job For Fragment 1
calling putenv with: QCSCRATCH=/global/cscratch1/sd/meili 
calling putenv with: QCLOCALSCR=/tmp 
calling putenv with: QCTHREADS=32 
Doing General SCFMI
 Exchange:     0.1670 Hartree-Fock + 1.0000 wB97X-V + LR-HF
 Correlation:  1.0000 wB97X-V
 Using Euler-Maclaurin-Lebedev (99,590) quadrature formula
 Nonlocal Correlation:  VV10 with C = 0.0100 and b = 6.00 and scale = 1.00000
 Grid used for NLC:  SG-1 standard quadrature
performing fock build before subrot guess so that all methods have access
Printing subrot_rss_gen Method Specification:
Occupied Subspace Method is 0
Virtual Subspace Method is 0
Energy of the unrelaxed supersystem initial determinant -612.387095125139
performing fock build before subrot guess so that all methods have access
Printing subrot_rss_gen Method Specification:
Occupied Subspace Method is 0
Virtual Subspace Method is 0
Energy of the unrelaxed supersystem initial determinant w/ solvent -612.435374756111
write pseudocanon occs and virts to disk
write pseudocanon orbital energies to disk
Tolerance of ortho_decomp_scf: 1.00e-06
GDM subspace size: 20
Beginning the Orthogonal Decomposition of the Initial Supersystem Wavefunction
    1    -612.3737978251      2.31e-02     ortho_decomp Preconditoned Steepest Descent
    2    -612.3755801852      6.43e-04     ortho_decomp BFGS Step
    3    -612.3755876035      4.92e-05     ortho_decomp BFGS Step
    4    -612.3755876136      1.88e-06     ortho_decomp BFGS Step
    5    -612.3755876136      6.34e-08     ortho_decomp 00000 Convergence criterion met
 Hartree-Fock
 Hartree-Fock
 Hartree-Fock
Doing General SCFMI
 Exchange:     0.1670 Hartree-Fock + 1.0000 wB97X-V + LR-HF
 Correlation:  1.0000 wB97X-V
 Using Euler-Maclaurin-Lebedev (99,590) quadrature formula
 Nonlocal Correlation:  VV10 with C = 0.0100 and b = 6.00 and scale = 1.00000
 Grid used for NLC:  SG-1 standard quadrature
performing fock build at end of subrot_r(subrot) constructor so that all methods have access
<S^2> of initial wavefunction before polarization iterations 0.0000000000
Beginning iterations for the determination of the polarized wavefunction
Energy prior to optimization (guess energy) = -612.435374756112
Begin Timing: Total SCF Calculation
begin iterations for algorithm: DIIS         
the SCF tolerance is set to 1.00e-08
    1    -612.4353747561      2.76e-05     00000 
    2    -612.4354539669      1.60e-05     00000 
    3    -612.4354659813      8.51e-06     00000 
    4    -612.4354704361      2.69e-06     00000 
    5    -612.4354709688      9.62e-07     00000 
    6    -612.4354710801      3.45e-07     00000 
    7    -612.4354710899      1.27e-07     00000 
    8    -612.4354710913      4.00e-08     00000 
    9    -612.4354710914      1.74e-08     00000 
   10    -612.4354710915      6.97e-09     00000 Convergence criterion met
write pseudocanon occs and virts to disk
write pseudocanon orbital energies to disk
Timing for Total SCF: 6957.00s (wall), 13861.42s (cpu)
<S^2> of polarized wavefunction after polarization iterations 0.0000000000
relaxing scfmi constraint to allow all rotations in the entire AO span
Doing General SCFMI
 Exchange:     0.1670 Hartree-Fock + 1.0000 wB97X-V + LR-HF
 Correlation:  1.0000 wB97X-V
 Using Euler-Maclaurin-Lebedev (99,590) quadrature formula
 Nonlocal Correlation:  VV10 with C = 0.0100 and b = 6.00 and scale = 1.00000
 Grid used for NLC:  SG-1 standard quadrature
performing fock build at end of subrot_r(subrot) constructor so that all methods have access
<S^2> of polarized wavefunction before ct-allowed iterations 0.0000000000
Beginning iterations for the determination of the CT-Allowed wavefunction
Energy prior to optimization (guess energy) = -612.435471091453
Begin Timing: Total SCF Calculation
begin iterations for algorithm: DIIS         
the SCF tolerance is set to 1.00e-08
    1    -612.4354710915      5.45e-05     00000 
    2    -612.4360232858      5.57e-06     00000 
    3    -612.4360391595      1.27e-06     00000 
    4    -612.4360395737      1.25e-06     00000 
    5    -612.4360397965      1.42e-07     00000 
    6    -612.4360398030      7.84e-08     00000 
    7    -612.4360398045      1.40e-08     00000 
    8    -612.4360398045      5.92e-09     00000 Convergence criterion met
write pseudocanon occs and virts to disk
write pseudocanon orbital energies to disk
Timing for Total SCF: 5457.00s (wall), 10871.94s (cpu)
<S^2> of ct_allowed wavefunction after ct-allowed iterations 0.0000000000

================================
        Results of EDA2         
================================
Basic EDA Quantities
--------------------
Fragment Energies (Ha):
1 -403.1698563343
2 -209.2524812786
--------------------
  E_prp (kJ/mol) = 0.0000
  E_sol (kJ/mol) = -3.3278
  E_frz (kJ/mol) = -2.5998
  E_pol (kJ/mol) = -0.2529
  E_vct (kJ/mol) = -1.4932
  E_int (kJ/mol) = -7.6737
--------------------


Initial Wavefunction Decomposition
--------------------
  --------------------
  Orthogonal Fragment Subspace Decomposition:
  --------------------
     E_elec   (ELEC)   (kJ/mol) = -12.7164
     E_pauli  (PAULI)  (kJ/mol) = 21.3064
     E_disp   (DISP)   (kJ/mol) = -11.1898
     --------------------
     Terms summing to E_pauli:
     --------------------
        E_kep_pauli       (kJ/mol) = 27.6135
        E_disp_free_pauli (kJ/mol) = -6.3071
  --------------------
  Classical Frozen Decomposition:
  --------------------
     E_cls_elec  (CLS ELEC)  (kJ/mol) = -2.1158
     E_cls_pauli (CLS PAULI) (kJ/mol) = -0.4840
    [E_mod_pauli (MOD PAULI) (kJ/mol) = 10.7058 (CLS PAULI - DISP from orthogonal decomposition) ]
  --------------------
--------------------

Simplified EDA Summary (kJ/mol)
--------------------
 PREPARATION     0.0000
 SOLVATION       -3.3278
 FROZEN          8.5900      (does not include dispersion)
[PAULI           21.3064]     (if this is negligible, then frozen describes electrostatics)
 DISPERSION      -11.1898
 POLARIZATION    -0.2529
 CHARGE TRANSFER -1.4932
 TOTAL           -7.6737     (PRP + SOL + FRZ + DISP + POL + CT)
--------------------
 
 --------------------------------------------------------------
 
                    Orbital Energies (a.u.)
 --------------------------------------------------------------
 
 Alpha MOs
 -- Occupied --
-19.1851 -14.4434 -14.4292 -10.3804 -10.2952 -10.2893 -10.2664 -10.2641
-10.2622 -10.2617 -10.2605 -10.2572 -10.2550 -10.2526  -1.1660  -1.1126
 -1.0453  -0.9786  -0.9273  -0.8673  -0.8648  -0.8572  -0.8119  -0.7419
 -0.7119  -0.7093  -0.6733  -0.6535  -0.6451  -0.5943  -0.5900  -0.5808
 -0.5650  -0.5528  -0.5438  -0.5345  -0.5173  -0.5113  -0.5079  -0.4970
 -0.4896  -0.4788  -0.4696  -0.4522  -0.4462  -0.4278  -0.3835  -0.3768
 -0.3749  -0.3154  -0.2877
 -- Virtual --
  0.0567   0.0594   0.0707   0.0790   0.0849   0.0908   0.0949   0.0997
  0.1022   0.1069   0.1192   0.1257   0.1287   0.1342   0.1372   0.1422
  0.1519   0.1569   0.1607   0.1663   0.1678   0.1727   0.1879   0.1891
  0.1914   0.1964   0.2029   0.2105   0.2129   0.2161   0.2178   0.2233
  0.2306   0.2355   0.2423   0.2479   0.2499   0.2552   0.2613   0.2654
  0.2666   0.2705   0.2749   0.2773   0.2779   0.2830   0.2903   0.2950
  0.3005   0.3027   0.3078   0.3118   0.3148   0.3183   0.3237   0.3260
  0.3272   0.3300   0.3337   0.3368   0.3385   0.3402   0.3448   0.3484
  0.3492   0.3536   0.3585   0.3641   0.3666   0.3669   0.3715   0.3746
  0.3767   0.3821   0.3857   0.3908   0.3985   0.3999   0.4008   0.4037
  0.4055   0.4120   0.4163   0.4175   0.4221   0.4273   0.4286   0.4328
  0.4368   0.4397   0.4452   0.4471   0.4531   0.4566   0.4573   0.4615
  0.4687   0.4717   0.4723   0.4749   0.4786   0.4852   0.4889   0.4919
  0.4966   0.4986   0.5031   0.5075   0.5117   0.5179   0.5189   0.5216
  0.5272   0.5301   0.5336   0.5394   0.5419   0.5437   0.5496   0.5563
  0.5605   0.5639   0.5670   0.5737   0.5769   0.5790   0.5834   0.5908
  0.5963   0.5974   0.6025   0.6109   0.6177   0.6269   0.6295   0.6346
  0.6414   0.6427   0.6445   0.6487   0.6557   0.6594   0.6597   0.6675
  0.6717   0.6846   0.6888   0.6954   0.6976   0.7024   0.7052   0.7096
  0.7159   0.7185   0.7240   0.7296   0.7329   0.7374   0.7454   0.7467
  0.7504   0.7567   0.7630   0.7640   0.7665   0.7740   0.7767   0.7823
  0.7871   0.7908   0.7924   0.7952   0.7982   0.7994   0.8034   0.8082
  0.8132   0.8197   0.8232   0.8315   0.8320   0.8353   0.8391   0.8440
  0.8480   0.8528   0.8582   0.8621   0.8657   0.8704   0.8770   0.8800
  0.8890   0.8913   0.8960   0.9018   0.9101   0.9122   0.9176   0.9261
  0.9343   0.9372   0.9425   0.9458   0.9502   0.9674   0.9756   0.9807
  0.9900   0.9933   0.9996   1.0081   1.0165   1.0245   1.0289   1.0437
  1.0549   1.0610   1.0676   1.0752   1.0796   1.0900   1.0903   1.0954
  1.1047   1.1083   1.1231   1.1343   1.1366   1.1396   1.1481   1.1549
  1.1556   1.1801   1.1820   1.1906   1.1972   1.2064   1.2259   1.2404
  1.2435   1.2606   1.2668   1.2718   1.2834   1.2929   1.3146   1.3167
  1.3300   1.3422   1.3485   1.3561   1.3648   1.3935   1.4037   1.4110
  1.4178   1.4313   1.4398   1.4572   1.4672   1.4800   1.4956   1.5253
  1.5423   1.5505   1.5649   1.5714   1.5815   1.5911   1.5987   1.6102
  1.6294   1.6391   1.6600   1.6710   1.6786   1.7040   1.7090   1.7284
  1.7375   1.7536   1.7577   1.7694   1.7913   1.7927   1.8160   1.8347
  1.8559   1.8634   1.8780   1.8855   1.8881   1.8998   1.9031   1.9126
  1.9217   1.9324   1.9459   1.9536   1.9575   1.9684   1.9732   1.9779
  1.9855   1.9879   2.0019   2.0056   2.0081   2.0158   2.0249   2.0367
  2.0400   2.0564   2.0698   2.0773   2.0904   2.1063   2.1146   2.1306
  2.1455   2.1595   2.1750   2.1863   2.1912   2.2091   2.2153   2.2189
  2.2287   2.2369   2.2505   2.2714   2.2955   2.2981   2.3050   2.3233
  2.3295   2.3369   2.3423   2.3707   2.3818   2.3865   2.3905   2.4007
  2.4324   2.4495   2.4528   2.4635   2.4739   2.4868   2.5060   2.5171
  2.5276   2.5341   2.5618   2.5652   2.5719   2.5959   2.6085   2.6205
  2.6324   2.6490   2.6578   2.6688   2.6825   2.6890   2.7044   2.7137
  2.7274   2.7346   2.7571   2.7594   2.7663   2.7886   2.7900   2.8134
  2.8218   2.8270   2.8458   2.8495   2.8569   2.8592   2.8848   2.8891
  2.8923   2.9106   2.9143   2.9303   2.9475   2.9643   2.9666   2.9753
  2.9827   2.9962   3.0036   3.0230   3.0460   3.0507   3.0533   3.0618
  3.0798   3.0838   3.0995   3.1107   3.1212   3.1435   3.1538   3.1630
  3.1773   3.1782   3.1834   3.1976   3.2053   3.2194   3.2340   3.2440
  3.2616   3.2658   3.2699   3.2813   3.2884   3.2930   3.3015   3.3201
  3.3242   3.3310   3.3369   3.3473   3.3580   3.3701   3.3765   3.3834
  3.3866   3.4033   3.4193   3.4232   3.4363   3.4470   3.4617   3.4677
  3.4697   3.4840   3.4861   3.4949   3.5061   3.5173   3.5287   3.5351
  3.5430   3.5528   3.5609   3.5781   3.5854   3.5957   3.6057   3.6106
  3.6183   3.6260   3.6434   3.6522   3.6694   3.6727   3.6761   3.6882
  3.7026   3.7180   3.7307   3.7381   3.7415   3.7568   3.7653   3.7829
  3.7929   3.8002   3.8086   3.8322   3.8635   3.8838   3.8944   3.9404
  3.9442   3.9467   3.9555   4.0085   4.0382   4.0477   4.0669   4.0697
  4.0927   4.1103   4.1190   4.1712   4.1778   4.2002   4.2315   4.2387
  4.2522   4.2643   4.2984   4.3007   4.3138   4.3275   4.3327   4.3758
  4.3807   4.3898   4.4211   4.4309   4.4397   4.4586   4.4841   4.5105
  4.5550   4.5763   4.5919   4.6036   4.6135   4.6454   4.6546   4.6549
  4.6654   4.6805   4.7785   4.8053   4.8324   4.8430   4.8596   4.9114
  4.9282   4.9424   4.9430   4.9695   4.9785   4.9950   5.0081   5.0336
  5.0821   5.0901   5.1342   5.1637   5.1714   5.1804   5.2053   5.2151
  5.2450   5.2758   5.2853   5.3617   5.3806   5.4081   5.4189   5.4236
  5.4372   5.4752   5.5094   5.5272   5.5640   5.5794   5.6068   5.6704
  5.7291   5.7412   5.8156   5.8434   5.8893   5.9635   5.9919   6.1515
  6.2321   6.2800   6.3642   6.4935   6.6708   6.7259   6.8196   7.0234
  7.2250   7.3223  22.6463  22.6774  22.8063  22.9558  22.9888  23.0232
 23.2394  23.2802  23.5010  23.5636  23.8370  32.5020  32.8562  44.4044
 --------------------------------------------------------------
 
          Ground-State Mulliken Net Atomic Charges

     Atom                 Charge (a.u.)
  ----------------------------------------
      1 C                    -1.066966
      2 C                    -0.606345
      3 C                     0.486239
      4 C                     0.617817
      5 C                    -0.810985
      6 C                    -0.351310
      7 C                    -0.153817
      8 C                    -0.746378
      9 C                    -0.587932
     10 N                     0.154364
     11 H                     0.480354
     12 H                     0.352222
     13 H                     0.242311
     14 H                     0.428840
     15 H                     0.334394
     16 H                     0.395134
     17 H                     0.288976
     18 H                     0.291540
     19 H                     0.238866
     20 C                    -0.735064
     21 C                     0.510488
     22 O                    -0.732873
     23 N                    -0.291727
     24 H                     0.232137
     25 H                     0.216946
     26 H                     0.269547
     27 H                     0.247553
     28 H                     0.295667
  ----------------------------------------
  Sum of atomic charges =     0.000000

 -----------------------------------------------------------------
                    Cartesian Multipole Moments
 -----------------------------------------------------------------
    Charge (ESU x 10^10)
                 0.0000
    Dipole Moment (Debye)
         X      -7.3093      Y       4.8048      Z       3.0001
       Tot       9.2473
    Quadrupole Moments (Debye-Ang)
        XX     -92.5343     XY     -11.3094     YY     -57.3285
        XZ       2.2090     YZ       4.3158     ZZ     -84.8731
    Octopole Moments (Debye-Ang^2)
       XXX     -98.0505    XXY     -46.4749    XYY     -18.1099
       YYY     116.0377    XXZ      45.6145    XYZ      25.5500
       YYZ      13.6041    XZZ      -3.5504    YZZ      25.2796
       ZZZ      -0.4284
    Hexadecapole Moments (Debye-Ang^3)
      XXXX   -1819.4489   XXXY    -968.2637   XXYY    -975.4728
      XYYY    -807.5662   YYYY   -2999.9241   XXXZ     337.5427
      XXYZ     206.6234   XYYZ     148.4107   YYYZ     411.8261
      XXZZ    -376.4482   XYZZ    -255.3266   YYZZ    -638.9455
      XZZZ     336.7830   YZZZ     417.3135   ZZZZ    -543.2986
 -----------------------------------------------------------------
Archival summary:
1\1\nid00537\SP\ProcedureUnspecified\BasisUnspecified\121114\meili\MonSep2717:43:322021MonSep2717:43:322021\0\\#,ProcedureUnspecified,BasisUnspecified,\\0,1\C\N,1,1.36868\H,2,1.02334,1,124.62\C,2,1.36847,1,109.736,3,-175.26,0\H,4,1.0839,2,125.359,1,-179.031,0\C,4,1.36228,2,109.624,1,0.268247,0\C,1,1.38545,2,131.081,3,-3.70108,0\H,7,1.07883,1,120.658,2,-0.118236,0\C,7,1.38361,1,117.822,2,179.617,0\H,9,1.08113,7,119.838,1,-179.836,0\C,9,1.3954,7,121.134,1,-0.500609,0\H,11,1.07989,9,119.582,7,-177.609,0\C,11,1.37509,9,121.013,7,-0.776913,0\H,13,1.07794,11,120.875,9,-176.443,0\C,13,1.40224,11,119.21,9,1.74821,0\C,6,1.48731,4,127.795,2,-176.951,0\H,16,1.08993,6,107.933,4,-155.322,0\H,16,1.09092,6,109.144,4,-39.7662,0\H,16,1.1,6,114.754,4,84.4113,0\O,10,2.55409,9,152.632,7,11.0898,0\C,20,1.25539,10,98.7301,9,-18.7088,0\N,21,1.3165,20,123.014,10,91.9525,0\H,22,1.00814,21,121.817,20,-174.475,0\H,22,1.00962,21,117.7,20,-2.43902,0\C,21,1.50806,20,122.085,10,-89.4397,0\H,25,1.08934,21,109.068,20,3.77249,0\H,25,1.08987,21,107.623,20,120.47,0\H,25,1.1,21,112.926,20,-118.719,0\\\@

 Total job time:  101630.53s(wall), 47773.66s(cpu) 
 Mon Sep 27 17:43:32 2021

        *************************************************************
        *                                                           *
        *  Thank you very much for using Q-Chem.  Have a nice day.  *
        *                                                           *
        *************************************************************


