
Running Job 1 of 1 SSI-103GLU-177ASP-1_PCM_TZVPD.in
qchem SSI-103GLU-177ASP-1_PCM_TZVPD.in_492.0 /tmp/qchem492/ 0
/global/common/cori/software/qchem/5.2/exe/qcprog.exe_s SSI-103GLU-177ASP-1_PCM_TZVPD.in_492.0 /tmp/qchem492/
                  Welcome to Q-Chem
     A Quantum Leap Into The Future Of Chemistry


 Q-Chem 5.2, Q-Chem, Inc., Pleasanton, CA (2019)

 License issued to: National Energy Research Scientific Computing Center

 Yihan Shao,  Zhengting Gan,  E. Epifanovsky,  A. T. B. Gilbert,  M. Wormit,  
 J. Kussmann,  A. W. Lange,  A. Behn,  Jia Deng,  Xintian Feng,  D. Ghosh,  
 M. Goldey,  P. R. Horn,  L. D. Jacobson,  I. Kaliman,  T. Kus,  A. Landau,  
 Jie Liu,  E. I. Proynov,  R. M. Richard,  R. P. Steele,  E. J. Sundstrom,  
 H. L. Woodcock III,  P. M. Zimmerman,  D. Zuev,  B. Albrecht,  E. Alguire,  
 S. A. Baeppler,  D. Barton,  Z. Benda,  Y. A. Bernard,  E. J. Berquist,  
 K. B. Bravaya,  H. Burton,  D. Casanova,  Chun-Min Chang,  Yunqing Chen,  
 A. Chien,  K. D. Closser,  M. P. Coons,  S. Coriani,  S. Dasgupta,  
 A. L. Dempwolff,  M. Diedenhofen,  Hainam Do,  R. G. Edgar,  Po-Tung Fang,  
 S. Faraji,  S. Fatehi,  Qingguo Feng,  K. D. Fenk,  J. Fosso-Tande,  
 J. Gayvert,  Qinghui Ge,  A. Ghysels,  G. Gidofalvi,  J. Gomes,  
 J. Gonthier,  A. Gunina,  D. Hait,  M. W. D. Hanson-Heine,  
 P. H. P. Harbach,  A. W. Hauser,  M. F. Herbst,  J. E. Herr,  
 E. G. Hohenstein,  Z. C. Holden,  Kerwin Hui,  B. C. Huynh,  T.-C. Jagau,  
 Hyunjun Ji,  B. Kaduk,  K. Khistyaev,  Jaehoon Kim,  P. Klunzinger,  K. Koh,  
 D. Kosenkov,  L. Koulias,  T. Kowalczyk,  C. M. Krauter,  A. Kunitsa,  
 Ka Un Lao,  A. Laurent,  K. V. Lawler,  Joonho Lee,  D. Lefrancois,  
 S. Lehtola,  D. S. Levine,  Yi-Pei Li,  You-Sheng Lin,  Fenglai Liu,  
 E. Livshits,  A. Luenser,  P. Manohar,  E. Mansoor,  S. F. Manzer,  
 Shan-Ping Mao,  Yuezhi Mao,  N. Mardirossian,  A. V. Marenich,  
 T. Markovich,  L. A. Martinez-Martinez,  S. A. Maurer,  N. J. Mayhall,  
 S. C. McKenzie,  J.-M. Mewes,  P. Morgante,  A. F. Morrison,  
 J. W. Mullinax,  K. Nanda,  T. S. Nguyen-Beck,  R. Olivares-Amaya,  
 J. A. Parkhill,  Zheng Pei,  T. M. Perrine,  F. Plasser,  P. Pokhilko,  
 S. Prager,  A. Prociuk,  E. Ramos,  D. R. Rehn,  F. Rob,  M. Scheurer,  
 M. Schneider,  N. Sergueev,  S. M. Sharada,  S. Sharma,  D. W. Small,  
 T. Stauch,  T. Stein,  Yu-Chuan Su,  A. J. W. Thom,  A. Tkatchenko,  
 T. Tsuchimochi,  N. M. Tubman,  L. Vogt,  M. L. Vidal,  O. Vydrov,  
 M. A. Watson,  J. Wenzel,  M. de Wergifosse,  T. A. Wesolowski,  A. White,  
 J. Witte,  A. Yamada,  Jun Yang,  K. Yao,  S. Yeganeh,  S. R. Yost,  
 Zhi-Qiang You,  A. Zech,  Igor Ying Zhang,  Xing Zhang,  Yan Zhao,  
 Ying Zhu,  B. R. Brooks,  G. K. L. Chan,  C. J. Cramer,  M. S. Gordon,  
 W. J. Hehre,  A. Klamt,  M. W. Schmidt,  C. D. Sherrill,  D. G. Truhlar,  
 A. Aspuru-Guzik,  R. Baer,  A. T. Bell,  N. A. Besley,  Jeng-Da Chai,  
 A. E. DePrince, III,  R. A. DiStasio Jr.,  A. Dreuw,  B. D. Dunietz,  
 T. R. Furlani,  Chao-Ping Hsu,  Yousung Jung,  Jing Kong,  D. S. Lambrecht,  
 WanZhen Liang,  C. Ochsenfeld,  V. A. Rassolov,  L. V. Slipchenko,  
 J. E. Subotnik,  T. Van Voorhis,  J. M. Herbert,  A. I. Krylov,  
 P. M. W. Gill,  M. Head-Gordon

 Contributors to earlier versions of Q-Chem not listed above: 
 R. D. Adamson,  B. Austin,  J. Baker,  G. J. O. Beran,  K. Brandhorst,  
 S. T. Brown,  E. F. C. Byrd,  A. K. Chakraborty,  C.-L. Cheng,  
 Siu Hung Chien,  D. M. Chipman,  D. L. Crittenden,  H. Dachsel,  
 R. J. Doerksen,  A. D. Dutoi,  L. Fusti-Molnar,  W. A. Goddard III,  
 A. Golubeva-Zadorozhnaya,  S. R. Gwaltney,  G. Hawkins,  A. Heyden,  
 S. Hirata,  G. Kedziora,  F. J. Keil,  C. Kelley,  Jihan Kim,  R. A. King,  
 R. Z. Khaliullin,  P. P. Korambath,  W. Kurlancheek,  A. M. Lee,  M. S. Lee,  
 S. V. Levchenko,  Ching Yeh Lin,  D. Liotard,  R. C. Lochan,  I. Lotan,  
 P. E. Maslen,  N. Nair,  D. P. O'Neill,  D. Neuhauser,  E. Neuscamman,  
 C. M. Oana,  R. Olson,  B. Peters,  R. Peverati,  P. A. Pieniazek,  
 Y. M. Rhee,  J. Ritchie,  M. A. Rohrdanz,  E. Rosta,  N. J. Russ,  
 H. F. Schaefer III,  N. E. Schultz,  N. Shenvi,  A. C. Simmonett,  A. Sodt,  
 D. Stuck,  K. S. Thanthiriwatte,  V. Vanovschi,  Tao Wang,  A. Warshel,  
 C. F. Williams,  Q. Wu,  X. Xu,  W. Zhang

 Please cite Q-Chem as follows:
 Y. Shao et al., Mol. Phys. 113, 184-215 (2015)
 DOI: 10.1080/00268976.2014.952696

 Q-Chem 5.2.0 for Intel X86 EM64T Linux

 Parts of Q-Chem use Armadillo 8.300.2 (Tropical Shenanigans).
 http://arma.sourceforge.net/

 Q-Chem begins on Sun Sep 26 13:09:06 2021  

Host: cori01
0

     Scratch files written to /tmp/qchem492//
 May1019 |scratch|qcdevops|jenkins|workspace|build_RNUM -1
Processing $rem in /global/common/cori/software/qchem/5.2/config/preferences:
	 MEM_TOTAL  96000 
NAlpha2: 64
NElect   64
Mult     1
Symmetry turned off for PCM/SM12/SMD calculation

 Q-Chem warning in module libgen/rem_setup.C, line 2803:

 Neither GIA nor STOLL is specified by user. Use STOLL as the default


Checking the input file for inconsistencies... 	...done.

--------------------------------------------------------------
User input:
--------------------------------------------------------------
$comment
SSI-103GLU-177ASP-1.pdb
$end

$molecule
-2 1
--
-1 1
C   -0.509860128007   -1.586275644490   -1.651290182017
C   -0.210860128007   -2.049275644490   -0.230290182017
O   -0.161860128007   -3.265275644490    0.020709817983
O    0.054139871993   -1.214275644490    0.671709817983
H    0.387139871993   -1.128275644490   -2.078290182017
H   -1.293860128007   -0.835275644490   -1.631290182017
H   -0.830120128007   -2.406625644490   -2.310430182017
--
-1 1
C    1.614139871993    1.691724355510    0.353709817983
C    0.137139871993    2.045724355510    0.294709817983
O   -0.721860128007    1.135724355510    0.305709817983
O   -0.208860128007    3.242724355510    0.235709817983
H    1.837139871993    0.951724355510   -0.417290182017
H    1.834139871993    1.250724355510    1.326709817983
H    2.275669871993    2.559024355510    0.211699817983
$end

$rem
JOBTYPE			EDA
EDA2			1
method			wB97X-V
BASIS			def2-TZVPD
XC_GRID			000099000590
NL_GRID			1
UNRESTRICTED		FALSE
MAX_SCF_CYCLES		200
SYMMETRY		FALSE
SYM_IGNORE		TRUE
MEM_STATIC		2000
BASIS_LIN_DEP_THRESH 	6
THRESH 			14
SCF_CONVERGENCE 	8
SCF_PRINT_FRGM 		TRUE
SOLVENT_METHOD          PCM
$end

$PCM
THEORY                  CPCM
METHOD                  SWIG
SOLVER                  INVERSION
RADII                   UFF
HPOINTS                 302
HEAVYPOINTS             302
PRINTLEVEL              0
$END

$SOLVENT
DIELECTRIC              78.390000 ! water
$END
--------------------------------------------------------------
 ----------------------------------------------------------------
             Standard Nuclear Orientation (Angstroms)
    I     Atom           X                Y                Z
 ----------------------------------------------------------------
    1      C      -0.5098601280    -1.5862756445    -1.6512901820
    2      C      -0.2108601280    -2.0492756445    -0.2302901820
    3      O      -0.1618601280    -3.2652756445     0.0207098180
    4      O       0.0541398720    -1.2142756445     0.6717098180
    5      H       0.3871398720    -1.1282756445    -2.0782901820
    6      H      -1.2938601280    -0.8352756445    -1.6312901820
    7      H      -0.8301201280    -2.4066256445    -2.3104301820
    8      C       1.6141398720     1.6917243555     0.3537098180
    9      C       0.1371398720     2.0457243555     0.2947098180
   10      O      -0.7218601280     1.1357243555     0.3057098180
   11      O      -0.2088601280     3.2427243555     0.2357098180
   12      H       1.8371398720     0.9517243555    -0.4172901820
   13      H       1.8341398720     1.2507243555     1.3267098180
   14      H       2.2756698720     2.5590243555     0.2116998180
 ----------------------------------------------------------------
 Nuclear Repulsion Energy =         349.40370819 hartrees
 There are       32 alpha and       32 beta electrons
 Requested basis set is def2-TZVPD
 There are 138 shells and 362 basis functions

 Total QAlloc Memory Limit  96000 MB
 Mega-Array Size      1956 MB
 MEM_STATIC part      2000 MB
 Discretize the solute cavity surface with Lebedev spheres
	Using 302 Lebedev grid points for each H atom
	Using 302 Lebedev grid points for other atoms
	Atomic van der Waals radii will be scaled by 1.20
 Remove points where switching function is < 1.0e-08
 Keep 1802 surface tesserae and discard 2426 interior tesserae
 Molecular Surface Area = 202.025 Angst**2

                       Distance Matrix (Angstroms)
             C (  1)   C (  2)   O (  3)   O (  4)   H (  5)   H (  6)
   C (  2)  1.524143
   O (  3)  2.394938  1.242601
   O (  4)  2.419258  1.257400  2.162651
   H (  5)  1.093939  2.149639  3.045320  2.771423
   H (  6)  1.085844  2.146971  3.148877  2.695284  1.763921
   H (  7)  1.100003  2.199583  2.572560  3.331182  1.780390  1.773535
   C (  8)  4.390522  4.203185  5.276070  3.313542  3.920785  4.333869
   C (  9)  4.170965  4.143157  5.326462  3.282776  3.970882  3.749320
   O ( 10)  3.359178  3.269961  4.445630  2.501726  3.469731  2.822055
   O ( 11)  5.193324  5.312478  6.511720  4.485991  4.981511  4.614434
   H ( 12)  3.670505  3.638032  4.687316  3.009413  3.031142  3.803988
   H ( 13)  4.734067  4.182855  5.107241  3.110249  4.398576  4.783884
   H ( 14)  5.330424  5.254961  6.316684  4.402794  4.733580  5.259223
             H (  7)   C (  8)   C (  9)   O ( 10)   O ( 11)   H ( 12)
   C (  8)  5.465210
   C (  9)  5.248406  1.519976
   O ( 10)  4.405014  2.401736  1.251440
   O ( 11)  6.227676  2.396425  1.247400  2.169682
   H ( 12)  4.687939  1.091682  2.143311  2.665533  3.140256
   H ( 13)  5.805452  1.090692  2.139359  2.754778  3.054864  1.769448
   H ( 14)  6.376892  1.099999  2.200836  3.319609  2.576997  1.780829
             H ( 13)
   H ( 14)  1.774780
 
 A cutoff of  1.0D-14 yielded   8787 shell pairs
 There are     61003 function pairs (     77984 Cartesian)
 Smallest overlap matrix eigenvalue = 9.11E-06

 Scale SEOQF with 1.000000e-01/1.000000e-01/1.000000e-01

 Standard Electronic Orientation quadrupole field applied
 Nucleus-field energy     =     0.0000000181 hartrees

 -----------------------------------------------------------------------
  General SCF calculation program by
  Eric Jon Sundstrom, Paul Horn, Yuezhi Mao, Dmitri Zuev, Alec White,
  David Stuck, Shaama M.S., Shane Yost, Joonho Lee, David Small,
  Daniel Levine, Susi Lehtola, Hugh Burton, Evgeny Epifanovsky
 -----------------------------------------------------------------------
================================================================
                 ALMO-EDA with the EDA2 driver                  
================================================================
 The second-generation ALMO-EDA (for DFT):                      
 P. R. Horn, Y. Mao and M. Head-Gordon, PCCP, 18, 23067 (2016)  
 Decomposition of the frozen energy:                            
 P. R. Horn, Y. Mao and M. Head-Gordon, JCP, 144, 114107 (2016) 
 FERF model for polarization:                                   
 P. R. Horn and M. Head-Gordon, JCP, 143, 114111 (2015)         
Using eda2 option set 1
Option set summary: Frozen orbital wavefunction, initial wavefunction decomposition, and nDQ polarization.
--------------------------------
Printing EDA Options
--------------------------------
eda_child_super_basis      0
fragmo_guess_mode          0
child_mp                   1
child_mp_orders            232
cls_elec                   1
cls_disp                   0
scfmi_mode                 1
scfmi_occs                 0
scfmi_virts                0
frz_relax                  0
frz_relax_method           0
dc_pen_start               0
dc_pen_conv                0
dc_pen_increment           0
dc_pen_steps               0
dc_pen_thresh_factor       0
dc_pen_pre_newton_thresh   0
frz_ortho_decomp           1
frz_ortho_decomp_conv      6
frgm_method                2
scfmi_freeze_ss            0
separate_rehyb             0
plot_diff_den              0
eda_nocv                   0
eda_vct_relax              1
disp_free_x                0
disp_free_c                0
eda_bsse                   0
eda_pct_a                  0
eda_covp                   0
--------------------------------
Attempting to make child job directory: /tmp/qchem492//Frg1/
Attempting to make child job directory: /tmp/qchem492//Frg2/
Creating input file /tmp/qchem492/Frg1.input
using default PutDataFrgm: nothing
calling putenv with: QCSCRATCH=/tmp/qchem492/ 
calling putenv with: QCLOCALSCR=/tmp/qchem492/ 
Spawning Job For Fragment 0
                  Welcome to Q-Chem
     A Quantum Leap Into The Future Of Chemistry


 Q-Chem 5.2, Q-Chem, Inc., Pleasanton, CA (2019)

 License issued to: National Energy Research Scientific Computing Center

 Yihan Shao,  Zhengting Gan,  E. Epifanovsky,  A. T. B. Gilbert,  M. Wormit,  
 J. Kussmann,  A. W. Lange,  A. Behn,  Jia Deng,  Xintian Feng,  D. Ghosh,  
 M. Goldey,  P. R. Horn,  L. D. Jacobson,  I. Kaliman,  T. Kus,  A. Landau,  
 Jie Liu,  E. I. Proynov,  R. M. Richard,  R. P. Steele,  E. J. Sundstrom,  
 H. L. Woodcock III,  P. M. Zimmerman,  D. Zuev,  B. Albrecht,  E. Alguire,  
 S. A. Baeppler,  D. Barton,  Z. Benda,  Y. A. Bernard,  E. J. Berquist,  
 K. B. Bravaya,  H. Burton,  D. Casanova,  Chun-Min Chang,  Yunqing Chen,  
 A. Chien,  K. D. Closser,  M. P. Coons,  S. Coriani,  S. Dasgupta,  
 A. L. Dempwolff,  M. Diedenhofen,  Hainam Do,  R. G. Edgar,  Po-Tung Fang,  
 S. Faraji,  S. Fatehi,  Qingguo Feng,  K. D. Fenk,  J. Fosso-Tande,  
 J. Gayvert,  Qinghui Ge,  A. Ghysels,  G. Gidofalvi,  J. Gomes,  
 J. Gonthier,  A. Gunina,  D. Hait,  M. W. D. Hanson-Heine,  
 P. H. P. Harbach,  A. W. Hauser,  M. F. Herbst,  J. E. Herr,  
 E. G. Hohenstein,  Z. C. Holden,  Kerwin Hui,  B. C. Huynh,  T.-C. Jagau,  
 Hyunjun Ji,  B. Kaduk,  K. Khistyaev,  Jaehoon Kim,  P. Klunzinger,  K. Koh,  
 D. Kosenkov,  L. Koulias,  T. Kowalczyk,  C. M. Krauter,  A. Kunitsa,  
 Ka Un Lao,  A. Laurent,  K. V. Lawler,  Joonho Lee,  D. Lefrancois,  
 S. Lehtola,  D. S. Levine,  Yi-Pei Li,  You-Sheng Lin,  Fenglai Liu,  
 E. Livshits,  A. Luenser,  P. Manohar,  E. Mansoor,  S. F. Manzer,  
 Shan-Ping Mao,  Yuezhi Mao,  N. Mardirossian,  A. V. Marenich,  
 T. Markovich,  L. A. Martinez-Martinez,  S. A. Maurer,  N. J. Mayhall,  
 S. C. McKenzie,  J.-M. Mewes,  P. Morgante,  A. F. Morrison,  
 J. W. Mullinax,  K. Nanda,  T. S. Nguyen-Beck,  R. Olivares-Amaya,  
 J. A. Parkhill,  Zheng Pei,  T. M. Perrine,  F. Plasser,  P. Pokhilko,  
 S. Prager,  A. Prociuk,  E. Ramos,  D. R. Rehn,  F. Rob,  M. Scheurer,  
 M. Schneider,  N. Sergueev,  S. M. Sharada,  S. Sharma,  D. W. Small,  
 T. Stauch,  T. Stein,  Yu-Chuan Su,  A. J. W. Thom,  A. Tkatchenko,  
 T. Tsuchimochi,  N. M. Tubman,  L. Vogt,  M. L. Vidal,  O. Vydrov,  
 M. A. Watson,  J. Wenzel,  M. de Wergifosse,  T. A. Wesolowski,  A. White,  
 J. Witte,  A. Yamada,  Jun Yang,  K. Yao,  S. Yeganeh,  S. R. Yost,  
 Zhi-Qiang You,  A. Zech,  Igor Ying Zhang,  Xing Zhang,  Yan Zhao,  
 Ying Zhu,  B. R. Brooks,  G. K. L. Chan,  C. J. Cramer,  M. S. Gordon,  
 W. J. Hehre,  A. Klamt,  M. W. Schmidt,  C. D. Sherrill,  D. G. Truhlar,  
 A. Aspuru-Guzik,  R. Baer,  A. T. Bell,  N. A. Besley,  Jeng-Da Chai,  
 A. E. DePrince, III,  R. A. DiStasio Jr.,  A. Dreuw,  B. D. Dunietz,  
 T. R. Furlani,  Chao-Ping Hsu,  Yousung Jung,  Jing Kong,  D. S. Lambrecht,  
 WanZhen Liang,  C. Ochsenfeld,  V. A. Rassolov,  L. V. Slipchenko,  
 J. E. Subotnik,  T. Van Voorhis,  J. M. Herbert,  A. I. Krylov,  
 P. M. W. Gill,  M. Head-Gordon

 Contributors to earlier versions of Q-Chem not listed above: 
 R. D. Adamson,  B. Austin,  J. Baker,  G. J. O. Beran,  K. Brandhorst,  
 S. T. Brown,  E. F. C. Byrd,  A. K. Chakraborty,  C.-L. Cheng,  
 Siu Hung Chien,  D. M. Chipman,  D. L. Crittenden,  H. Dachsel,  
 R. J. Doerksen,  A. D. Dutoi,  L. Fusti-Molnar,  W. A. Goddard III,  
 A. Golubeva-Zadorozhnaya,  S. R. Gwaltney,  G. Hawkins,  A. Heyden,  
 S. Hirata,  G. Kedziora,  F. J. Keil,  C. Kelley,  Jihan Kim,  R. A. King,  
 R. Z. Khaliullin,  P. P. Korambath,  W. Kurlancheek,  A. M. Lee,  M. S. Lee,  
 S. V. Levchenko,  Ching Yeh Lin,  D. Liotard,  R. C. Lochan,  I. Lotan,  
 P. E. Maslen,  N. Nair,  D. P. O'Neill,  D. Neuhauser,  E. Neuscamman,  
 C. M. Oana,  R. Olson,  B. Peters,  R. Peverati,  P. A. Pieniazek,  
 Y. M. Rhee,  J. Ritchie,  M. A. Rohrdanz,  E. Rosta,  N. J. Russ,  
 H. F. Schaefer III,  N. E. Schultz,  N. Shenvi,  A. C. Simmonett,  A. Sodt,  
 D. Stuck,  K. S. Thanthiriwatte,  V. Vanovschi,  Tao Wang,  A. Warshel,  
 C. F. Williams,  Q. Wu,  X. Xu,  W. Zhang

 Please cite Q-Chem as follows:
 Y. Shao et al., Mol. Phys. 113, 184-215 (2015)
 DOI: 10.1080/00268976.2014.952696

 Q-Chem 5.2.0 for Intel X86 EM64T Linux

 Parts of Q-Chem use Armadillo 8.300.2 (Tropical Shenanigans).
 http://arma.sourceforge.net/

 Q-Chem begins on Sun Sep 26 13:09:09 2021  

Host: cori01
0

     Scratch files written to /tmp/qchem492//Frg1//
 May1019 |scratch|qcdevops|jenkins|workspace|build_RNUM -1
Processing $rem in /global/common/cori/software/qchem/5.2/config/preferences:
	 MEM_TOTAL  96000 
NAlpha2: 32
NElect   32
Mult     1
Symmetry turned off for PCM/SM12/SMD calculation

Checking the input file for inconsistencies... 	...done.

--------------------------------------------------------------
User input:
--------------------------------------------------------------
$molecule
-1 1
 6	-0.5098601280	-1.5862756445	-1.6512901820
 6	-0.2108601280	-2.0492756445	-0.2302901820
 8	-0.1618601280	-3.2652756445	0.0207098180
 8	0.0541398720	-1.2142756445	0.6717098180
 1	0.3871398720	-1.1282756445	-2.0782901820
 1	-1.2938601280	-0.8352756445	-1.6312901820
 1	-0.8301201280	-2.4066256445	-2.3104301820
$end
$rem
EDA2		1
METHOD		WB97X-V
BASIS		DEF2-TZVPD
XC_GRID		000099000590
NL_GRID		1
UNRESTRICTED		FALSE
MAX_SCF_CYCLES		200
SYMMETRY		FALSE
SYM_IGNORE		TRUE
BASIS_LIN_DEP_THRESH		6
THRESH		14
SCF_CONVERGENCE		8
SCF_PRINT_FRGM		TRUE
SOLVENT_METHOD		PCM
!required keywords
JOBTYPE		SP
SYM_IGNORE		TRUE
SUBSYSTEM		TRUE
GEN_SCFMAN		TRUE
CHILD_INSTRUCTION		2
SYM_IGNORE		TRUE
SCFMI		0
RI_K 0		
PARI_K 0		
MIN_PARI_K 0		
IARI_K 0		
OCC_RI_K 0		
PURECART		1111
MEM_STATIC		2000
MEM_TOTAL		96000
GUI		0
CHILD_MP		1
CHILD_MP_ORDERS		232
FRZ_RELAX		0
FRZ_RELAX_METHOD		0
EDA_CLS_ELEC		1
EDA_CLS_DISP		0
FRZ_ORTHO_DECOMP		1
EDA2		FALSE
FRGM_METHOD		FALSE
CIS_N_ROOTS  0
LOCAL_CIS    0
CIS_RLX_DNS  1
$end
$pcm
THEORY                  CPCM
METHOD                  SWIG
SOLVER                  INVERSION
RADII                   UFF
HPOINTS                 302
HEAVYPOINTS             302
PRINTLEVEL              0
$end
$solvent
DIELECTRIC              78.390000 ! water
$end
--------------------------------------------------------------
 ----------------------------------------------------------------
             Standard Nuclear Orientation (Angstroms)
    I     Atom           X                Y                Z
 ----------------------------------------------------------------
    1      C      -0.5098601280    -1.5862756445    -1.6512901820
    2      C      -0.2108601280    -2.0492756445    -0.2302901820
    3      O      -0.1618601280    -3.2652756445     0.0207098180
    4      O       0.0541398720    -1.2142756445     0.6717098180
    5      H       0.3871398720    -1.1282756445    -2.0782901820
    6      H      -1.2938601280    -0.8352756445    -1.6312901820
    7      H      -0.8301201280    -2.4066256445    -2.3104301820
 ----------------------------------------------------------------
 Nuclear Repulsion Energy =         112.66366656 hartrees
 There are       16 alpha and       16 beta electrons
 Requested basis set is def2-TZVPD
 There are 69 shells and 181 basis functions

 Total QAlloc Memory Limit  96000 MB
 Mega-Array Size      1956 MB
 MEM_STATIC part      2000 MB
 Discretize the solute cavity surface with Lebedev spheres
	Using 302 Lebedev grid points for each H atom
	Using 302 Lebedev grid points for other atoms
	Atomic van der Waals radii will be scaled by 1.20
 Remove points where switching function is < 1.0e-08
 Keep 1022 surface tesserae and discard 1092 interior tesserae
 Molecular Surface Area = 120.184 Angst**2

                       Distance Matrix (Angstroms)
             C (  1)   C (  2)   O (  3)   O (  4)   H (  5)   H (  6)
   C (  2)  1.524143
   O (  3)  2.394938  1.242601
   O (  4)  2.419258  1.257400  2.162651
   H (  5)  1.093939  2.149639  3.045320  2.771423
   H (  6)  1.085844  2.146971  3.148877  2.695284  1.763921
   H (  7)  1.100003  2.199583  2.572560  3.331182  1.780390  1.773535

 
 A cutoff of  1.0D-14 yielded   2393 shell pairs
 There are     16705 function pairs (     21503 Cartesian)
 Smallest overlap matrix eigenvalue = 1.63E-05

 Scale SEOQF with 1.000000e-01/1.000000e-01/1.000000e-01

 Standard Electronic Orientation quadrupole field applied
 Nucleus-field energy     =     0.0000000070 hartrees
 Guess from superposition of atomic densities
 Warning:  Energy on first SCF cycle will be non-variational
 SAD guess density has 30.625312 electrons

 -----------------------------------------------------------------------
  General SCF calculation program by
  Eric Jon Sundstrom, Paul Horn, Yuezhi Mao, Dmitri Zuev, Alec White,
  David Stuck, Shaama M.S., Shane Yost, Joonho Lee, David Small,
  Daniel Levine, Susi Lehtola, Hugh Burton, Evgeny Epifanovsky
 -----------------------------------------------------------------------
 Exchange:     0.1670 Hartree-Fock + 1.0000 wB97X-V + LR-HF
 Correlation:  1.0000 wB97X-V
 Using Euler-Maclaurin-Lebedev (99,590) quadrature formula
 Nonlocal Correlation:  VV10 with C = 0.0100 and b = 6.00 and scale = 1.00000
 Grid used for NLC:  SG-1 standard quadrature
Energy prior to optimization (guess energy) = -227.750870625627
Begin Timing: Total SCF Calculation
begin iterations for algorithm: DIIS         
the SCF tolerance is set to 1.00e-08
    1    -227.7508706256      1.67e-02     00000 
    2    -225.4901654551      2.59e-02     00000 
    3    -228.5736217240      4.15e-03     00000 
    4    -228.6335362470      1.38e-03     00000 
    5    -228.6397802860      1.99e-04     00000 
    6    -228.6400262286      9.84e-05     00000 
    7    -228.6400519408      6.04e-05     00000 
    8    -228.6400640330      1.52e-05     00000 
    9    -228.6400655212      3.11e-06     00000 
   10    -228.6400656371      4.18e-07     00000 
   11    -228.6400656401      1.44e-07     00000 
   12    -228.6400656403      4.30e-08     00000 
   13    -228.6400656404      1.98e-08     00000 
   14    -228.6400656404      3.22e-09     00000 Convergence criterion met
Timing for Total SCF: 283.00s (wall), 555.62s (cpu)

************** Final PCM Free Energy Summary **************
 G_electrostatic  =      -0.10284052 hartree =     -64.53340191 kcal/mol
 G_cavitation     =       0.00000000 hartree =       0.00000000 kcal/mol
 G_dispersion     =       0.00000000 hartree =       0.00000000 kcal/mol
 G_repulsion      =       0.00000000 hartree =       0.00000000 kcal/mol
 --------------------------------------------------
 Non-electrostatic Free Energy =       0.00000000 hartree =       0.00000000 kcal/mol
 Total                         =      -0.10284052 hartree =     -64.53340191 kcal/mol
 --------------------------------------------------
 SCF Energy (H0 + V/2)                       =    -228.64006564 
 Solute Internal Energy (H0)                 =    -228.53722512 
 Total Free Energy (H0 + V/2 + non-elec)     =    -228.64006564 hartree
                                             = -143473.80663939 kcal/mol
***********************************************************

E_pcm = -0.1028405226
Multipole orders to be included
        2
        3
computing dipole RHS
computing quadrupole RHS
total number of RHS in solve_reponses: 8
RHS batch sizes
        8
Beginning Block Conjugate Gradient Iterations. Batch Number: 0
computing hessian-vector products by finite difference
              1      7.18e-01     00000 Conjugate Gradient Iteration
computing hessian-vector products by finite difference
              2      2.61e-01     00000 Conjugate Gradient Iteration
computing hessian-vector products by finite difference
              3      7.13e-02     00000 Conjugate Gradient Iteration
computing hessian-vector products by finite difference
              4      1.93e-02     00000 Conjugate Gradient Iteration
computing hessian-vector products by finite difference
              5      3.31e-03     00000 Conjugate Gradient Iteration
computing hessian-vector products by finite difference
              6      7.72e-04     00000 Conjugate Gradient Iteration
computing hessian-vector products by finite difference
              7      1.25e-04     00000 Conjugate Gradient Iteration
computing hessian-vector products by finite difference
              8      1.49e-05     00000 Conjugate Gradient Iteration
computing hessian-vector products by finite difference
              9      2.32e-06     00000 Conjugate Gradient Iteration
computing hessian-vector products by finite difference
             10      2.70e-07     00000 Conjugate Gradient Iteration
computing hessian-vector products by finite difference
             11      8.48e-08     00000 Conjugate Gradient Iteration
computing hessian-vector products by finite difference
             12      1.32e-08     00000 Conjugate Gradient Iteration
computing hessian-vector products by finite difference
             13      1.56e-09     00000 CG Converged
batch 0 complete
Done Calculating Responses
TESTING ORTHOGONALIZATION OF MULTIPOLE BASIS
Multipole virts passed orthogonality test
Virts Per Order
        48
        80
 
 --------------------------------------------------------------
 
                    Orbital Energies (a.u.)
 --------------------------------------------------------------
 
 Alpha MOs
 -- Occupied --
-19.1199 -19.1182 -10.3241 -10.2425  -1.1338  -1.0262  -0.8313  -0.5933
 -0.5298  -0.5171  -0.5160  -0.4615  -0.4445  -0.3294  -0.3261  -0.3030
 -- Virtual --
  0.0634   0.0952   0.0954   0.1053   0.1301   0.1402   0.1433   0.1458
  0.1691   0.1895   0.1979   0.2238   0.2291   0.2360   0.2651   0.2677
  0.2988   0.3127   0.3347   0.3482   0.3525   0.3610   0.3699   0.3839
  0.3919   0.4004   0.4257   0.4259   0.4340   0.4600   0.4747   0.4782
  0.4920   0.4977   0.5056   0.5217   0.5576   0.5810   0.6052   0.6143
  0.6222   0.6404   0.6441   0.6668   0.6762   0.6767   0.6955   0.7148
  0.7195   0.7388   0.7758   0.7996   0.8105   0.8192   0.8448   0.8630
  0.8689   0.9831   0.9901   0.9970   1.0065   1.0520   1.0558   1.1332
  1.1740   1.2035   1.2589   1.2901   1.2961   1.3151   1.3438   1.3616
  1.4599   1.5655   1.6077   1.7370   1.8239   1.8666   1.8695   1.9310
  1.9333   1.9587   1.9632   1.9712   2.0176   2.1189   2.1335   2.1615
  2.2098   2.2276   2.3316   2.3543   2.4164   2.4389   2.4924   2.5111
  2.5872   2.5993   2.6139   2.6737   2.8045   2.8109   2.8725   2.9419
  2.9591   3.0113   3.0378   3.1786   3.2088   3.2478   3.2901   3.3139
  3.3356   3.3448   3.3950   3.4158   3.4266   3.5494   3.5647   3.5850
  3.6195   3.6693   3.7083   3.7523   3.7804   3.8903   3.9545   4.0441
  4.0819   4.2047   4.3435   4.5558   4.6131   4.6692   4.8143   4.8307
  4.9927   5.3367   5.3604   5.3710   5.3780   5.4846   5.7068   5.8171
  5.8263   6.0665   6.2088   6.3627   6.3747   6.6061   6.6334   6.7449
  6.7531   6.7662   6.9544   6.9921   7.0378   7.2643   7.3124   7.4069
  7.4178  22.5879  23.7419  44.2253  44.3494
 --------------------------------------------------------------
 
          Ground-State Mulliken Net Atomic Charges

     Atom                 Charge (a.u.)
  ----------------------------------------
      1 C                    -0.406800
      2 C                     0.299183
      3 O                    -0.665663
      4 O                    -0.692585
      5 H                     0.141642
      6 H                     0.160041
      7 H                     0.164182
  ----------------------------------------
  Sum of atomic charges =    -1.000000

 -----------------------------------------------------------------
                    Cartesian Multipole Moments
 -----------------------------------------------------------------
    Charge (ESU x 10^10)
                -4.8032
    Dipole Moment (Debye)
         X      -0.1411      Y      11.1988      Z      -3.3380
       Tot      11.6865
    Quadrupole Moments (Debye-Ang)
        XX     -25.5508     XY      -0.6892     YY     -61.2009
        XZ      -0.2991     YZ       4.6440     ZZ     -28.2197
    Octopole Moments (Debye-Ang^2)
       XXX      17.1063    XXY      51.7916    XYY       9.9199
       YYY     276.6516    XXZ       9.2603    XYZ       0.2702
       YYZ       2.8438    XZZ       6.0600    YZZ      55.0544
       ZZZ      28.1239
    Hexadecapole Moments (Debye-Ang^3)
      XXXX     -50.4474   XXXY     -35.1766   XXYY    -136.3526
      XYYY     -52.2350   YYYY   -1180.4505   XXXZ     -23.0381
      XXYZ     -17.1461   XYYZ      -7.1132   YYYZ     -41.2005
      XXZZ     -40.8536   XYZZ     -10.3302   YYZZ    -164.4749
      XZZZ     -24.1813   YZZZ     -47.1083   ZZZZ    -202.5711
 -----------------------------------------------------------------
Archival summary:
1\1\nid00541\SP\ProcedureUnspecified\BasisUnspecified\223(1-,1)\meili\SunSep2614:30:232021SunSep2614:30:232021\0\\#,ProcedureUnspecified,BasisUnspecified,\\-1,1\C\O,1,1.2426\O,1,1.2574,2,119.778\C,1,1.52414,2,119.56,3,176.33,0\H,4,1.08584,1,109.546,2,130.883,0\H,4,1.09394,1,109.283,2,-110.93,0\H,4,1.1,1,112.907,2,9.90128,0\\\@

 Total job time:  4874.82s(wall), 9555.50s(cpu) 
 Sun Sep 26 14:30:23 2021

        *************************************************************
        *                                                           *
        *  Thank you very much for using Q-Chem.  Have a nice day.  *
        *                                                           *
        *************************************************************


Done Job For Fragment 0
calling putenv with: QCSCRATCH=/global/cscratch1/sd/meili 
calling putenv with: QCLOCALSCR=/tmp 
calling putenv with: QCTHREADS=32 
Creating input file /tmp/qchem492/Frg2.input
using default PutDataFrgm: nothing
calling putenv with: QCSCRATCH=/tmp/qchem492/ 
calling putenv with: QCLOCALSCR=/tmp/qchem492/ 
Spawning Job For Fragment 1
                  Welcome to Q-Chem
     A Quantum Leap Into The Future Of Chemistry


 Q-Chem 5.2, Q-Chem, Inc., Pleasanton, CA (2019)

 License issued to: National Energy Research Scientific Computing Center

 Yihan Shao,  Zhengting Gan,  E. Epifanovsky,  A. T. B. Gilbert,  M. Wormit,  
 J. Kussmann,  A. W. Lange,  A. Behn,  Jia Deng,  Xintian Feng,  D. Ghosh,  
 M. Goldey,  P. R. Horn,  L. D. Jacobson,  I. Kaliman,  T. Kus,  A. Landau,  
 Jie Liu,  E. I. Proynov,  R. M. Richard,  R. P. Steele,  E. J. Sundstrom,  
 H. L. Woodcock III,  P. M. Zimmerman,  D. Zuev,  B. Albrecht,  E. Alguire,  
 S. A. Baeppler,  D. Barton,  Z. Benda,  Y. A. Bernard,  E. J. Berquist,  
 K. B. Bravaya,  H. Burton,  D. Casanova,  Chun-Min Chang,  Yunqing Chen,  
 A. Chien,  K. D. Closser,  M. P. Coons,  S. Coriani,  S. Dasgupta,  
 A. L. Dempwolff,  M. Diedenhofen,  Hainam Do,  R. G. Edgar,  Po-Tung Fang,  
 S. Faraji,  S. Fatehi,  Qingguo Feng,  K. D. Fenk,  J. Fosso-Tande,  
 J. Gayvert,  Qinghui Ge,  A. Ghysels,  G. Gidofalvi,  J. Gomes,  
 J. Gonthier,  A. Gunina,  D. Hait,  M. W. D. Hanson-Heine,  
 P. H. P. Harbach,  A. W. Hauser,  M. F. Herbst,  J. E. Herr,  
 E. G. Hohenstein,  Z. C. Holden,  Kerwin Hui,  B. C. Huynh,  T.-C. Jagau,  
 Hyunjun Ji,  B. Kaduk,  K. Khistyaev,  Jaehoon Kim,  P. Klunzinger,  K. Koh,  
 D. Kosenkov,  L. Koulias,  T. Kowalczyk,  C. M. Krauter,  A. Kunitsa,  
 Ka Un Lao,  A. Laurent,  K. V. Lawler,  Joonho Lee,  D. Lefrancois,  
 S. Lehtola,  D. S. Levine,  Yi-Pei Li,  You-Sheng Lin,  Fenglai Liu,  
 E. Livshits,  A. Luenser,  P. Manohar,  E. Mansoor,  S. F. Manzer,  
 Shan-Ping Mao,  Yuezhi Mao,  N. Mardirossian,  A. V. Marenich,  
 T. Markovich,  L. A. Martinez-Martinez,  S. A. Maurer,  N. J. Mayhall,  
 S. C. McKenzie,  J.-M. Mewes,  P. Morgante,  A. F. Morrison,  
 J. W. Mullinax,  K. Nanda,  T. S. Nguyen-Beck,  R. Olivares-Amaya,  
 J. A. Parkhill,  Zheng Pei,  T. M. Perrine,  F. Plasser,  P. Pokhilko,  
 S. Prager,  A. Prociuk,  E. Ramos,  D. R. Rehn,  F. Rob,  M. Scheurer,  
 M. Schneider,  N. Sergueev,  S. M. Sharada,  S. Sharma,  D. W. Small,  
 T. Stauch,  T. Stein,  Yu-Chuan Su,  A. J. W. Thom,  A. Tkatchenko,  
 T. Tsuchimochi,  N. M. Tubman,  L. Vogt,  M. L. Vidal,  O. Vydrov,  
 M. A. Watson,  J. Wenzel,  M. de Wergifosse,  T. A. Wesolowski,  A. White,  
 J. Witte,  A. Yamada,  Jun Yang,  K. Yao,  S. Yeganeh,  S. R. Yost,  
 Zhi-Qiang You,  A. Zech,  Igor Ying Zhang,  Xing Zhang,  Yan Zhao,  
 Ying Zhu,  B. R. Brooks,  G. K. L. Chan,  C. J. Cramer,  M. S. Gordon,  
 W. J. Hehre,  A. Klamt,  M. W. Schmidt,  C. D. Sherrill,  D. G. Truhlar,  
 A. Aspuru-Guzik,  R. Baer,  A. T. Bell,  N. A. Besley,  Jeng-Da Chai,  
 A. E. DePrince, III,  R. A. DiStasio Jr.,  A. Dreuw,  B. D. Dunietz,  
 T. R. Furlani,  Chao-Ping Hsu,  Yousung Jung,  Jing Kong,  D. S. Lambrecht,  
 WanZhen Liang,  C. Ochsenfeld,  V. A. Rassolov,  L. V. Slipchenko,  
 J. E. Subotnik,  T. Van Voorhis,  J. M. Herbert,  A. I. Krylov,  
 P. M. W. Gill,  M. Head-Gordon

 Contributors to earlier versions of Q-Chem not listed above: 
 R. D. Adamson,  B. Austin,  J. Baker,  G. J. O. Beran,  K. Brandhorst,  
 S. T. Brown,  E. F. C. Byrd,  A. K. Chakraborty,  C.-L. Cheng,  
 Siu Hung Chien,  D. M. Chipman,  D. L. Crittenden,  H. Dachsel,  
 R. J. Doerksen,  A. D. Dutoi,  L. Fusti-Molnar,  W. A. Goddard III,  
 A. Golubeva-Zadorozhnaya,  S. R. Gwaltney,  G. Hawkins,  A. Heyden,  
 S. Hirata,  G. Kedziora,  F. J. Keil,  C. Kelley,  Jihan Kim,  R. A. King,  
 R. Z. Khaliullin,  P. P. Korambath,  W. Kurlancheek,  A. M. Lee,  M. S. Lee,  
 S. V. Levchenko,  Ching Yeh Lin,  D. Liotard,  R. C. Lochan,  I. Lotan,  
 P. E. Maslen,  N. Nair,  D. P. O'Neill,  D. Neuhauser,  E. Neuscamman,  
 C. M. Oana,  R. Olson,  B. Peters,  R. Peverati,  P. A. Pieniazek,  
 Y. M. Rhee,  J. Ritchie,  M. A. Rohrdanz,  E. Rosta,  N. J. Russ,  
 H. F. Schaefer III,  N. E. Schultz,  N. Shenvi,  A. C. Simmonett,  A. Sodt,  
 D. Stuck,  K. S. Thanthiriwatte,  V. Vanovschi,  Tao Wang,  A. Warshel,  
 C. F. Williams,  Q. Wu,  X. Xu,  W. Zhang

 Please cite Q-Chem as follows:
 Y. Shao et al., Mol. Phys. 113, 184-215 (2015)
 DOI: 10.1080/00268976.2014.952696

 Q-Chem 5.2.0 for Intel X86 EM64T Linux

 Parts of Q-Chem use Armadillo 8.300.2 (Tropical Shenanigans).
 http://arma.sourceforge.net/

 Q-Chem begins on Sun Sep 26 14:30:24 2021  

Host: cori01
0

     Scratch files written to /tmp/qchem492//Frg2//
 May1019 |scratch|qcdevops|jenkins|workspace|build_RNUM -1
Processing $rem in /global/common/cori/software/qchem/5.2/config/preferences:
	 MEM_TOTAL  96000 
NAlpha2: 32
NElect   32
Mult     1
Symmetry turned off for PCM/SM12/SMD calculation

Checking the input file for inconsistencies... 	...done.

--------------------------------------------------------------
User input:
--------------------------------------------------------------
$molecule
-1 1
 6	1.6141398720	1.6917243555	0.3537098180
 6	0.1371398720	2.0457243555	0.2947098180
 8	-0.7218601280	1.1357243555	0.3057098180
 8	-0.2088601280	3.2427243555	0.2357098180
 1	1.8371398720	0.9517243555	-0.4172901820
 1	1.8341398720	1.2507243555	1.3267098180
 1	2.2756698720	2.5590243555	0.2116998180
$end
$rem
EDA2		1
METHOD		WB97X-V
BASIS		DEF2-TZVPD
XC_GRID		000099000590
NL_GRID		1
UNRESTRICTED		FALSE
MAX_SCF_CYCLES		200
SYMMETRY		FALSE
SYM_IGNORE		TRUE
BASIS_LIN_DEP_THRESH		6
THRESH		14
SCF_CONVERGENCE		8
SCF_PRINT_FRGM		TRUE
SOLVENT_METHOD		PCM
!required keywords
JOBTYPE		SP
SYM_IGNORE		TRUE
SUBSYSTEM		TRUE
GEN_SCFMAN		TRUE
CHILD_INSTRUCTION		2
SYM_IGNORE		TRUE
SCFMI		0
RI_K 0		
PARI_K 0		
MIN_PARI_K 0		
IARI_K 0		
OCC_RI_K 0		
PURECART		1111
MEM_STATIC		2000
MEM_TOTAL		96000
GUI		0
CHILD_MP		1
CHILD_MP_ORDERS		232
FRZ_RELAX		0
FRZ_RELAX_METHOD		0
EDA_CLS_ELEC		1
EDA_CLS_DISP		0
FRZ_ORTHO_DECOMP		1
EDA2		FALSE
FRGM_METHOD		FALSE
CIS_N_ROOTS  0
LOCAL_CIS    0
CIS_RLX_DNS  1
$end
$pcm
THEORY                  CPCM
METHOD                  SWIG
SOLVER                  INVERSION
RADII                   UFF
HPOINTS                 302
HEAVYPOINTS             302
PRINTLEVEL              0
$end
$solvent
DIELECTRIC              78.390000 ! water
$end
--------------------------------------------------------------
 ----------------------------------------------------------------
             Standard Nuclear Orientation (Angstroms)
    I     Atom           X                Y                Z
 ----------------------------------------------------------------
    1      C       1.6141398720     1.6917243555     0.3537098180
    2      C       0.1371398720     2.0457243555     0.2947098180
    3      O      -0.7218601280     1.1357243555     0.3057098180
    4      O      -0.2088601280     3.2427243555     0.2357098180
    5      H       1.8371398720     0.9517243555    -0.4172901820
    6      H       1.8341398720     1.2507243555     1.3267098180
    7      H       2.2756698720     2.5590243555     0.2116998180
 ----------------------------------------------------------------
 Nuclear Repulsion Energy =         112.76307100 hartrees
 There are       16 alpha and       16 beta electrons
 Requested basis set is def2-TZVPD
 There are 69 shells and 181 basis functions

 Total QAlloc Memory Limit  96000 MB
 Mega-Array Size      1956 MB
 MEM_STATIC part      2000 MB
 Discretize the solute cavity surface with Lebedev spheres
	Using 302 Lebedev grid points for each H atom
	Using 302 Lebedev grid points for other atoms
	Atomic van der Waals radii will be scaled by 1.20
 Remove points where switching function is < 1.0e-08
 Keep 1019 surface tesserae and discard 1095 interior tesserae
 Molecular Surface Area = 119.980 Angst**2

                       Distance Matrix (Angstroms)
             C (  1)   C (  2)   O (  3)   O (  4)   H (  5)   H (  6)
   C (  2)  1.519976
   O (  3)  2.401736  1.251440
   O (  4)  2.396425  1.247400  2.169682
   H (  5)  1.091682  2.143311  2.665533  3.140256
   H (  6)  1.090692  2.139359  2.754778  3.054864  1.769448
   H (  7)  1.099999  2.200836  3.319609  2.576997  1.780829  1.774780

 
 A cutoff of  1.0D-14 yielded   2391 shell pairs
 There are     16695 function pairs (     21491 Cartesian)
 Smallest overlap matrix eigenvalue = 1.61E-05

 Scale SEOQF with 1.000000e-01/1.000000e-01/1.000000e-01

 Standard Electronic Orientation quadrupole field applied
 Nucleus-field energy     =     0.0000000111 hartrees
 Guess from superposition of atomic densities
 Warning:  Energy on first SCF cycle will be non-variational
 SAD guess density has 30.625312 electrons

 -----------------------------------------------------------------------
  General SCF calculation program by
  Eric Jon Sundstrom, Paul Horn, Yuezhi Mao, Dmitri Zuev, Alec White,
  David Stuck, Shaama M.S., Shane Yost, Joonho Lee, David Small,
  Daniel Levine, Susi Lehtola, Hugh Burton, Evgeny Epifanovsky
 -----------------------------------------------------------------------
 Exchange:     0.1670 Hartree-Fock + 1.0000 wB97X-V + LR-HF
 Correlation:  1.0000 wB97X-V
 Using Euler-Maclaurin-Lebedev (99,590) quadrature formula
 Nonlocal Correlation:  VV10 with C = 0.0100 and b = 6.00 and scale = 1.00000
 Grid used for NLC:  SG-1 standard quadrature
Energy prior to optimization (guess energy) = -227.754562878503
Begin Timing: Total SCF Calculation
begin iterations for algorithm: DIIS         
the SCF tolerance is set to 1.00e-08
    1    -227.7545628785      1.67e-02     00000 
    2    -225.5132706062      2.58e-02     00000 
    3    -228.5743879624      4.16e-03     00000 
    4    -228.6340247016      1.45e-03     00000 
    5    -228.6404904885      3.54e-04     00000 
    6    -228.6408038710      2.57e-04     00000 
    7    -228.6409892145      4.79e-05     00000 
    8    -228.6410002874      1.46e-05     00000 
    9    -228.6410017165      3.02e-06     00000 
   10    -228.6410018280      4.77e-07     00000 
   11    -228.6410018309      2.26e-07     00000 
   12    -228.6410018314      6.29e-08     00000 
   13    -228.6410018314      1.79e-08     00000 
   14    -228.6410018314      2.90e-09     00000 Convergence criterion met
Timing for Total SCF: 293.00s (wall), 575.42s (cpu)

************** Final PCM Free Energy Summary **************
 G_electrostatic  =      -0.10263406 hartree =     -64.40384266 kcal/mol
 G_cavitation     =       0.00000000 hartree =       0.00000000 kcal/mol
 G_dispersion     =       0.00000000 hartree =       0.00000000 kcal/mol
 G_repulsion      =       0.00000000 hartree =       0.00000000 kcal/mol
 --------------------------------------------------
 Non-electrostatic Free Energy =       0.00000000 hartree =       0.00000000 kcal/mol
 Total                         =      -0.10263406 hartree =     -64.40384266 kcal/mol
 --------------------------------------------------
 SCF Energy (H0 + V/2)                       =    -228.64100183 
 Solute Internal Energy (H0)                 =    -228.53836777 
 Total Free Energy (H0 + V/2 + non-elec)     =    -228.64100183 hartree
                                             = -143474.39410814 kcal/mol
***********************************************************

E_pcm = -0.1026340568
Multipole orders to be included
        2
        3
computing dipole RHS
computing quadrupole RHS
total number of RHS in solve_reponses: 8
RHS batch sizes
        8
Beginning Block Conjugate Gradient Iterations. Batch Number: 0
computing hessian-vector products by finite difference
              1      7.25e-01     00000 Conjugate Gradient Iteration
computing hessian-vector products by finite difference
              2      2.62e-01     00000 Conjugate Gradient Iteration
computing hessian-vector products by finite difference
              3      7.13e-02     00000 Conjugate Gradient Iteration
computing hessian-vector products by finite difference
              4      1.93e-02     00000 Conjugate Gradient Iteration
computing hessian-vector products by finite difference
              5      3.33e-03     00000 Conjugate Gradient Iteration
computing hessian-vector products by finite difference
              6      7.85e-04     00000 Conjugate Gradient Iteration
computing hessian-vector products by finite difference
              7      1.27e-04     00000 Conjugate Gradient Iteration
computing hessian-vector products by finite difference
              8      1.52e-05     00000 Conjugate Gradient Iteration
computing hessian-vector products by finite difference
              9      2.35e-06     00000 Conjugate Gradient Iteration
computing hessian-vector products by finite difference
             10      2.68e-07     00000 Conjugate Gradient Iteration
computing hessian-vector products by finite difference
             11      8.88e-08     00000 Conjugate Gradient Iteration
computing hessian-vector products by finite difference
             12      1.63e-08     00000 Conjugate Gradient Iteration
computing hessian-vector products by finite difference
             13      1.97e-09     00000 CG Converged
batch 0 complete
Done Calculating Responses
TESTING ORTHOGONALIZATION OF MULTIPOLE BASIS
Multipole virts passed orthogonality test
Virts Per Order
        48
        80
 
 --------------------------------------------------------------
 
                    Orbital Energies (a.u.)
 --------------------------------------------------------------
 
 Alpha MOs
 -- Occupied --
-19.1197 -19.1191 -10.3237 -10.2418  -1.1336  -1.0277  -0.8311  -0.5930
 -0.5304  -0.5170  -0.5161  -0.4615  -0.4441  -0.3287  -0.3267  -0.3042
 -- Virtual --
  0.0634   0.0953   0.0955   0.1052   0.1302   0.1403   0.1435   0.1455
  0.1692   0.1903   0.1980   0.2242   0.2296   0.2357   0.2650   0.2676
  0.2989   0.3131   0.3345   0.3481   0.3522   0.3611   0.3706   0.3841
  0.3921   0.4014   0.4259   0.4262   0.4335   0.4609   0.4749   0.4786
  0.4918   0.4973   0.5055   0.5214   0.5586   0.5814   0.6040   0.6160
  0.6226   0.6410   0.6438   0.6660   0.6768   0.6788   0.6946   0.7130
  0.7214   0.7392   0.7760   0.7994   0.8106   0.8192   0.8467   0.8629
  0.8686   0.9823   0.9890   0.9975   1.0047   1.0518   1.0583   1.1329
  1.1772   1.2043   1.2619   1.2900   1.2992   1.3169   1.3448   1.3546
  1.4609   1.5690   1.6102   1.7364   1.8252   1.8642   1.8726   1.9308
  1.9316   1.9599   1.9649   1.9723   2.0185   2.1201   2.1324   2.1643
  2.2204   2.2228   2.3338   2.3510   2.4173   2.4414   2.4929   2.5149
  2.5855   2.5936   2.6172   2.6697   2.8021   2.8132   2.8736   2.9425
  2.9572   3.0088   3.0398   3.1868   3.2065   3.2500   3.2890   3.3129
  3.3415   3.3454   3.3957   3.4215   3.4264   3.5553   3.5690   3.5866
  3.6226   3.6608   3.7067   3.7582   3.7757   3.8900   3.9579   4.0479
  4.0840   4.2064   4.3600   4.5513   4.6152   4.6708   4.8104   4.8358
  4.9916   5.3363   5.3604   5.3718   5.3772   5.4896   5.7125   5.8095
  5.8301   6.0583   6.2186   6.3624   6.3711   6.6123   6.6331   6.7452
  6.7476   6.7660   6.9614   6.9899   7.0391   7.2650   7.3244   7.4072
  7.4180  22.5905  23.7552  44.2250  44.3518
 --------------------------------------------------------------
 
          Ground-State Mulliken Net Atomic Charges

     Atom                 Charge (a.u.)
  ----------------------------------------
      1 C                    -0.399574
      2 C                     0.295635
      3 O                    -0.685127
      4 O                    -0.672583
      5 H                     0.154878
      6 H                     0.141698
      7 H                     0.165073
  ----------------------------------------
  Sum of atomic charges =    -1.000000

 -----------------------------------------------------------------
                    Cartesian Multipole Moments
 -----------------------------------------------------------------
    Charge (ESU x 10^10)
                -4.8032
    Dipole Moment (Debye)
         X       3.9409      Y     -10.8954      Z      -1.2247
       Tot      11.6508
    Quadrupole Moments (Debye-Ang)
        XX     -28.8840     XY       6.4201     YY     -60.2696
        XZ       1.1378     YZ      -2.4445     ZZ     -25.7780
    Octopole Moments (Debye-Ang^2)
       XXX     -20.9861    XXY     -56.2970    XYY       5.8306
       YYY    -274.3413    XXZ      -8.7261    XYZ       1.7494
       YYZ     -15.6219    XZZ      -6.5695    YZZ     -52.2919
       ZZZ     -22.7300
    Hexadecapole Moments (Debye-Ang^3)
      XXXX    -203.0356   XXXY     -34.5397   XXYY    -166.2328
      XYYY      -6.2690   YYYY   -1173.8898   XXXZ      -9.2056
      XXYZ     -16.2954   XYYZ      -0.1813   YYYZ     -72.4938
      XXZZ     -40.6163   XYZZ     -13.0848   YYZZ    -138.3267
      XZZZ      -7.8558   YZZZ     -44.1216   ZZZZ     -48.2552
 -----------------------------------------------------------------
Archival summary:
1\1\nid00541\SP\ProcedureUnspecified\BasisUnspecified\223(1-,1)\meili\SunSep2615:50:292021SunSep2615:50:292021\0\\#,ProcedureUnspecified,BasisUnspecified,\\-1,1\C\O,1,1.2474\O,1,1.25144,2,120.518\C,1,1.51998,2,119.66,3,-179.997,0\H,4,1.09069,1,108.953,2,113.325,0\H,4,1.09168,1,109.205,2,-128.508,0\H,4,1.1,1,113.313,2,-7.2035,0\\\@

 Total job time:  4805.85s(wall), 9402.31s(cpu) 
 Sun Sep 26 15:50:30 2021

        *************************************************************
        *                                                           *
        *  Thank you very much for using Q-Chem.  Have a nice day.  *
        *                                                           *
        *************************************************************


Done Job For Fragment 1
calling putenv with: QCSCRATCH=/global/cscratch1/sd/meili 
calling putenv with: QCLOCALSCR=/tmp 
calling putenv with: QCTHREADS=32 
Doing General SCFMI
 Exchange:     0.1670 Hartree-Fock + 1.0000 wB97X-V + LR-HF
 Correlation:  1.0000 wB97X-V
 Using Euler-Maclaurin-Lebedev (99,590) quadrature formula
 Nonlocal Correlation:  VV10 with C = 0.0100 and b = 6.00 and scale = 1.00000
 Grid used for NLC:  SG-1 standard quadrature
performing fock build before subrot guess so that all methods have access
Printing subrot_rss_gen Method Specification:
Occupied Subspace Method is 0
Virtual Subspace Method is 0
Energy of the unrelaxed supersystem initial determinant -456.928531217911
performing fock build before subrot guess so that all methods have access
Printing subrot_rss_gen Method Specification:
Occupied Subspace Method is 0
Virtual Subspace Method is 0
Energy of the unrelaxed supersystem initial determinant w/ solvent -457.237478728290
write pseudocanon occs and virts to disk
write pseudocanon orbital energies to disk
Tolerance of ortho_decomp_scf: 1.00e-06
GDM subspace size: 20
Beginning the Orthogonal Decomposition of the Initial Supersystem Wavefunction
    1    -456.9654787680      1.46e-01     ortho_decomp Preconditoned Steepest Descent
    2    -456.9882497381      3.21e-03     ortho_decomp BFGS Step
    3    -456.9883146096      2.52e-04     ortho_decomp BFGS Step
    4    -456.9883147131      9.03e-06     ortho_decomp BFGS Step
    5    -456.9883147133      2.32e-07     ortho_decomp 00000 Convergence criterion met
 Hartree-Fock
 Hartree-Fock
 Hartree-Fock
Doing General SCFMI
 Exchange:     0.1670 Hartree-Fock + 1.0000 wB97X-V + LR-HF
 Correlation:  1.0000 wB97X-V
 Using Euler-Maclaurin-Lebedev (99,590) quadrature formula
 Nonlocal Correlation:  VV10 with C = 0.0100 and b = 6.00 and scale = 1.00000
 Grid used for NLC:  SG-1 standard quadrature
performing fock build at end of subrot_r(subrot) constructor so that all methods have access
<S^2> of initial wavefunction before polarization iterations 0.0000000000
Beginning iterations for the determination of the polarized wavefunction
Energy prior to optimization (guess energy) = -457.237478728290
Begin Timing: Total SCF Calculation
begin iterations for algorithm: DIIS         
the SCF tolerance is set to 1.00e-08
    1    -457.2374787283      4.75e-04     00000 
    2    -457.2419020298      4.99e-04     00000 
    3    -457.2455863225      1.14e-04     00000 
    4    -457.2459838340      4.47e-05     00000 
    5    -457.2461156989      2.40e-05     00000 
    6    -457.2461484616      1.04e-05     00000 
    7    -457.2461543894      3.64e-06     00000 
    8    -457.2461553908      1.14e-06     00000 
    9    -457.2461555324      2.85e-07     00000 
   10    -457.2461555378      2.11e-07     00000 
   11    -457.2461555387      5.90e-08     00000 
   12    -457.2461555389      1.32e-08     00000 
   13    -457.2461555389      6.59e-09     00000 Convergence criterion met
write pseudocanon occs and virts to disk
write pseudocanon orbital energies to disk
Timing for Total SCF: 1579.00s (wall), 3109.91s (cpu)
<S^2> of polarized wavefunction after polarization iterations 0.0000000000
relaxing scfmi constraint to allow all rotations in the entire AO span
Doing General SCFMI
 Exchange:     0.1670 Hartree-Fock + 1.0000 wB97X-V + LR-HF
 Correlation:  1.0000 wB97X-V
 Using Euler-Maclaurin-Lebedev (99,590) quadrature formula
 Nonlocal Correlation:  VV10 with C = 0.0100 and b = 6.00 and scale = 1.00000
 Grid used for NLC:  SG-1 standard quadrature
performing fock build at end of subrot_r(subrot) constructor so that all methods have access
<S^2> of polarized wavefunction before ct-allowed iterations 0.0000000000
Beginning iterations for the determination of the CT-Allowed wavefunction
Energy prior to optimization (guess energy) = -457.246155538896
Begin Timing: Total SCF Calculation
begin iterations for algorithm: DIIS         
the SCF tolerance is set to 1.00e-08
    1    -457.2461555389      1.39e-04     00000 
    2    -457.2472407683      1.45e-05     00000 
    3    -457.2472739817      5.71e-06     00000 
    4    -457.2472753077      4.87e-06     00000 
    5    -457.2472764602      6.02e-07     00000 
    6    -457.2472764855      2.98e-07     00000 
    7    -457.2472764944      7.03e-08     00000 
    8    -457.2472764952      2.79e-08     00000 
    9    -457.2472764954      7.87e-09     00000 Convergence criterion met
write pseudocanon occs and virts to disk
write pseudocanon orbital energies to disk
Timing for Total SCF: 1062.00s (wall), 2106.68s (cpu)
<S^2> of ct_allowed wavefunction after ct-allowed iterations 0.0000000000

================================
        Results of EDA2         
================================
Basic EDA Quantities
--------------------
Fragment Energies (Ha):
1 -228.6400656404
2 -228.6410018314
--------------------
  E_prp (kJ/mol) = 0.0000
  E_sol (kJ/mol) = -271.6714
  E_frz (kJ/mol) = 386.1150
  E_pol (kJ/mol) = -22.7812
  E_vct (kJ/mol) = -2.9431
  E_int (kJ/mol) = 88.7193
--------------------


Initial Wavefunction Decomposition
--------------------
  --------------------
  Orthogonal Fragment Subspace Decomposition:
  --------------------
     E_elec   (ELEC)   (kJ/mol) = 219.3868
     E_pauli  (PAULI)  (kJ/mol) = 192.2952
     E_disp   (DISP)   (kJ/mol) = -25.5670
     --------------------
     Terms summing to E_pauli:
     --------------------
        E_kep_pauli       (kJ/mol) = 229.1516
        E_disp_free_pauli (kJ/mol) = -36.8564
  --------------------
  Classical Frozen Decomposition:
  --------------------
     E_cls_elec  (CLS ELEC)  (kJ/mol) = 323.0598
     E_cls_pauli (CLS PAULI) (kJ/mol) = 63.0552
    [E_mod_pauli (MOD PAULI) (kJ/mol) = 88.6222 (CLS PAULI - DISP from orthogonal decomposition) ]
  --------------------
--------------------

Simplified EDA Summary (kJ/mol)
--------------------
 PREPARATION     0.0000
 SOLVATION       -271.6714
 FROZEN          411.6820      (does not include dispersion)
[PAULI           192.2952]     (if this is negligible, then frozen describes electrostatics)
 DISPERSION      -25.5670
 POLARIZATION    -22.7812
 CHARGE TRANSFER -2.9431
 TOTAL           88.7193     (PRP + SOL + FRZ + DISP + POL + CT)
--------------------
 
 --------------------------------------------------------------
 
                    Orbital Energies (a.u.)
 --------------------------------------------------------------
 
 Alpha MOs
 -- Occupied --
-19.1052 -19.1051 -19.0883 -19.0874 -10.3044 -10.3043 -10.2292 -10.2285
 -1.1152  -1.1129  -1.0082  -1.0017  -0.8167  -0.8162  -0.5787  -0.5749
 -0.5170  -0.5152  -0.5067  -0.5007  -0.4957  -0.4897  -0.4502  -0.4336
 -0.4295  -0.4262  -0.3142  -0.3111  -0.3071  -0.3023  -0.2940  -0.2536
 -- Virtual --
  0.0617   0.0762   0.0907   0.0933   0.1011   0.1161   0.1175   0.1215
  0.1365   0.1421   0.1465   0.1486   0.1637   0.1767   0.1855   0.1913
  0.1959   0.2051   0.2114   0.2156   0.2247   0.2313   0.2408   0.2460
  0.2495   0.2618   0.2655   0.2733   0.2854   0.2898   0.3097   0.3154
  0.3264   0.3324   0.3454   0.3462   0.3502   0.3596   0.3672   0.3716
  0.3773   0.3894   0.3907   0.3966   0.4015   0.4116   0.4193   0.4251
  0.4266   0.4336   0.4379   0.4425   0.4612   0.4704   0.4756   0.4828
  0.4840   0.4976   0.4983   0.5026   0.5092   0.5149   0.5226   0.5339
  0.5423   0.5497   0.5607   0.5689   0.5820   0.5853   0.5938   0.6040
  0.6078   0.6198   0.6263   0.6382   0.6421   0.6561   0.6623   0.6654
  0.6839   0.6877   0.6925   0.6984   0.7090   0.7138   0.7206   0.7248
  0.7355   0.7421   0.7480   0.7507   0.7628   0.7672   0.7747   0.7937
  0.8049   0.8107   0.8258   0.8276   0.8316   0.8420   0.8538   0.8654
  0.8725   0.8778   0.8883   0.9019   0.9093   0.9173   0.9457   0.9524
  0.9796   1.0131   1.0231   1.0268   1.0544   1.0624   1.0701   1.0789
  1.0910   1.1130   1.1180   1.1260   1.1525   1.1875   1.1995   1.2335
  1.2357   1.2539   1.2618   1.2894   1.2957   1.3232   1.3458   1.3546
  1.3648   1.3744   1.3891   1.3963   1.4253   1.4412   1.4560   1.5125
  1.5164   1.5436   1.6154   1.6240   1.6616   1.6978   1.7750   1.8016
  1.8714   1.8757   1.8976   1.9105   1.9296   1.9349   1.9748   1.9816
  1.9850   1.9892   2.0063   2.0152   2.0189   2.0253   2.0305   2.0507
  2.1050   2.1172   2.1580   2.1715   2.1875   2.1985   2.2115   2.2283
  2.2635   2.2672   2.2797   2.2913   2.3687   2.3799   2.3990   2.4304
  2.4512   2.4705   2.5079   2.5256   2.5368   2.5571   2.5719   2.5982
  2.6241   2.6327   2.6343   2.6582   2.6823   2.6942   2.7533   2.7606
  2.8327   2.8655   2.8693   2.8786   2.9008   2.9362   2.9878   2.9938
  3.0020   3.0334   3.0485   3.0745   3.1310   3.1375   3.2242   3.2371
  3.2496   3.2711   3.2978   3.3126   3.3301   3.3500   3.3630   3.3769
  3.3850   3.3927   3.4072   3.4227   3.4466   3.4487   3.4626   3.4667
  3.4911   3.5094   3.5900   3.6125   3.6302   3.6337   3.6447   3.6639
  3.6792   3.6891   3.7034   3.7399   3.7474   3.7720   3.7864   3.8051
  3.8102   3.8454   3.9422   3.9526   3.9841   4.0076   4.0956   4.1044
  4.1124   4.1182   4.2410   4.2423   4.3798   4.3967   4.5720   4.5785
  4.6587   4.6772   4.7113   4.7170   4.8457   4.8565   4.8904   4.9418
  5.0372   5.0450   5.3580   5.3599   5.3839   5.3908   5.4070   5.4095
  5.4162   5.4402   5.5088   5.5136   5.7342   5.7471   5.8368   5.8470
  5.8514   5.8588   6.0918   6.1032   6.2464   6.2598   6.3970   6.3998
  6.4224   6.4353   6.6397   6.6460   6.6743   6.6764   6.7826   6.7848
  6.7914   6.7928   6.8313   6.8488   6.9935   7.0047   7.0303   7.0350
  7.0844   7.0860   7.2885   7.3027   7.3583   7.3649   7.4297   7.4602
  7.4970   7.5339  22.6483  22.6741  23.7931  23.8126  44.2966  44.3713
 44.4476  44.4727
 --------------------------------------------------------------
 
          Ground-State Mulliken Net Atomic Charges

     Atom                 Charge (a.u.)
  ----------------------------------------
      1 C                    -0.235858
      2 C                     0.190353
      3 O                    -0.707968
      4 O                    -0.584463
      5 H                     0.091013
      6 H                     0.094895
      7 H                     0.155587
      8 C                    -0.113297
      9 C                     0.163608
     10 O                    -0.597594
     11 O                    -0.714142
     12 H                     0.037016
     13 H                     0.076265
     14 H                     0.144586
  ----------------------------------------
  Sum of atomic charges =    -2.000000

 -----------------------------------------------------------------
                    Cartesian Multipole Moments
 -----------------------------------------------------------------
    Charge (ESU x 10^10)
                -9.6064
    Dipole Moment (Debye)
         X       3.6670      Y       0.3051      Z      -4.3367
       Tot       5.6874
    Quadrupole Moments (Debye-Ang)
        XX     -55.8897     XY       5.5057     YY    -128.9548
        XZ       0.5978     YZ       1.6885     ZZ     -55.3772
    Octopole Moments (Debye-Ang^2)
       XXX      -4.9599    XXY      -6.2507    XYY      15.9978
       YYY       2.5283    XXZ       0.4673    XYZ       2.4259
       YYZ     -12.9191    XZZ      -0.3722    YZZ       4.4269
       ZZZ       6.8693
    Hexadecapole Moments (Debye-Ang^3)
      XXXX    -264.5414   XXXY     -72.9615   XXYY    -315.2131
      XYYY     -63.4139   YYYY   -2459.3566   XXXZ     -33.3682
      XXYZ     -34.7985   XYYZ      -8.6707   YYYZ    -119.9663
      XXZZ     -84.5618   XYZZ     -24.4904   YYZZ    -314.7757
      XZZZ     -33.7267   YZZZ     -95.2995   ZZZZ    -261.7815
 -----------------------------------------------------------------
Archival summary:
1\1\nid00541\SP\ProcedureUnspecified\BasisUnspecified\446(2-,1)\meili\SunSep2617:06:262021SunSep2617:06:262021\0\\#,ProcedureUnspecified,BasisUnspecified,\\-2,1\O\C,1,1.25144\O,2,1.2474,1,120.518\C,2,1.51998,1,119.822,3,179.997,0\H,4,1.09069,2,108.953,1,-66.6722,0\H,4,1.09168,2,109.205,1,51.495,0\H,4,1.1,2,113.313,1,172.8,0\O,1,2.50173,2,118.127,3,-173.574,0\C,8,1.2574,1,116.967,2,-121.224,0\O,9,1.2426,8,119.778,1,-162.022,0\C,9,1.52414,8,120.559,1,21.6857,0\H,11,1.08584,9,109.546,8,-52.8162,0\H,11,1.09394,9,109.283,8,65.3704,0\H,11,1.1,9,112.907,8,-173.798,0\\\@

 Total job time:  14240.66s(wall), 8992.95s(cpu) 
 Sun Sep 26 17:06:26 2021

        *************************************************************
        *                                                           *
        *  Thank you very much for using Q-Chem.  Have a nice day.  *
        *                                                           *
        *************************************************************


