                  Welcome to Q-Chem
     A Quantum Leap Into The Future Of Chemistry


 Q-Chem 5.2 (devel), Q-Chem, Inc., Pleasanton, CA (2019)

 Yihan Shao,  Zhengting Gan,  E. Epifanovsky,  A. T. B. Gilbert,  M. Wormit,  
 J. Kussmann,  A. W. Lange,  A. Behn,  Jia Deng,  Xintian Feng,  D. Ghosh,  
 M. Goldey,  P. R. Horn,  L. D. Jacobson,  I. Kaliman,  T. Kus,  A. Landau,  
 Jie Liu,  E. I. Proynov,  R. M. Richard,  R. P. Steele,  E. J. Sundstrom,  
 H. L. Woodcock III,  P. M. Zimmerman,  D. Zuev,  B. Albrecht,  E. Alguire,  
 S. A. Baeppler,  D. Barton,  Z. Benda,  Y. A. Bernard,  E. J. Berquist,  
 K. B. Bravaya,  H. Burton,  D. Casanova,  Chun-Min Chang,  Yunqing Chen,  
 A. Chien,  K. D. Closser,  M. P. Coons,  S. Coriani,  S. Dasgupta,  
 A. L. Dempwolff,  M. Diedenhofen,  Hainam Do,  R. G. Edgar,  Po-Tung Fang,  
 S. Faraji,  S. Fatehi,  Qingguo Feng,  K. D. Fenk,  J. Fosso-Tande,  
 J. Gayvert,  Qinghui Ge,  A. Ghysels,  G. Gidofalvi,  J. Gomes,  
 J. Gonthier,  A. Gunina,  D. Hait,  M. W. D. Hanson-Heine,  
 P. H. P. Harbach,  A. W. Hauser,  M. F. Herbst,  J. E. Herr,  
 E. G. Hohenstein,  Z. C. Holden,  Kerwin Hui,  B. C. Huynh,  T.-C. Jagau,  
 Hyunjun Ji,  B. Kaduk,  K. Khistyaev,  Jaehoon Kim,  P. Klunzinger,  K. Koh,  
 D. Kosenkov,  L. Koulias,  T. Kowalczyk,  C. M. Krauter,  A. Kunitsa,  
 Ka Un Lao,  A. Laurent,  K. V. Lawler,  Joonho Lee,  D. Lefrancois,  
 S. Lehtola,  D. S. Levine,  Yi-Pei Li,  You-Sheng Lin,  Fenglai Liu,  
 E. Livshits,  A. Luenser,  P. Manohar,  E. Mansoor,  S. F. Manzer,  
 Shan-Ping Mao,  Yuezhi Mao,  N. Mardirossian,  A. V. Marenich,  
 T. Markovich,  L. A. Martinez-Martinez,  S. A. Maurer,  N. J. Mayhall,  
 S. C. McKenzie,  J.-M. Mewes,  P. Morgante,  A. F. Morrison,  
 J. W. Mullinax,  K. Nanda,  T. S. Nguyen-Beck,  R. Olivares-Amaya,  
 J. A. Parkhill,  Zheng Pei,  T. M. Perrine,  F. Plasser,  P. Pokhilko,  
 S. Prager,  A. Prociuk,  E. Ramos,  D. R. Rehn,  F. Rob,  M. Scheurer,  
 M. Schneider,  N. Sergueev,  S. M. Sharada,  S. Sharma,  D. W. Small,  
 T. Stauch,  T. Stein,  Yu-Chuan Su,  A. J. W. Thom,  A. Tkatchenko,  
 T. Tsuchimochi,  N. M. Tubman,  L. Vogt,  M. L. Vidal,  O. Vydrov,  
 M. A. Watson,  J. Wenzel,  M. de Wergifosse,  T. A. Wesolowski,  A. White,  
 J. Witte,  A. Yamada,  Jun Yang,  K. Yao,  S. Yeganeh,  S. R. Yost,  
 Zhi-Qiang You,  A. Zech,  Igor Ying Zhang,  Xing Zhang,  Yan Zhao,  
 Ying Zhu,  B. R. Brooks,  G. K. L. Chan,  C. J. Cramer,  M. S. Gordon,  
 W. J. Hehre,  A. Klamt,  M. W. Schmidt,  C. D. Sherrill,  D. G. Truhlar,  
 A. Aspuru-Guzik,  R. Baer,  A. T. Bell,  N. A. Besley,  Jeng-Da Chai,  
 A. E. DePrince, III,  R. A. DiStasio Jr.,  A. Dreuw,  B. D. Dunietz,  
 T. R. Furlani,  Chao-Ping Hsu,  Yousung Jung,  Jing Kong,  D. S. Lambrecht,  
 WanZhen Liang,  C. Ochsenfeld,  V. A. Rassolov,  L. V. Slipchenko,  
 J. E. Subotnik,  T. Van Voorhis,  J. M. Herbert,  A. I. Krylov,  
 P. M. W. Gill,  M. Head-Gordon

 Contributors to earlier versions of Q-Chem not listed above: 
 R. D. Adamson,  B. Austin,  J. Baker,  G. J. O. Beran,  K. Brandhorst,  
 S. T. Brown,  E. F. C. Byrd,  A. K. Chakraborty,  C.-L. Cheng,  
 Siu Hung Chien,  D. M. Chipman,  D. L. Crittenden,  H. Dachsel,  
 R. J. Doerksen,  A. D. Dutoi,  L. Fusti-Molnar,  W. A. Goddard III,  
 A. Golubeva-Zadorozhnaya,  S. R. Gwaltney,  G. Hawkins,  A. Heyden,  
 S. Hirata,  G. Kedziora,  F. J. Keil,  C. Kelley,  Jihan Kim,  R. A. King,  
 R. Z. Khaliullin,  P. P. Korambath,  W. Kurlancheek,  A. M. Lee,  M. S. Lee,  
 S. V. Levchenko,  Ching Yeh Lin,  D. Liotard,  R. C. Lochan,  I. Lotan,  
 P. E. Maslen,  N. Nair,  D. P. O'Neill,  D. Neuhauser,  E. Neuscamman,  
 C. M. Oana,  R. Olson,  B. Peters,  R. Peverati,  P. A. Pieniazek,  
 Y. M. Rhee,  J. Ritchie,  M. A. Rohrdanz,  E. Rosta,  N. J. Russ,  
 H. F. Schaefer III,  N. E. Schultz,  N. Shenvi,  A. C. Simmonett,  A. Sodt,  
 D. Stuck,  K. S. Thanthiriwatte,  V. Vanovschi,  Tao Wang,  A. Warshel,  
 C. F. Williams,  Q. Wu,  X. Xu,  W. Zhang

 Please cite Q-Chem as follows:
 Y. Shao et al., Mol. Phys. 113, 184-215 (2015)
 DOI: 10.1080/00268976.2014.952696

 Q-Chem 5.2.1 for Intel X86 EM64T Linux

 Parts of Q-Chem use Armadillo 8.300.2 (Tropical Shenanigans).
 http://arma.sourceforge.net/

 Q-Chem begins on Tue Sep 28 16:46:30 2021  

compute-0-13.local
Host: 0

     Scratch files written to /home/meili/scratch/qchem18681//
NAlpha2: 120
NElect   120
Mult     1
Symmetry turned off for PCM/SM12/SMD calculation

 Q-Chem warning in module libgen/rem_setup.C, line 2813:

 Neither GIA nor STOLL is specified by user. Use STOLL as the default


Checking the input file for inconsistencies... 	...done.

--------------------------------------------------------------
User input:
--------------------------------------------------------------
$comment
SSI-030TRP-073PHE-1.pdb
$end

$molecule
0 1
--
0 1
C    4.156688886100    2.977816198824   -2.587321432044
C    0.612688886100    2.774816198824   -1.338321432044
C    1.818688886100    2.135816198824   -1.727321432044
C    2.757688886100    3.166816198824   -2.079321432044
C    2.083688886100    4.338816198824   -1.907321432044
C   -0.402311113900    0.671816198824   -0.926321432044
C   -0.501311113900    2.048816198824   -0.935321432044
C    0.765688886100    0.000816198824   -1.303321432044
C    1.894688886100    0.730816198824   -1.711321432044
N    0.805688886100    4.118816198824   -1.457321432044
H   -1.262311113900    0.092816198824   -0.628321432044
H   -1.410311113900    2.547816198824   -0.644321432044
H    0.807688886100   -1.074183801176   -1.262321432044
H    2.803688886100    0.224816198824   -2.001321432044
H    0.073688886100    4.831816198824   -1.383321432044
H    2.491688886100    5.319816198824   -2.127321432044
H    4.172688886100    3.297816198824   -3.629321432044
H    4.402688886100    1.914816198824   -2.571321432044
H    4.934448886100    3.535728198824   -2.045271432044
--
0 1
C   -1.701311113900   -5.539183801176    3.277678567956
C   -2.249311113900   -1.588183801176    1.572678567956
C   -1.226311113900   -2.420183801176    1.153678567956
C   -3.130311113900   -2.077183801176    2.531678567956
C   -1.058311113900   -3.715183801176    1.654678567956
C   -2.966311113900   -3.360183801176    3.061678567956
C   -1.918311113900   -4.197183801176    2.644678567956
H   -2.352311113900   -0.587183801176    1.185678567956
H   -0.512311113900   -2.046183801176    0.435678567956
H   -3.921311113900   -1.444183801176    2.898678567956
H   -0.222311113900   -4.312183801176    1.318678567956
H   -3.646311113900   -3.702183801176    3.829678567956
H   -2.117311113900   -5.507183801176    4.285678567956
H   -0.627311113900   -5.680183801176    3.382678567956
H   -2.140704113900   -6.406387801176    2.762998567956
$end

$rem
JOBTYPE			EDA
EDA2			1
method			wB97X-V
BASIS			def2-TZVPD
XC_GRID			000099000590
NL_GRID			1
UNRESTRICTED		FALSE
MAX_SCF_CYCLES		200
SYMMETRY		FALSE
SYM_IGNORE		TRUE
MEM_STATIC		2000
BASIS_LIN_DEP_THRESH 	6
THRESH 			14
SCF_CONVERGENCE 	8
SCF_PRINT_FRGM 		TRUE
SOLVENT_METHOD          PCM
$end

$PCM
THEORY                  CPCM
METHOD                  SWIG
SOLVER                  INVERSION
RADII                   UFF
HPOINTS                 302
HEAVYPOINTS             302
PRINTLEVEL              0
$END

$SOLVENT
DIELECTRIC              78.390000 ! water
$END
--------------------------------------------------------------
 ----------------------------------------------------------------
             Standard Nuclear Orientation (Angstroms)
    I     Atom           X                Y                Z
 ----------------------------------------------------------------
    1      C       4.1566888861     2.9778161988    -2.5873214320
    2      C       0.6126888861     2.7748161988    -1.3383214320
    3      C       1.8186888861     2.1358161988    -1.7273214320
    4      C       2.7576888861     3.1668161988    -2.0793214320
    5      C       2.0836888861     4.3388161988    -1.9073214320
    6      C      -0.4023111139     0.6718161988    -0.9263214320
    7      C      -0.5013111139     2.0488161988    -0.9353214320
    8      C       0.7656888861     0.0008161988    -1.3033214320
    9      C       1.8946888861     0.7308161988    -1.7113214320
   10      N       0.8056888861     4.1188161988    -1.4573214320
   11      H      -1.2623111139     0.0928161988    -0.6283214320
   12      H      -1.4103111139     2.5478161988    -0.6443214320
   13      H       0.8076888861    -1.0741838012    -1.2623214320
   14      H       2.8036888861     0.2248161988    -2.0013214320
   15      H       0.0736888861     4.8318161988    -1.3833214320
   16      H       2.4916888861     5.3198161988    -2.1273214320
   17      H       4.1726888861     3.2978161988    -3.6293214320
   18      H       4.4026888861     1.9148161988    -2.5713214320
   19      H       4.9344488861     3.5357281988    -2.0452714320
   20      C      -1.7013111139    -5.5391838012     3.2776785680
   21      C      -2.2493111139    -1.5881838012     1.5726785680
   22      C      -1.2263111139    -2.4201838012     1.1536785680
   23      C      -3.1303111139    -2.0771838012     2.5316785680
   24      C      -1.0583111139    -3.7151838012     1.6546785680
   25      C      -2.9663111139    -3.3601838012     3.0616785680
   26      C      -1.9183111139    -4.1971838012     2.6446785680
   27      H      -2.3523111139    -0.5871838012     1.1856785680
   28      H      -0.5123111139    -2.0461838012     0.4356785680
   29      H      -3.9213111139    -1.4441838012     2.8986785680
   30      H      -0.2223111139    -4.3121838012     1.3186785680
   31      H      -3.6463111139    -3.7021838012     3.8296785680
   32      H      -2.1173111139    -5.5071838012     4.2856785680
   33      H      -0.6273111139    -5.6801838012     3.3826785680
   34      H      -2.1407041139    -6.4063878012     2.7629985680
 ----------------------------------------------------------------
 Nuclear Repulsion Energy =        1008.52901760 hartrees
 There are       60 alpha and       60 beta electrons
 Requested basis set is def2-TZVPD
 There are 306 shells and 782 basis functions

 Total QAlloc Memory Limit   2000 MB
 Mega-Array Size      1956 MB
 MEM_STATIC part      2000 MB
 Discretize the solute cavity surface with Lebedev spheres
	Using 302 Lebedev grid points for each H atom
	Using 302 Lebedev grid points for other atoms
	Atomic van der Waals radii will be scaled by 1.20
 Remove points where switching function is < 1.0e-08
 Keep 3756 surface tesserae and discard 6512 interior tesserae
 Molecular Surface Area = 363.564 Angst**2
 A cutoff of  1.0D-14 yielded  35118 shell pairs
 There are    228420 function pairs (    289258 Cartesian)
 Smallest overlap matrix eigenvalue = 4.55E-07
 Linear dependence detected in AO basis
 Tighter screening thresholds may be required for diffuse basis sets
 Use S2THRESH > 14 and THRESH = 14 in case of SCF convergence issues
 Number of orthogonalized atomic orbitals = 777
 Maximum deviation from orthogonality = 2.326E-10

 Scale SEOQF with 1.000000e-01/1.000000e-02/1.000000e-01

 Standard Electronic Orientation quadrupole field applied
 Nucleus-field energy     =    -0.0000000265 hartrees

 -----------------------------------------------------------------------
  General SCF calculation program by
  Eric Jon Sundstrom, Paul Horn, Yuezhi Mao, Dmitri Zuev, Alec White,
  David Stuck, Shaama M.S., Shane Yost, Joonho Lee, David Small,
  Daniel Levine, Susi Lehtola, Hugh Burton, Evgeny Epifanovsky,
  Bang C. Huynh
 -----------------------------------------------------------------------
================================================================
                 ALMO-EDA with the EDA2 driver                  
================================================================
 The second-generation ALMO-EDA (for DFT):                      
 P. R. Horn, Y. Mao and M. Head-Gordon, PCCP, 18, 23067 (2016)  
 Decomposition of the frozen energy:                            
 P. R. Horn, Y. Mao and M. Head-Gordon, JCP, 144, 114107 (2016) 
 FERF model for polarization:                                   
 P. R. Horn and M. Head-Gordon, JCP, 143, 114111 (2015)         
Using eda2 option set 1
Option set summary: Frozen orbital wavefunction, initial wavefunction decomposition, and nDQ polarization.
--------------------------------
Printing EDA Options
--------------------------------
eda_child_super_basis      0
fragmo_guess_mode          0
child_mp                   1
child_mp_orders            232
cls_elec                   1
cls_disp                   0
scfmi_mode                 1
scfmi_occs                 0
scfmi_virts                0
frz_relax                  0
frz_relax_method           0
dc_pen_start               0
dc_pen_conv                0
dc_pen_increment           0
dc_pen_steps               0
dc_pen_thresh_factor       0
dc_pen_pre_newton_thresh   0
frz_ortho_decomp           1
frz_ortho_decomp_conv      6
frgm_method                2
scfmi_freeze_ss            0
separate_rehyb             0
plot_diff_den              0
eda_nocv                   0
eda_vct_relax              1
disp_free_x                0
disp_free_c                0
eda_bsse                   0
eda_pct_a                  0
eda_covp                   0
--------------------------------
Attempting to make child job directory: /home/meili/scratch/qchem18681//Frg1/
Attempting to make child job directory: /home/meili/scratch/qchem18681//Frg2/
Creating input file /home/meili/scratch/qchem18681/Frg1.input
using default PutDataFrgm: nothing
calling putenv with: QCSCRATCH=/home/meili/scratch/qchem18681/ 
Spawning Job For Fragment 0
                  Welcome to Q-Chem
     A Quantum Leap Into The Future Of Chemistry


 Q-Chem 5.2 (devel), Q-Chem, Inc., Pleasanton, CA (2019)

 Yihan Shao,  Zhengting Gan,  E. Epifanovsky,  A. T. B. Gilbert,  M. Wormit,  
 J. Kussmann,  A. W. Lange,  A. Behn,  Jia Deng,  Xintian Feng,  D. Ghosh,  
 M. Goldey,  P. R. Horn,  L. D. Jacobson,  I. Kaliman,  T. Kus,  A. Landau,  
 Jie Liu,  E. I. Proynov,  R. M. Richard,  R. P. Steele,  E. J. Sundstrom,  
 H. L. Woodcock III,  P. M. Zimmerman,  D. Zuev,  B. Albrecht,  E. Alguire,  
 S. A. Baeppler,  D. Barton,  Z. Benda,  Y. A. Bernard,  E. J. Berquist,  
 K. B. Bravaya,  H. Burton,  D. Casanova,  Chun-Min Chang,  Yunqing Chen,  
 A. Chien,  K. D. Closser,  M. P. Coons,  S. Coriani,  S. Dasgupta,  
 A. L. Dempwolff,  M. Diedenhofen,  Hainam Do,  R. G. Edgar,  Po-Tung Fang,  
 S. Faraji,  S. Fatehi,  Qingguo Feng,  K. D. Fenk,  J. Fosso-Tande,  
 J. Gayvert,  Qinghui Ge,  A. Ghysels,  G. Gidofalvi,  J. Gomes,  
 J. Gonthier,  A. Gunina,  D. Hait,  M. W. D. Hanson-Heine,  
 P. H. P. Harbach,  A. W. Hauser,  M. F. Herbst,  J. E. Herr,  
 E. G. Hohenstein,  Z. C. Holden,  Kerwin Hui,  B. C. Huynh,  T.-C. Jagau,  
 Hyunjun Ji,  B. Kaduk,  K. Khistyaev,  Jaehoon Kim,  P. Klunzinger,  K. Koh,  
 D. Kosenkov,  L. Koulias,  T. Kowalczyk,  C. M. Krauter,  A. Kunitsa,  
 Ka Un Lao,  A. Laurent,  K. V. Lawler,  Joonho Lee,  D. Lefrancois,  
 S. Lehtola,  D. S. Levine,  Yi-Pei Li,  You-Sheng Lin,  Fenglai Liu,  
 E. Livshits,  A. Luenser,  P. Manohar,  E. Mansoor,  S. F. Manzer,  
 Shan-Ping Mao,  Yuezhi Mao,  N. Mardirossian,  A. V. Marenich,  
 T. Markovich,  L. A. Martinez-Martinez,  S. A. Maurer,  N. J. Mayhall,  
 S. C. McKenzie,  J.-M. Mewes,  P. Morgante,  A. F. Morrison,  
 J. W. Mullinax,  K. Nanda,  T. S. Nguyen-Beck,  R. Olivares-Amaya,  
 J. A. Parkhill,  Zheng Pei,  T. M. Perrine,  F. Plasser,  P. Pokhilko,  
 S. Prager,  A. Prociuk,  E. Ramos,  D. R. Rehn,  F. Rob,  M. Scheurer,  
 M. Schneider,  N. Sergueev,  S. M. Sharada,  S. Sharma,  D. W. Small,  
 T. Stauch,  T. Stein,  Yu-Chuan Su,  A. J. W. Thom,  A. Tkatchenko,  
 T. Tsuchimochi,  N. M. Tubman,  L. Vogt,  M. L. Vidal,  O. Vydrov,  
 M. A. Watson,  J. Wenzel,  M. de Wergifosse,  T. A. Wesolowski,  A. White,  
 J. Witte,  A. Yamada,  Jun Yang,  K. Yao,  S. Yeganeh,  S. R. Yost,  
 Zhi-Qiang You,  A. Zech,  Igor Ying Zhang,  Xing Zhang,  Yan Zhao,  
 Ying Zhu,  B. R. Brooks,  G. K. L. Chan,  C. J. Cramer,  M. S. Gordon,  
 W. J. Hehre,  A. Klamt,  M. W. Schmidt,  C. D. Sherrill,  D. G. Truhlar,  
 A. Aspuru-Guzik,  R. Baer,  A. T. Bell,  N. A. Besley,  Jeng-Da Chai,  
 A. E. DePrince, III,  R. A. DiStasio Jr.,  A. Dreuw,  B. D. Dunietz,  
 T. R. Furlani,  Chao-Ping Hsu,  Yousung Jung,  Jing Kong,  D. S. Lambrecht,  
 WanZhen Liang,  C. Ochsenfeld,  V. A. Rassolov,  L. V. Slipchenko,  
 J. E. Subotnik,  T. Van Voorhis,  J. M. Herbert,  A. I. Krylov,  
 P. M. W. Gill,  M. Head-Gordon

 Contributors to earlier versions of Q-Chem not listed above: 
 R. D. Adamson,  B. Austin,  J. Baker,  G. J. O. Beran,  K. Brandhorst,  
 S. T. Brown,  E. F. C. Byrd,  A. K. Chakraborty,  C.-L. Cheng,  
 Siu Hung Chien,  D. M. Chipman,  D. L. Crittenden,  H. Dachsel,  
 R. J. Doerksen,  A. D. Dutoi,  L. Fusti-Molnar,  W. A. Goddard III,  
 A. Golubeva-Zadorozhnaya,  S. R. Gwaltney,  G. Hawkins,  A. Heyden,  
 S. Hirata,  G. Kedziora,  F. J. Keil,  C. Kelley,  Jihan Kim,  R. A. King,  
 R. Z. Khaliullin,  P. P. Korambath,  W. Kurlancheek,  A. M. Lee,  M. S. Lee,  
 S. V. Levchenko,  Ching Yeh Lin,  D. Liotard,  R. C. Lochan,  I. Lotan,  
 P. E. Maslen,  N. Nair,  D. P. O'Neill,  D. Neuhauser,  E. Neuscamman,  
 C. M. Oana,  R. Olson,  B. Peters,  R. Peverati,  P. A. Pieniazek,  
 Y. M. Rhee,  J. Ritchie,  M. A. Rohrdanz,  E. Rosta,  N. J. Russ,  
 H. F. Schaefer III,  N. E. Schultz,  N. Shenvi,  A. C. Simmonett,  A. Sodt,  
 D. Stuck,  K. S. Thanthiriwatte,  V. Vanovschi,  Tao Wang,  A. Warshel,  
 C. F. Williams,  Q. Wu,  X. Xu,  W. Zhang

 Please cite Q-Chem as follows:
 Y. Shao et al., Mol. Phys. 113, 184-215 (2015)
 DOI: 10.1080/00268976.2014.952696

 Q-Chem 5.2.1 for Intel X86 EM64T Linux

 Parts of Q-Chem use Armadillo 8.300.2 (Tropical Shenanigans).
 http://arma.sourceforge.net/

 Q-Chem begins on Tue Sep 28 16:46:36 2021  

compute-0-13.local
Host: 0

     Scratch files written to /home/meili/scratch/qchem18681//Frg1//
NAlpha2: 70
NElect   70
Mult     1
Symmetry turned off for PCM/SM12/SMD calculation

Checking the input file for inconsistencies... 	...done.

--------------------------------------------------------------
User input:
--------------------------------------------------------------
$molecule
0 1
 6	4.1566888861	2.9778161988	-2.5873214320
 6	0.6126888861	2.7748161988	-1.3383214320
 6	1.8186888861	2.1358161988	-1.7273214320
 6	2.7576888861	3.1668161988	-2.0793214320
 6	2.0836888861	4.3388161988	-1.9073214320
 6	-0.4023111139	0.6718161988	-0.9263214320
 6	-0.5013111139	2.0488161988	-0.9353214320
 6	0.7656888861	0.0008161988	-1.3033214320
 6	1.8946888861	0.7308161988	-1.7113214320
 7	0.8056888861	4.1188161988	-1.4573214320
 1	-1.2623111139	0.0928161988	-0.6283214320
 1	-1.4103111139	2.5478161988	-0.6443214320
 1	0.8076888861	-1.0741838012	-1.2623214320
 1	2.8036888861	0.2248161988	-2.0013214320
 1	0.0736888861	4.8318161988	-1.3833214320
 1	2.4916888861	5.3198161988	-2.1273214320
 1	4.1726888861	3.2978161988	-3.6293214320
 1	4.4026888861	1.9148161988	-2.5713214320
 1	4.9344488861	3.5357281988	-2.0452714320
$end
$rem
EDA2		1
METHOD		WB97X-V
BASIS		DEF2-TZVPD
XC_GRID		000099000590
NL_GRID		1
UNRESTRICTED		FALSE
MAX_SCF_CYCLES		200
SYMMETRY		FALSE
SYM_IGNORE		TRUE
BASIS_LIN_DEP_THRESH		6
THRESH		14
SCF_CONVERGENCE		8
SCF_PRINT_FRGM		TRUE
SOLVENT_METHOD		PCM
!required keywords
JOBTYPE		SP
SYM_IGNORE		TRUE
SUBSYSTEM		TRUE
GEN_SCFMAN		TRUE
CHILD_INSTRUCTION		2
SYM_IGNORE		TRUE
SCFMI		0
RI_K 0		
PARI_K 0		
MIN_PARI_K 0		
IARI_K 0		
OCC_RI_K 0		
PURECART		1111
MEM_STATIC		2000
MEM_TOTAL		2000
GUI		0
CHILD_MP		1
CHILD_MP_ORDERS		232
FRZ_RELAX		0
FRZ_RELAX_METHOD		0
EDA_CLS_ELEC		1
EDA_CLS_DISP		0
FRZ_ORTHO_DECOMP		1
EDA2		FALSE
FRGM_METHOD		FALSE
CIS_N_ROOTS  0
LOCAL_CIS    0
CIS_RLX_DNS  1
$end
$pcm
THEORY                  CPCM
METHOD                  SWIG
SOLVER                  INVERSION
RADII                   UFF
HPOINTS                 302
HEAVYPOINTS             302
PRINTLEVEL              0
$end
$solvent
DIELECTRIC              78.390000 ! water
$end
--------------------------------------------------------------
 ----------------------------------------------------------------
             Standard Nuclear Orientation (Angstroms)
    I     Atom           X                Y                Z
 ----------------------------------------------------------------
    1      C       4.1566888861     2.9778161988    -2.5873214320
    2      C       0.6126888861     2.7748161988    -1.3383214320
    3      C       1.8186888861     2.1358161988    -1.7273214320
    4      C       2.7576888861     3.1668161988    -2.0793214320
    5      C       2.0836888861     4.3388161988    -1.9073214320
    6      C      -0.4023111139     0.6718161988    -0.9263214320
    7      C      -0.5013111139     2.0488161988    -0.9353214320
    8      C       0.7656888861     0.0008161988    -1.3033214320
    9      C       1.8946888861     0.7308161988    -1.7113214320
   10      N       0.8056888861     4.1188161988    -1.4573214320
   11      H      -1.2623111139     0.0928161988    -0.6283214320
   12      H      -1.4103111139     2.5478161988    -0.6443214320
   13      H       0.8076888861    -1.0741838012    -1.2623214320
   14      H       2.8036888861     0.2248161988    -2.0013214320
   15      H       0.0736888861     4.8318161988    -1.3833214320
   16      H       2.4916888861     5.3198161988    -2.1273214320
   17      H       4.1726888861     3.2978161988    -3.6293214320
   18      H       4.4026888861     1.9148161988    -2.5713214320
   19      H       4.9344488861     3.5357281988    -2.0452714320
 ----------------------------------------------------------------
 Nuclear Repulsion Energy =         484.79055668 hartrees
 There are       35 alpha and       35 beta electrons
 Requested basis set is def2-TZVPD
 There are 175 shells and 451 basis functions

 Total QAlloc Memory Limit   2000 MB
 Mega-Array Size      1956 MB
 MEM_STATIC part      2000 MB
 Discretize the solute cavity surface with Lebedev spheres
	Using 302 Lebedev grid points for each H atom
	Using 302 Lebedev grid points for other atoms
	Atomic van der Waals radii will be scaled by 1.20
 Remove points where switching function is < 1.0e-08
 Keep 2196 surface tesserae and discard 3542 interior tesserae
 Molecular Surface Area = 214.472 Angst**2
 A cutoff of  1.0D-14 yielded  14465 shell pairs
 There are     98239 function pairs (    126411 Cartesian)
 Smallest overlap matrix eigenvalue = 5.18E-07
 Linear dependence detected in AO basis
 Tighter screening thresholds may be required for diffuse basis sets
 Use S2THRESH > 14 and THRESH = 14 in case of SCF convergence issues
 Number of orthogonalized atomic orbitals = 448
 Maximum deviation from orthogonality = 1.415E-10

 Scale SEOQF with 1.000000e-01/1.000000e-02/1.000000e-01

 Standard Electronic Orientation quadrupole field applied
 Nucleus-field energy     =    -0.0000000073 hartrees
 Guess from superposition of atomic densities
 Warning:  Energy on first SCF cycle will be non-variational
 SAD guess density has 70.000000 electrons

 -----------------------------------------------------------------------
  General SCF calculation program by
  Eric Jon Sundstrom, Paul Horn, Yuezhi Mao, Dmitri Zuev, Alec White,
  David Stuck, Shaama M.S., Shane Yost, Joonho Lee, David Small,
  Daniel Levine, Susi Lehtola, Hugh Burton, Evgeny Epifanovsky,
  Bang C. Huynh
 -----------------------------------------------------------------------
 Exchange:     0.1670 Hartree-Fock + 1.0000 wB97X-V + LR-HF
 Correlation:  1.0000 wB97X-V
 Using Euler-Maclaurin-Lebedev (99,590) quadrature formula
 Nonlocal Correlation:  VV10 with C = 0.0100 and b = 6.00 and scale = 1.00000
 Grid used for NLC:  SG-1 standard quadrature
Energy prior to optimization (guess energy) = -403.079391518022
Begin Timing: Total SCF Calculation
begin iterations for algorithm: DIIS         
the SCF tolerance is set to 1.00e-08
    1    -403.0793915180      1.66e-03     00000 
    2    -403.1279181149      1.20e-03     00000 
    3    -403.1653318487      2.58e-04     00000 
    4    -403.1668679504      1.21e-04     00000 
    5    -403.1672389821      2.50e-05     00000 
    6    -403.1672593721      9.62e-06     00000 
    7    -403.1672621379      2.93e-06     00000 
    8    -403.1672626199      7.00e-07     00000 
    9    -403.1672626824      3.15e-07     00000 
   10    -403.1672626961      1.55e-07     00000 
   11    -403.1672626994      6.41e-08     00000 
   12    -403.1672626999      2.14e-08     00000 
   13    -403.1672627000      1.03e-08     00000 
   14    -403.1672627000      2.56e-09     00000 Convergence criterion met
Timing for Total SCF: 1670.00s (wall), 9834.63s (cpu)

************** Final PCM Free Energy Summary **************
 G_electrostatic  =      -0.00656862 hartree =      -4.12187230 kcal/mol
 G_cavitation     =       0.00000000 hartree =       0.00000000 kcal/mol
 G_dispersion     =       0.00000000 hartree =       0.00000000 kcal/mol
 G_repulsion      =       0.00000000 hartree =       0.00000000 kcal/mol
 --------------------------------------------------
 Non-electrostatic Free Energy =       0.00000000 hartree =       0.00000000 kcal/mol
 Total                         =      -0.00656862 hartree =      -4.12187230 kcal/mol
 --------------------------------------------------
 SCF Energy (H0 + V/2)                       =    -403.16726270 
 Solute Internal Energy (H0)                 =    -403.16069408 
 Total Free Energy (H0 + V/2 + non-elec)     =    -403.16726270 hartree
                                             = -252991.27574138 kcal/mol
***********************************************************

E_pcm = -0.0065686217
Multipole orders to be included
        2
        3
computing dipole RHS
computing quadrupole RHS
total number of RHS in solve_reponses: 8
RHS batch sizes
        8
Beginning Block Conjugate Gradient Iterations. Batch Number: 0
computing hessian-vector products by finite difference
              1      6.33e-01     00000 Conjugate Gradient Iteration
computing hessian-vector products by finite difference
              2      2.17e-01     00000 Conjugate Gradient Iteration
computing hessian-vector products by finite difference
              3      6.46e-02     00000 Conjugate Gradient Iteration
computing hessian-vector products by finite difference
              4      2.25e-02     00000 Conjugate Gradient Iteration
computing hessian-vector products by finite difference
              5      6.78e-03     00000 Conjugate Gradient Iteration
computing hessian-vector products by finite difference
              6      2.21e-03     00000 Conjugate Gradient Iteration
computing hessian-vector products by finite difference
              7      4.86e-04     00000 Conjugate Gradient Iteration
computing hessian-vector products by finite difference
              8      9.88e-05     00000 Conjugate Gradient Iteration
computing hessian-vector products by finite difference
              9      1.81e-05     00000 Conjugate Gradient Iteration
computing hessian-vector products by finite difference
             10      3.82e-06     00000 Conjugate Gradient Iteration
computing hessian-vector products by finite difference
             11      7.78e-07     00000 Conjugate Gradient Iteration
computing hessian-vector products by finite difference
             12      1.72e-07     00000 Conjugate Gradient Iteration
computing hessian-vector products by finite difference
             13      4.99e-08     00000 Conjugate Gradient Iteration
computing hessian-vector products by finite difference
             14      1.11e-08     00000 Conjugate Gradient Iteration
computing hessian-vector products by finite difference
             15      1.76e-09     00000 CG Converged
batch 0 complete
Done Calculating Responses
TESTING ORTHOGONALIZATION OF MULTIPOLE BASIS
Multipole virts passed orthogonality test
Virts Per Order
          105
          175

 --------------------------------------------------------------

                    Orbital Energies (a.u.)
 --------------------------------------------------------------

 Alpha MOs
 -- Occupied --
-14.4520 -10.3017 -10.2954 -10.2733 -10.2708 -10.2684 -10.2671 -10.2656
-10.2635 -10.2632  -1.1188  -0.9785  -0.9324  -0.8688  -0.8607  -0.8193
 -0.7473  -0.7134  -0.6788  -0.6542  -0.5994  -0.5840  -0.5568  -0.5510
 -0.5413  -0.5165  -0.5129  -0.4964  -0.4789  -0.4541  -0.4524  -0.4345
 -0.3791  -0.3161  -0.2911
 -- Virtual --
  0.0532   0.0599   0.0747   0.0764   0.0909   0.0972   0.0992   0.1053
  0.1260   0.1269   0.1338   0.1455   0.1605   0.1642   0.1746   0.1783
  0.1860   0.1881   0.1986   0.2049   0.2200   0.2229   0.2247   0.2386
  0.2456   0.2525   0.2588   0.2597   0.2659   0.2739   0.2741   0.2762
  0.2802   0.2842   0.2889   0.2919   0.2986   0.3033   0.3122   0.3177
  0.3214   0.3272   0.3352   0.3373   0.3399   0.3422   0.3451   0.3546
  0.3598   0.3657   0.3730   0.3744   0.3778   0.3831   0.3887   0.3902
  0.4036   0.4062   0.4097   0.4132   0.4155   0.4217   0.4247   0.4313
  0.4373   0.4395   0.4480   0.4559   0.4595   0.4614   0.4734   0.4765
  0.4859   0.4914   0.4949   0.4970   0.4990   0.5061   0.5158   0.5219
  0.5278   0.5372   0.5404   0.5466   0.5487   0.5514   0.5612   0.5646
  0.5670   0.5714   0.5808   0.5843   0.5950   0.6122   0.6162   0.6258
  0.6352   0.6415   0.6439   0.6449   0.6563   0.6667   0.6705   0.6784
  0.6829   0.6904   0.7034   0.7068   0.7137   0.7190   0.7282   0.7344
  0.7354   0.7427   0.7459   0.7513   0.7549   0.7627   0.7675   0.7761
  0.7796   0.7851   0.7932   0.7997   0.8019   0.8045   0.8124   0.8136
  0.8212   0.8294   0.8308   0.8321   0.8376   0.8481   0.8538   0.8622
  0.8692   0.8808   0.8915   0.8980   0.9004   0.9176   0.9235   0.9329
  0.9414   0.9489   0.9662   0.9863   0.9896   1.0006   1.0172   1.0248
  1.0301   1.0419   1.0505   1.0577   1.0657   1.0759   1.0818   1.0871
  1.1054   1.1192   1.1292   1.1387   1.1539   1.1836   1.1944   1.2093
  1.2200   1.2342   1.2566   1.2766   1.3019   1.3223   1.3484   1.3549
  1.3724   1.3931   1.3990   1.4197   1.4339   1.4488   1.4611   1.4686
  1.5110   1.5393   1.5544   1.5625   1.5730   1.5891   1.6015   1.6200
  1.6407   1.6646   1.6948   1.7090   1.7240   1.7341   1.7404   1.7605
  1.7831   1.8042   1.8248   1.8444   1.8563   1.8631   1.8822   1.8921
  1.8965   1.9151   1.9308   1.9453   1.9556   1.9626   1.9729   1.9785
  1.9955   1.9976   2.0086   2.0277   2.0402   2.0486   2.0627   2.0825
  2.0941   2.1213   2.1387   2.1697   2.1820   2.2023   2.2114   2.2212
  2.2344   2.2616   2.3002   2.3114   2.3194   2.3418   2.3825   2.3953
  2.4058   2.4301   2.4502   2.4600   2.4675   2.4826   2.5181   2.5418
  2.5589   2.5652   2.5969   2.6112   2.6299   2.6467   2.6621   2.6689
  2.6765   2.7388   2.7457   2.7690   2.7696   2.7919   2.8046   2.8138
  2.8175   2.8310   2.8469   2.8661   2.8763   2.8896   2.8957   2.9151
  2.9238   2.9425   2.9544   2.9638   2.9760   2.9892   3.0155   3.0246
  3.0381   3.0569   3.0720   3.0779   3.0826   3.1151   3.1504   3.1589
  3.1709   3.1960   3.2003   3.2062   3.2262   3.2480   3.2575   3.2677
  3.2839   3.2947   3.3230   3.3307   3.3479   3.3628   3.3751   3.3863
  3.4028   3.4055   3.4291   3.4362   3.4437   3.4510   3.4592   3.4769
  3.4819   3.4898   3.5145   3.5178   3.5216   3.5243   3.5551   3.5680
  3.5784   3.5897   3.6147   3.6181   3.6317   3.6451   3.6613   3.6782
  3.7041   3.7094   3.7203   3.7236   3.7511   3.7686   3.7850   3.7952
  3.8055   3.8610   3.8698   3.8886   3.9222   3.9624   3.9908   4.0238
  4.0429   4.0594   4.0994   4.1492   4.1598   4.1947   4.2163   4.2398
  4.2473   4.2661   4.2855   4.2979   4.3143   4.3391   4.3584   4.3799
  4.4054   4.4204   4.4225   4.4520   4.4716   4.5320   4.5519   4.5679
  4.6135   4.6450   4.6617   4.7520   4.7838   4.8063   4.8367   4.8988
  4.9266   4.9596   4.9667   4.9899   5.0007   5.0486   5.0695   5.1185
  5.1355   5.1654   5.1985   5.2135   5.2899   5.3697   5.4145   5.4540
  5.5086   5.5380   5.5900   5.6387   5.7073   5.7960   5.8178   5.9356
  5.9722   6.2483   6.3443  22.6667  22.7557  22.9263  22.9515  22.9636
 23.1927  23.2683  23.4566  23.7873  32.8284
 --------------------------------------------------------------

          Ground-State Mulliken Net Atomic Charges

     Atom                 Charge (a.u.)
  ----------------------------------------
      1 C                    -1.002217
      2 C                    -0.138184
      3 C                     0.435885
      4 C                     0.872008
      5 C                    -0.760916
      6 C                    -0.361202
      7 C                    -0.609165
      8 C                    -0.604511
      9 C                    -0.470311
     10 N                     0.148538
     11 H                     0.338203
     12 H                     0.340575
     13 H                     0.352528
     14 H                     0.297087
     15 H                     0.221854
     16 H                     0.256614
     17 H                     0.207751
     18 H                     0.230520
     19 H                     0.244943
  ----------------------------------------
  Sum of atomic charges =     0.000000

 -----------------------------------------------------------------
                    Cartesian Multipole Moments
 -----------------------------------------------------------------
    Charge (ESU x 10^10)
                 0.0000
    Dipole Moment (Debye)
         X      -0.5662      Y       2.6945      Z      -0.2908
       Tot       2.7687
    Quadrupole Moments (Debye-Ang)
        XX     -54.6946     XY      -0.6922     YY     -36.6508
        XZ      -3.0119     YZ      -5.4274     ZZ     -62.5953
    Octopole Moments (Debye-Ang^2)
       XXX    -241.8648    XXY    -121.7715    XYY     -78.4074
       YYY    -274.4490    XXZ      81.7496    XYZ      -8.6836
       YYZ      55.6894    XZZ     -79.7693    YZZ    -132.1660
       ZZZ     302.9576
    Hexadecapole Moments (Debye-Ang^3)
      XXXX   -1541.6719   XXXY    -671.3041   XXYY    -643.9166
      XYYY    -651.0210   YYYY   -1948.0065   XXXZ     507.1569
      XXYZ     197.0486   XYYZ     134.4339   YYYZ     483.0933
      XXZZ    -427.6726   XYZZ    -220.1616   YYZZ    -587.0472
      XZZZ     554.2690   YZZZ     729.1444   ZZZZ   -1160.3829
 -----------------------------------------------------------------
Archival summary:
1\1\compute-0-13.local\SP\ProcedureUnspecified\BasisUnspecified\199\meili\WedSep2901:39:502021WedSep2901:39:502021\0\\#,ProcedureUnspecified,BasisUnspecified,\\0,1\C\C,1,1.40714\H,2,1.08001,1,120.678\C,2,1.40499,1,118.6,3,179.661,0\H,4,1.0766,2,119.902,1,-178.651,0\C,4,1.39878,2,120.001,1,0.110205,0\H,6,1.07872,4,118.861,2,179.225,0\C,6,1.38058,4,122.451,2,-0.0365201,0\H,8,1.07702,6,121.391,4,179.816,0\C,8,1.38942,6,117.747,4,0.0464111,0\N,10,1.36299,8,130.851,6,179.406,0\H,11,1.02453,10,125.363,8,-9.31611,0\C,11,1.37266,10,108.572,8,-179.482,0\H,13,1.085,11,124.159,10,177.536,0\C,13,1.36288,11,111.345,10,-0.646673,0\C,15,1.50033,13,127.749,11,178.303,0\H,16,1.09015,15,107.478,13,-65.8625,0\H,16,1.09121,15,109.145,13,178.127,0\H,16,1.1,15,115.376,13,54.8749,0\\\@

 Total job time:  31994.01s(wall), 190096.25s(cpu) 
 Wed Sep 29 01:39:50 2021

        *************************************************************
        *                                                           *
        *  Thank you very much for using Q-Chem.  Have a nice day.  *
        *                                                           *
        *************************************************************


Done Job For Fragment 0
calling putenv with: QCSCRATCH=/home/meili/scratch 
calling putenv with: QCTHREADS=8 
Creating input file /home/meili/scratch/qchem18681/Frg2.input
using default PutDataFrgm: nothing
calling putenv with: QCSCRATCH=/home/meili/scratch/qchem18681/ 
Spawning Job For Fragment 1
                  Welcome to Q-Chem
     A Quantum Leap Into The Future Of Chemistry


 Q-Chem 5.2 (devel), Q-Chem, Inc., Pleasanton, CA (2019)

 Yihan Shao,  Zhengting Gan,  E. Epifanovsky,  A. T. B. Gilbert,  M. Wormit,  
 J. Kussmann,  A. W. Lange,  A. Behn,  Jia Deng,  Xintian Feng,  D. Ghosh,  
 M. Goldey,  P. R. Horn,  L. D. Jacobson,  I. Kaliman,  T. Kus,  A. Landau,  
 Jie Liu,  E. I. Proynov,  R. M. Richard,  R. P. Steele,  E. J. Sundstrom,  
 H. L. Woodcock III,  P. M. Zimmerman,  D. Zuev,  B. Albrecht,  E. Alguire,  
 S. A. Baeppler,  D. Barton,  Z. Benda,  Y. A. Bernard,  E. J. Berquist,  
 K. B. Bravaya,  H. Burton,  D. Casanova,  Chun-Min Chang,  Yunqing Chen,  
 A. Chien,  K. D. Closser,  M. P. Coons,  S. Coriani,  S. Dasgupta,  
 A. L. Dempwolff,  M. Diedenhofen,  Hainam Do,  R. G. Edgar,  Po-Tung Fang,  
 S. Faraji,  S. Fatehi,  Qingguo Feng,  K. D. Fenk,  J. Fosso-Tande,  
 J. Gayvert,  Qinghui Ge,  A. Ghysels,  G. Gidofalvi,  J. Gomes,  
 J. Gonthier,  A. Gunina,  D. Hait,  M. W. D. Hanson-Heine,  
 P. H. P. Harbach,  A. W. Hauser,  M. F. Herbst,  J. E. Herr,  
 E. G. Hohenstein,  Z. C. Holden,  Kerwin Hui,  B. C. Huynh,  T.-C. Jagau,  
 Hyunjun Ji,  B. Kaduk,  K. Khistyaev,  Jaehoon Kim,  P. Klunzinger,  K. Koh,  
 D. Kosenkov,  L. Koulias,  T. Kowalczyk,  C. M. Krauter,  A. Kunitsa,  
 Ka Un Lao,  A. Laurent,  K. V. Lawler,  Joonho Lee,  D. Lefrancois,  
 S. Lehtola,  D. S. Levine,  Yi-Pei Li,  You-Sheng Lin,  Fenglai Liu,  
 E. Livshits,  A. Luenser,  P. Manohar,  E. Mansoor,  S. F. Manzer,  
 Shan-Ping Mao,  Yuezhi Mao,  N. Mardirossian,  A. V. Marenich,  
 T. Markovich,  L. A. Martinez-Martinez,  S. A. Maurer,  N. J. Mayhall,  
 S. C. McKenzie,  J.-M. Mewes,  P. Morgante,  A. F. Morrison,  
 J. W. Mullinax,  K. Nanda,  T. S. Nguyen-Beck,  R. Olivares-Amaya,  
 J. A. Parkhill,  Zheng Pei,  T. M. Perrine,  F. Plasser,  P. Pokhilko,  
 S. Prager,  A. Prociuk,  E. Ramos,  D. R. Rehn,  F. Rob,  M. Scheurer,  
 M. Schneider,  N. Sergueev,  S. M. Sharada,  S. Sharma,  D. W. Small,  
 T. Stauch,  T. Stein,  Yu-Chuan Su,  A. J. W. Thom,  A. Tkatchenko,  
 T. Tsuchimochi,  N. M. Tubman,  L. Vogt,  M. L. Vidal,  O. Vydrov,  
 M. A. Watson,  J. Wenzel,  M. de Wergifosse,  T. A. Wesolowski,  A. White,  
 J. Witte,  A. Yamada,  Jun Yang,  K. Yao,  S. Yeganeh,  S. R. Yost,  
 Zhi-Qiang You,  A. Zech,  Igor Ying Zhang,  Xing Zhang,  Yan Zhao,  
 Ying Zhu,  B. R. Brooks,  G. K. L. Chan,  C. J. Cramer,  M. S. Gordon,  
 W. J. Hehre,  A. Klamt,  M. W. Schmidt,  C. D. Sherrill,  D. G. Truhlar,  
 A. Aspuru-Guzik,  R. Baer,  A. T. Bell,  N. A. Besley,  Jeng-Da Chai,  
 A. E. DePrince, III,  R. A. DiStasio Jr.,  A. Dreuw,  B. D. Dunietz,  
 T. R. Furlani,  Chao-Ping Hsu,  Yousung Jung,  Jing Kong,  D. S. Lambrecht,  
 WanZhen Liang,  C. Ochsenfeld,  V. A. Rassolov,  L. V. Slipchenko,  
 J. E. Subotnik,  T. Van Voorhis,  J. M. Herbert,  A. I. Krylov,  
 P. M. W. Gill,  M. Head-Gordon

 Contributors to earlier versions of Q-Chem not listed above: 
 R. D. Adamson,  B. Austin,  J. Baker,  G. J. O. Beran,  K. Brandhorst,  
 S. T. Brown,  E. F. C. Byrd,  A. K. Chakraborty,  C.-L. Cheng,  
 Siu Hung Chien,  D. M. Chipman,  D. L. Crittenden,  H. Dachsel,  
 R. J. Doerksen,  A. D. Dutoi,  L. Fusti-Molnar,  W. A. Goddard III,  
 A. Golubeva-Zadorozhnaya,  S. R. Gwaltney,  G. Hawkins,  A. Heyden,  
 S. Hirata,  G. Kedziora,  F. J. Keil,  C. Kelley,  Jihan Kim,  R. A. King,  
 R. Z. Khaliullin,  P. P. Korambath,  W. Kurlancheek,  A. M. Lee,  M. S. Lee,  
 S. V. Levchenko,  Ching Yeh Lin,  D. Liotard,  R. C. Lochan,  I. Lotan,  
 P. E. Maslen,  N. Nair,  D. P. O'Neill,  D. Neuhauser,  E. Neuscamman,  
 C. M. Oana,  R. Olson,  B. Peters,  R. Peverati,  P. A. Pieniazek,  
 Y. M. Rhee,  J. Ritchie,  M. A. Rohrdanz,  E. Rosta,  N. J. Russ,  
 H. F. Schaefer III,  N. E. Schultz,  N. Shenvi,  A. C. Simmonett,  A. Sodt,  
 D. Stuck,  K. S. Thanthiriwatte,  V. Vanovschi,  Tao Wang,  A. Warshel,  
 C. F. Williams,  Q. Wu,  X. Xu,  W. Zhang

 Please cite Q-Chem as follows:
 Y. Shao et al., Mol. Phys. 113, 184-215 (2015)
 DOI: 10.1080/00268976.2014.952696

 Q-Chem 5.2.1 for Intel X86 EM64T Linux

 Parts of Q-Chem use Armadillo 8.300.2 (Tropical Shenanigans).
 http://arma.sourceforge.net/

 Q-Chem begins on Wed Sep 29 01:39:51 2021  

compute-0-13.local
Host: 0

     Scratch files written to /home/meili/scratch/qchem18681//Frg2//
NAlpha2: 50
NElect   50
Mult     1
Symmetry turned off for PCM/SM12/SMD calculation

Checking the input file for inconsistencies... 	...done.

--------------------------------------------------------------
User input:
--------------------------------------------------------------
$molecule
0 1
 6	-1.7013111139	-5.5391838012	3.2776785680
 6	-2.2493111139	-1.5881838012	1.5726785680
 6	-1.2263111139	-2.4201838012	1.1536785680
 6	-3.1303111139	-2.0771838012	2.5316785680
 6	-1.0583111139	-3.7151838012	1.6546785680
 6	-2.9663111139	-3.3601838012	3.0616785680
 6	-1.9183111139	-4.1971838012	2.6446785680
 1	-2.3523111139	-0.5871838012	1.1856785680
 1	-0.5123111139	-2.0461838012	0.4356785680
 1	-3.9213111139	-1.4441838012	2.8986785680
 1	-0.2223111139	-4.3121838012	1.3186785680
 1	-3.6463111139	-3.7021838012	3.8296785680
 1	-2.1173111139	-5.5071838012	4.2856785680
 1	-0.6273111139	-5.6801838012	3.3826785680
 1	-2.1407041139	-6.4063878012	2.7629985680
$end
$rem
EDA2		1
METHOD		WB97X-V
BASIS		DEF2-TZVPD
XC_GRID		000099000590
NL_GRID		1
UNRESTRICTED		FALSE
MAX_SCF_CYCLES		200
SYMMETRY		FALSE
SYM_IGNORE		TRUE
BASIS_LIN_DEP_THRESH		6
THRESH		14
SCF_CONVERGENCE		8
SCF_PRINT_FRGM		TRUE
SOLVENT_METHOD		PCM
!required keywords
JOBTYPE		SP
SYM_IGNORE		TRUE
SUBSYSTEM		TRUE
GEN_SCFMAN		TRUE
CHILD_INSTRUCTION		2
SYM_IGNORE		TRUE
SCFMI		0
RI_K 0		
PARI_K 0		
MIN_PARI_K 0		
IARI_K 0		
OCC_RI_K 0		
PURECART		1111
MEM_STATIC		2000
MEM_TOTAL		2000
GUI		0
CHILD_MP		1
CHILD_MP_ORDERS		232
FRZ_RELAX		0
FRZ_RELAX_METHOD		0
EDA_CLS_ELEC		1
EDA_CLS_DISP		0
FRZ_ORTHO_DECOMP		1
EDA2		FALSE
FRGM_METHOD		FALSE
CIS_N_ROOTS  0
LOCAL_CIS    0
CIS_RLX_DNS  1
$end
$pcm
THEORY                  CPCM
METHOD                  SWIG
SOLVER                  INVERSION
RADII                   UFF
HPOINTS                 302
HEAVYPOINTS             302
PRINTLEVEL              0
$end
$solvent
DIELECTRIC              78.390000 ! water
$end
--------------------------------------------------------------
 ----------------------------------------------------------------
             Standard Nuclear Orientation (Angstroms)
    I     Atom           X                Y                Z
 ----------------------------------------------------------------
    1      C      -1.7013111139    -5.5391838012     3.2776785680
    2      C      -2.2493111139    -1.5881838012     1.5726785680
    3      C      -1.2263111139    -2.4201838012     1.1536785680
    4      C      -3.1303111139    -2.0771838012     2.5316785680
    5      C      -1.0583111139    -3.7151838012     1.6546785680
    6      C      -2.9663111139    -3.3601838012     3.0616785680
    7      C      -1.9183111139    -4.1971838012     2.6446785680
    8      H      -2.3523111139    -0.5871838012     1.1856785680
    9      H      -0.5123111139    -2.0461838012     0.4356785680
   10      H      -3.9213111139    -1.4441838012     2.8986785680
   11      H      -0.2223111139    -4.3121838012     1.3186785680
   12      H      -3.6463111139    -3.7021838012     3.8296785680
   13      H      -2.1173111139    -5.5071838012     4.2856785680
   14      H      -0.6273111139    -5.6801838012     3.3826785680
   15      H      -2.1407041139    -6.4063878012     2.7629985680
 ----------------------------------------------------------------
 Nuclear Repulsion Energy =         269.45196348 hartrees
 There are       25 alpha and       25 beta electrons
 Requested basis set is def2-TZVPD
 There are 131 shells and 331 basis functions

 Total QAlloc Memory Limit   2000 MB
 Mega-Array Size      1956 MB
 MEM_STATIC part      2000 MB
 Discretize the solute cavity surface with Lebedev spheres
	Using 302 Lebedev grid points for each H atom
	Using 302 Lebedev grid points for other atoms
	Atomic van der Waals radii will be scaled by 1.20
 Remove points where switching function is < 1.0e-08
 Keep 1810 surface tesserae and discard 2720 interior tesserae
 Molecular Surface Area = 177.905 Angst**2

                       Distance Matrix (Angstroms)
             C (  1)   C (  2)   C (  3)   C (  4)   C (  5)   C (  6)
   C (  2)  4.337941
   C (  3)  3.803309  1.383587
   C (  4)  3.818900  1.391029  2.375237
   C (  5)  2.524788  2.439126  1.398660  2.783048
   C (  6)  2.528818  2.423055  2.748029  1.397814  2.397110
   C (  7)  1.499581  2.840005  2.420676  2.444609  1.397149  1.404550
   H (  8)  5.415032  1.078137  2.151462  2.153393  3.417423  3.403807
   H (  9)  4.657439  2.125959  1.079442  3.353819  2.137671  3.826825
   H ( 10)  4.673443  2.138831  3.355686  1.077524  3.860278  2.147010
   H ( 11)  2.744203  3.404911  2.148233  3.863037  1.080833  3.387313
   H ( 12)  2.731721  3.393325  3.828955  2.142822  3.380612  1.081290
   H ( 13)  1.090937  4.768265  4.486967  3.983414  3.354833  2.613156
   H ( 14)  1.088293  4.759354  3.994351  4.468872  2.651975  3.310040
   H ( 15)  1.100002  4.964247  4.394980  4.446891  3.105242  3.170204
             C (  7)   H (  8)   H (  9)   H ( 10)   H ( 11)   H ( 12)
   H (  8)  3.917797
   H (  9)  3.388704  2.465113
   H ( 10)  3.414020  2.476001  4.248536
   H ( 11)  2.155903  4.293043  2.449193  4.940084
   H ( 12)  2.152959  4.285837  4.907497  2.457834  4.289638
   H ( 13)  2.109166  5.819933  5.420060  4.656839  3.717814  2.409108
   H ( 14)  2.100146  5.808708  4.680170  5.387800  2.509092  3.636847
   H ( 15)  2.223520  6.032897  5.203793  5.273750  3.186218  3.273741
             H ( 13)   H ( 14)
   H ( 14)  1.750839
   H ( 15)  1.768522  1.789339

 A cutoff of  1.0D-14 yielded   8358 shell pairs
 There are     54492 function pairs (     69441 Cartesian)
 Smallest overlap matrix eigenvalue = 5.92E-07
 Linear dependence detected in AO basis
 Tighter screening thresholds may be required for diffuse basis sets
 Use S2THRESH > 14 and THRESH = 14 in case of SCF convergence issues
 Number of orthogonalized atomic orbitals = 330
 Maximum deviation from orthogonality = 1.492E-10

 Scale SEOQF with 1.000000e-01/1.000000e-02/1.000000e-01

 Standard Electronic Orientation quadrupole field applied
 Nucleus-field energy     =    -0.0000000193 hartrees
 Guess from superposition of atomic densities
 Warning:  Energy on first SCF cycle will be non-variational
 SAD guess density has 50.000000 electrons

 -----------------------------------------------------------------------
  General SCF calculation program by
  Eric Jon Sundstrom, Paul Horn, Yuezhi Mao, Dmitri Zuev, Alec White,
  David Stuck, Shaama M.S., Shane Yost, Joonho Lee, David Small,
  Daniel Levine, Susi Lehtola, Hugh Burton, Evgeny Epifanovsky,
  Bang C. Huynh
 -----------------------------------------------------------------------
 Exchange:     0.1670 Hartree-Fock + 1.0000 wB97X-V + LR-HF
 Correlation:  1.0000 wB97X-V
 Using Euler-Maclaurin-Lebedev (99,590) quadrature formula
 Nonlocal Correlation:  VV10 with C = 0.0100 and b = 6.00 and scale = 1.00000
 Grid used for NLC:  SG-1 standard quadrature
Energy prior to optimization (guess energy) = -271.526323859935
Begin Timing: Total SCF Calculation
begin iterations for algorithm: DIIS         
the SCF tolerance is set to 1.00e-08
    1    -271.5263238599      1.82e-03     00000 
    2    -271.5619750732      1.12e-03     00000 
    3    -271.5795244548      1.41e-04     00000 
    4    -271.5799497788      4.40e-05     00000 
    5    -271.5799792321      1.68e-05     00000 
    6    -271.5799840622      4.76e-06     00000 
    7    -271.5799844756      1.97e-06     00000 
    8    -271.5799845413      2.96e-07     00000 
    9    -271.5799845441      6.92e-08     00000 
   10    -271.5799845443      3.34e-08     00000 
   11    -271.5799845443      1.02e-08     00000 
   12    -271.5799845443      3.72e-09     00000 Convergence criterion met
Timing for Total SCF: 586.00s (wall), 3321.32s (cpu)

************** Final PCM Free Energy Summary **************
 G_electrostatic  =      -0.00252166 hartree =      -1.58236277 kcal/mol
 G_cavitation     =       0.00000000 hartree =       0.00000000 kcal/mol
 G_dispersion     =       0.00000000 hartree =       0.00000000 kcal/mol
 G_repulsion      =       0.00000000 hartree =       0.00000000 kcal/mol
 --------------------------------------------------
 Non-electrostatic Free Energy =       0.00000000 hartree =       0.00000000 kcal/mol
 Total                         =      -0.00252166 hartree =      -1.58236277 kcal/mol
 --------------------------------------------------
 SCF Energy (H0 + V/2)                       =    -271.57998454 
 Solute Internal Energy (H0)                 =    -271.57746289 
 Total Free Energy (H0 + V/2 + non-elec)     =    -271.57998454 hartree
                                             = -170419.01243560 kcal/mol
***********************************************************

E_pcm = -0.0025216556
Multipole orders to be included
        2
        3
computing dipole RHS
computing quadrupole RHS
total number of RHS in solve_reponses: 8
RHS batch sizes
        8
Beginning Block Conjugate Gradient Iterations. Batch Number: 0
computing hessian-vector products by finite difference
              1      5.78e-01     00000 Conjugate Gradient Iteration
computing hessian-vector products by finite difference
              2      1.82e-01     00000 Conjugate Gradient Iteration
computing hessian-vector products by finite difference
              3      4.21e-02     00000 Conjugate Gradient Iteration
computing hessian-vector products by finite difference
              4      9.97e-03     00000 Conjugate Gradient Iteration
computing hessian-vector products by finite difference
              5      2.01e-03     00000 Conjugate Gradient Iteration
computing hessian-vector products by finite difference
              6      4.91e-04     00000 Conjugate Gradient Iteration
computing hessian-vector products by finite difference
              7      1.68e-04     00000 Conjugate Gradient Iteration
computing hessian-vector products by finite difference
              8      2.84e-05     00000 Conjugate Gradient Iteration
computing hessian-vector products by finite difference
              9      3.72e-06     00000 Conjugate Gradient Iteration
computing hessian-vector products by finite difference
             10      5.53e-07     00000 Conjugate Gradient Iteration
computing hessian-vector products by finite difference
             11      9.38e-08     00000 Conjugate Gradient Iteration
computing hessian-vector products by finite difference
             12      2.02e-08     00000 Conjugate Gradient Iteration
computing hessian-vector products by finite difference
             13      3.15e-09     00000 CG Converged
batch 0 complete
Done Calculating Responses
TESTING ORTHOGONALIZATION OF MULTIPOLE BASIS
Multipole virts passed orthogonality test
Virts Per Order
           75
          125

 --------------------------------------------------------------

                    Orbital Energies (a.u.)
 --------------------------------------------------------------

 Alpha MOs
 -- Occupied --
-10.2847 -10.2736 -10.2726 -10.2714 -10.2711 -10.2702 -10.2631  -0.9965
 -0.9094  -0.8768  -0.8159  -0.7302  -0.7061  -0.6314  -0.5742  -0.5678
 -0.5367  -0.5259  -0.5188  -0.4883  -0.4734  -0.4452  -0.4382  -0.3475
 -0.3396
 -- Virtual --
  0.0625   0.0634   0.0664   0.0790   0.0846   0.1043   0.1104   0.1140
  0.1347   0.1524   0.1649   0.1674   0.1870   0.1907   0.1946   0.1997
  0.2202   0.2219   0.2327   0.2369   0.2513   0.2585   0.2600   0.2713
  0.2785   0.2798   0.2842   0.2927   0.2942   0.3009   0.3021   0.3074
  0.3170   0.3252   0.3292   0.3338   0.3482   0.3523   0.3637   0.3766
  0.3786   0.3813   0.3839   0.3879   0.3881   0.3991   0.4027   0.4074
  0.4101   0.4285   0.4308   0.4352   0.4414   0.4446   0.4494   0.4510
  0.4646   0.4680   0.4691   0.4811   0.4927   0.4954   0.5107   0.5143
  0.5172   0.5229   0.5284   0.5395   0.5444   0.5473   0.5522   0.5630
  0.5830   0.5840   0.5919   0.6017   0.6108   0.6193   0.6382   0.6428
  0.6576   0.6728   0.6778   0.6806   0.6882   0.6916   0.7226   0.7259
  0.7310   0.7351   0.7413   0.7578   0.7645   0.7674   0.7770   0.7869
  0.7887   0.7908   0.7921   0.8060   0.8067   0.8211   0.8253   0.8316
  0.8339   0.8369   0.8414   0.8465   0.8545   0.8736   0.8860   0.8916
  0.9055   0.9083   0.9330   0.9381   0.9546   1.0110   1.0212   1.0370
  1.0466   1.0525   1.0704   1.0811   1.0840   1.0971   1.1035   1.1358
  1.1655   1.1738   1.2480   1.2786   1.2987   1.3244   1.3514   1.3539
  1.3790   1.4329   1.4412   1.4539   1.4603   1.4774   1.5169   1.5422
  1.5975   1.6056   1.6151   1.6258   1.6646   1.6912   1.7360   1.7791
  1.7865   1.7936   1.8018   1.8114   1.8303   1.8674   1.8826   1.9094
  1.9157   1.9255   1.9468   1.9565   1.9762   1.9918   2.0111   2.0220
  2.0328   2.0437   2.0712   2.0984   2.1145   2.1216   2.1662   2.1736
  2.1976   2.2303   2.2371   2.2758   2.2857   2.3104   2.3839   2.3892
  2.3999   2.4140   2.4798   2.5044   2.5309   2.5500   2.5664   2.6083
  2.6122   2.6305   2.6715   2.6788   2.6930   2.6978   2.7572   2.7744
  2.7795   2.8077   2.8137   2.8444   2.8563   2.8971   2.9011   2.9156
  2.9332   2.9416   2.9598   2.9677   2.9938   3.0134   3.0246   3.0442
  3.0613   3.0860   3.1023   3.1039   3.1828   3.1941   3.1975   3.2189
  3.2286   3.2363   3.2872   3.3002   3.3299   3.3533   3.3557   3.3764
  3.4007   3.4306   3.4440   3.4517   3.4546   3.4696   3.4864   3.4908
  3.4980   3.5313   3.5372   3.5426   3.5614   3.5700   3.5972   3.6076
  3.6212   3.6292   3.6491   3.6950   3.6966   3.7497   3.7675   3.7966
  3.8320   3.8833   3.9141   3.9357   3.9409   3.9950   4.0461   4.0485
  4.1206   4.1907   4.2648   4.2790   4.2904   4.3059   4.3183   4.3262
  4.3445   4.3696   4.3832   4.4038   4.4162   4.4592   4.4719   4.5294
  4.5921   4.6299   4.7400   4.7470   4.8321   4.8776   4.9117   4.9265
  5.0201   5.0396   5.1655   5.2630   5.3552   5.3794   5.4874   5.5224
  5.6666   5.8376  22.5815  22.6645  22.8906  22.8980  22.9963  23.0726
 23.3990
 --------------------------------------------------------------

          Ground-State Mulliken Net Atomic Charges

     Atom                 Charge (a.u.)
  ----------------------------------------
      1 C                    -1.025342
      2 C                    -0.523953
      3 C                    -0.421439
      4 C                    -0.494207
      5 C                    -0.370291
      6 C                    -0.344346
      7 C                     0.829730
      8 H                     0.334575
      9 H                     0.312330
     10 H                     0.314875
     11 H                     0.326539
     12 H                     0.313827
     13 H                     0.270221
     14 H                     0.258037
     15 H                     0.219443
  ----------------------------------------
  Sum of atomic charges =     0.000000

 -----------------------------------------------------------------
                    Cartesian Multipole Moments
 -----------------------------------------------------------------
    Charge (ESU x 10^10)
                 0.0000
    Dipole Moment (Debye)
         X       0.1725      Y      -0.3751      Z       0.3265
       Tot       0.5263
    Quadrupole Moments (Debye-Ang)
        XX     -41.8752     XY      -1.6083     YY     -36.2205
        XZ      -3.5465     YZ      -4.2245     ZZ     -41.1354
    Octopole Moments (Debye-Ang^2)
       XXX     253.5801    XXY     145.2888    XYY      84.5499
       YYY     377.4381    XXZ     -81.1671    XYZ      12.5469
       YYZ     -67.8328    XZZ      70.1839    YZZ     124.7230
       ZZZ    -287.3445
    Hexadecapole Moments (Debye-Ang^3)
      XXXX   -1254.5972   XXXY    -824.0894   XXYY    -774.5903
      XYYY    -761.9465   YYYY   -3080.0383   XXXZ     571.4204
      XXYZ     312.8120   XYYZ     148.2811   YYYZ     897.0033
      XXZZ    -401.2246   XYZZ    -204.6852   YYZZ    -721.4357
      XZZZ     576.3067   YZZZ    1005.6425   ZZZZ   -1559.3621
 -----------------------------------------------------------------
Archival summary:
1\1\compute-0-13.local\SP\ProcedureUnspecified\BasisUnspecified\78\meili\WedSep2905:07:502021WedSep2905:07:502021\0\\#,ProcedureUnspecified,BasisUnspecified,\\0,1\C\C,1,1.39715\H,2,1.08083,1,120.386\C,2,1.39866,1,119.954,3,-175.932,0\H,4,1.07944,2,118.66,1,176.119,0\C,4,1.38359,2,122.487,1,-1.94535,0\H,6,1.07814,4,121.349,2,179.006,0\C,6,1.39103,4,117.754,2,0.174338,0\H,8,1.07752,6,119.553,4,178.322,0\C,8,1.39781,6,120.648,4,0.922655,0\H,10,1.08129,8,119.067,6,177.979,0\C,1,1.49958,2,121.25,3,0.705128,0\H,12,1.08829,1,107.426,2,37.1949,0\H,12,1.09094,1,107.975,2,152.184,0\H,12,1.1,1,116.757,2,-86.4517,0\\\@

 Total job time:  12479.04s(wall), 70804.12s(cpu) 
 Wed Sep 29 05:07:50 2021

        *************************************************************
        *                                                           *
        *  Thank you very much for using Q-Chem.  Have a nice day.  *
        *                                                           *
        *************************************************************


Done Job For Fragment 1
calling putenv with: QCSCRATCH=/home/meili/scratch 
calling putenv with: QCTHREADS=8 
Doing General SCFMI
 Exchange:     0.1670 Hartree-Fock + 1.0000 wB97X-V + LR-HF
 Correlation:  1.0000 wB97X-V
 Using Euler-Maclaurin-Lebedev (99,590) quadrature formula
 Nonlocal Correlation:  VV10 with C = 0.0100 and b = 6.00 and scale = 1.00000
 Grid used for NLC:  SG-1 standard quadrature
performing fock build before subrot guess so that all methods have access
Printing subrot_rss_gen Method Specification:
Occupied Subspace Method is 0
Virtual Subspace Method is 0
Energy of the unrelaxed supersystem initial determinant -674.738571430578
performing fock build before subrot guess so that all methods have access
Printing subrot_rss_gen Method Specification:
Occupied Subspace Method is 0
Virtual Subspace Method is 0
Energy of the unrelaxed supersystem initial determinant w/ solvent -674.747648462983
write pseudocanon occs and virts to disk
write pseudocanon orbital energies to disk
Tolerance of ortho_decomp_scf: 1.00e-06
GDM subspace size: 20
Beginning the Orthogonal Decomposition of the Initial Supersystem Wavefunction
    1    -674.7275576531      1.30e-02     ortho_decomp Preconditoned Steepest Descent
    2    -674.7286025917      3.14e-04     ortho_decomp BFGS Step
    3    -674.7286054823      2.26e-05     ortho_decomp BFGS Step
    4    -674.7286054882      1.01e-06     ortho_decomp BFGS Step
    5    -674.7286054882      4.56e-08     ortho_decomp 00000 Convergence criterion met
 Hartree-Fock
 Hartree-Fock
 Hartree-Fock
Doing General SCFMI
 Exchange:     0.1670 Hartree-Fock + 1.0000 wB97X-V + LR-HF
 Correlation:  1.0000 wB97X-V
 Using Euler-Maclaurin-Lebedev (99,590) quadrature formula
 Nonlocal Correlation:  VV10 with C = 0.0100 and b = 6.00 and scale = 1.00000
 Grid used for NLC:  SG-1 standard quadrature
performing fock build at end of subrot_r(subrot) constructor so that all methods have access
<S^2> of initial wavefunction before polarization iterations 0.0000000000
Beginning iterations for the determination of the polarized wavefunction
Energy prior to optimization (guess energy) = -674.747648462983
Begin Timing: Total SCF Calculation
begin iterations for algorithm: DIIS         
the SCF tolerance is set to 1.00e-08
    1    -674.7476484630      3.49e-05     00000 
    2    -674.7478632043      1.20e-05     00000 
    3    -674.7478828630      6.15e-06     00000 
    4    -674.7478878160      2.13e-06     00000 
    5    -674.7478886679      1.04e-06     00000 
    6    -674.7478888562      4.19e-07     00000 
    7    -674.7478888842      1.44e-07     00000 
    8    -674.7478888870      7.36e-08     00000 
    9    -674.7478888876      2.16e-08     00000 
   10    -674.7478888876      9.84e-09     00000 Convergence criterion met
write pseudocanon occs and virts to disk
write pseudocanon orbital energies to disk
Timing for Total SCF: 5218.00s (wall), 31321.63s (cpu)
<S^2> of polarized wavefunction after polarization iterations 0.0000000000
relaxing scfmi constraint to allow all rotations in the entire AO span
Doing General SCFMI
 Exchange:     0.1670 Hartree-Fock + 1.0000 wB97X-V + LR-HF
 Correlation:  1.0000 wB97X-V
 Using Euler-Maclaurin-Lebedev (99,590) quadrature formula
 Nonlocal Correlation:  VV10 with C = 0.0100 and b = 6.00 and scale = 1.00000
 Grid used for NLC:  SG-1 standard quadrature
performing fock build at end of subrot_r(subrot) constructor so that all methods have access
<S^2> of polarized wavefunction before ct-allowed iterations 0.0000000000
Beginning iterations for the determination of the CT-Allowed wavefunction
Energy prior to optimization (guess energy) = -674.747888887630
Begin Timing: Total SCF Calculation
begin iterations for algorithm: DIIS         
the SCF tolerance is set to 1.00e-08
    1    -674.7478888876      4.69e-05     00000 
    2    -674.7485614518      4.99e-06     00000 
    3    -674.7485786739      6.60e-07     00000 
    4    -674.7485790330      2.25e-07     00000 
    5    -674.7485790498      8.39e-08     00000 
    6    -674.7485790530      1.53e-08     00000 
    7    -674.7485790531      7.08e-09     00000 Convergence criterion met
write pseudocanon occs and virts to disk
write pseudocanon orbital energies to disk
Timing for Total SCF: 3483.00s (wall), 20959.97s (cpu)
<S^2> of ct_allowed wavefunction after ct-allowed iterations 0.0000000000

================================
        Results of EDA2         
================================
Basic EDA Quantities
--------------------
Fragment Energies (Ha):
1 -403.1672627000
2 -271.5799845443
--------------------
  E_prp (kJ/mol) = 0.0000
  E_sol (kJ/mol) = 0.0348
  E_frz (kJ/mol) = -1.0882
  E_pol (kJ/mol) = -0.6312
  E_vct (kJ/mol) = -1.8121
  E_int (kJ/mol) = -3.4967
--------------------


Initial Wavefunction Decomposition
--------------------
  --------------------
  Orthogonal Fragment Subspace Decomposition:
  --------------------
     E_elec   (ELEC)   (kJ/mol) = -9.9449
     E_pauli  (PAULI)  (kJ/mol) = 19.1616
     E_disp   (DISP)   (kJ/mol) = -10.3049
     --------------------
     Terms summing to E_pauli:
     --------------------
        E_kep_pauli       (kJ/mol) = 25.0777
        E_disp_free_pauli (kJ/mol) = -5.9161
  --------------------
  Classical Frozen Decomposition:
  --------------------
     E_cls_elec  (CLS ELEC)  (kJ/mol) = -2.3155
     E_cls_pauli (CLS PAULI) (kJ/mol) = 1.2273
    [E_mod_pauli (MOD PAULI) (kJ/mol) = 11.5322 (CLS PAULI - DISP from orthogonal decomposition) ]
  --------------------
--------------------

Simplified EDA Summary (kJ/mol)
--------------------
 PREPARATION     0.0000
 SOLVATION       0.0348
 FROZEN          9.2167      (does not include dispersion)
[PAULI           19.1616]     (if this is negligible, then frozen describes electrostatics)
 DISPERSION      -10.3049
 POLARIZATION    -0.6312
 CHARGE TRANSFER -1.8121
 TOTAL           -3.4967     (PRP + SOL + FRZ + DISP + POL + CT)
--------------------

 --------------------------------------------------------------

                    Orbital Energies (a.u.)
 --------------------------------------------------------------

 Alpha MOs
 -- Occupied --
-14.4526 -10.3027 -10.2960 -10.2853 -10.2745 -10.2744 -10.2737 -10.2721
-10.2721 -10.2719 -10.2714 -10.2694 -10.2689 -10.2674 -10.2639 -10.2637
-10.2633  -1.1195  -0.9973  -0.9798  -0.9331  -0.9102  -0.8777  -0.8700
 -0.8619  -0.8199  -0.8166  -0.7489  -0.7311  -0.7149  -0.7068  -0.6797
 -0.6551  -0.6333  -0.6007  -0.5868  -0.5747  -0.5682  -0.5575  -0.5518
 -0.5425  -0.5371  -0.5267  -0.5206  -0.5170  -0.5129  -0.4969  -0.4889
 -0.4801  -0.4739  -0.4558  -0.4536  -0.4459  -0.4385  -0.4352  -0.3799
 -0.3483  -0.3404  -0.3172  -0.2919
 -- Virtual --
  0.0512   0.0555   0.0619   0.0641   0.0649   0.0719   0.0759   0.0820
  0.0889   0.0934   0.0968   0.1022   0.1119   0.1157   0.1178   0.1250
  0.1306   0.1357   0.1420   0.1460   0.1522   0.1563   0.1599   0.1651
  0.1692   0.1716   0.1775   0.1783   0.1873   0.1905   0.1950   0.1973
  0.1996   0.2077   0.2142   0.2167   0.2238   0.2272   0.2299   0.2319
  0.2406   0.2442   0.2477   0.2494   0.2514   0.2531   0.2589   0.2600
  0.2637   0.2678   0.2711   0.2726   0.2756   0.2761   0.2798   0.2834
  0.2850   0.2860   0.2879   0.2935   0.2954   0.3011   0.3017   0.3076
  0.3094   0.3115   0.3145   0.3200   0.3222   0.3237   0.3273   0.3295
  0.3345   0.3369   0.3375   0.3419   0.3461   0.3479   0.3515   0.3521
  0.3575   0.3615   0.3645   0.3651   0.3674   0.3720   0.3728   0.3782
  0.3795   0.3831   0.3844   0.3853   0.3880   0.3899   0.3937   0.3953
  0.3983   0.4028   0.4055   0.4081   0.4115   0.4138   0.4178   0.4188
  0.4197   0.4268   0.4295   0.4326   0.4377   0.4378   0.4420   0.4455
  0.4481   0.4493   0.4532   0.4580   0.4624   0.4676   0.4689   0.4722
  0.4741   0.4774   0.4787   0.4811   0.4853   0.4878   0.4911   0.4955
  0.4985   0.4991   0.5010   0.5061   0.5103   0.5125   0.5158   0.5182
  0.5210   0.5248   0.5279   0.5317   0.5366   0.5379   0.5409   0.5458
  0.5475   0.5516   0.5528   0.5576   0.5599   0.5643   0.5682   0.5697
  0.5707   0.5789   0.5822   0.5850   0.5890   0.5928   0.5938   0.6031
  0.6060   0.6120   0.6198   0.6215   0.6259   0.6293   0.6337   0.6380
  0.6398   0.6457   0.6490   0.6602   0.6609   0.6649   0.6671   0.6694
  0.6731   0.6759   0.6849   0.6884   0.6898   0.6927   0.6986   0.7041
  0.7043   0.7118   0.7154   0.7173   0.7207   0.7285   0.7317   0.7346
  0.7358   0.7429   0.7436   0.7453   0.7478   0.7508   0.7548   0.7564
  0.7646   0.7652   0.7696   0.7708   0.7725   0.7768   0.7786   0.7815
  0.7856   0.7892   0.7920   0.7949   0.7964   0.7976   0.8003   0.8059
  0.8101   0.8122   0.8143   0.8176   0.8212   0.8231   0.8256   0.8283
  0.8323   0.8346   0.8409   0.8432   0.8465   0.8494   0.8540   0.8561
  0.8625   0.8658   0.8700   0.8731   0.8741   0.8828   0.8854   0.8939
  0.9001   0.9019   0.9051   0.9058   0.9147   0.9199   0.9239   0.9298
  0.9370   0.9429   0.9491   0.9516   0.9549   0.9604   0.9624   0.9727
  0.9756   0.9896   0.9970   1.0008   1.0091   1.0109   1.0157   1.0188
  1.0257   1.0323   1.0364   1.0433   1.0458   1.0532   1.0565   1.0673
  1.0691   1.0729   1.0778   1.0836   1.0874   1.0907   1.0975   1.1016
  1.1116   1.1141   1.1217   1.1280   1.1350   1.1398   1.1507   1.1548
  1.1582   1.1648   1.1854   1.1872   1.1963   1.2063   1.2097   1.2225
  1.2330   1.2429   1.2591   1.2750   1.2858   1.2989   1.3034   1.3161
  1.3336   1.3387   1.3583   1.3610   1.3684   1.3728   1.3769   1.3878
  1.4015   1.4134   1.4157   1.4309   1.4441   1.4544   1.4583   1.4687
  1.4721   1.4739   1.4841   1.4872   1.5027   1.5184   1.5481   1.5502
  1.5608   1.5751   1.5896   1.5973   1.6056   1.6062   1.6178   1.6201
  1.6311   1.6372   1.6524   1.6646   1.6755   1.6848   1.6932   1.7047
  1.7089   1.7288   1.7347   1.7413   1.7521   1.7728   1.7861   1.7931
  1.7944   1.8120   1.8145   1.8224   1.8310   1.8466   1.8520   1.8614
  1.8742   1.8807   1.8940   1.8992   1.9105   1.9153   1.9226   1.9321
  1.9369   1.9392   1.9450   1.9545   1.9581   1.9645   1.9721   1.9763
  1.9830   1.9859   1.9922   2.0101   2.0129   2.0209   2.0294   2.0399
  2.0460   2.0552   2.0587   2.0607   2.0711   2.0733   2.0848   2.0894
  2.1093   2.1110   2.1281   2.1364   2.1406   2.1518   2.1642   2.1847
  2.1896   2.1978   2.2057   2.2120   2.2207   2.2231   2.2344   2.2399
  2.2548   2.2682   2.2763   2.2843   2.2977   2.3036   2.3214   2.3325
  2.3342   2.3432   2.3557   2.3873   2.4000   2.4022   2.4084   2.4158
  2.4298   2.4328   2.4478   2.4609   2.4694   2.4847   2.4892   2.4980
  2.5178   2.5224   2.5494   2.5501   2.5629   2.5664   2.5749   2.5839
  2.6033   2.6134   2.6246   2.6370   2.6406   2.6474   2.6648   2.6675
  2.6786   2.6812   2.6937   2.7034   2.7118   2.7182   2.7461   2.7547
  2.7636   2.7723   2.7799   2.7848   2.7900   2.7963   2.8081   2.8144
  2.8191   2.8242   2.8312   2.8373   2.8531   2.8576   2.8647   2.8727
  2.8834   2.8950   2.9017   2.9074   2.9124   2.9235   2.9263   2.9320
  2.9367   2.9494   2.9524   2.9707   2.9725   2.9795   2.9830   2.9957
  3.0015   3.0138   3.0249   3.0270   3.0335   3.0372   3.0578   3.0659
  3.0749   3.0787   3.0846   3.0870   3.0960   3.1033   3.1163   3.1230
  3.1260   3.1557   3.1642   3.1789   3.1932   3.2011   3.2033   3.2093
  3.2116   3.2251   3.2342   3.2393   3.2394   3.2530   3.2648   3.2735
  3.2920   3.2946   3.3011   3.3064   3.3211   3.3372   3.3435   3.3581
  3.3612   3.3632   3.3676   3.3732   3.3799   3.3882   3.3972   3.4046
  3.4100   3.4139   3.4312   3.4433   3.4473   3.4501   3.4566   3.4606
  3.4687   3.4745   3.4774   3.4871   3.4905   3.4966   3.5005   3.5039
  3.5088   3.5225   3.5277   3.5315   3.5347   3.5407   3.5448   3.5529
  3.5595   3.5660   3.5712   3.5769   3.5866   3.5890   3.5993   3.6103
  3.6172   3.6293   3.6308   3.6355   3.6420   3.6523   3.6592   3.6690
  3.6733   3.6891   3.6986   3.7026   3.7094   3.7111   3.7246   3.7313
  3.7392   3.7546   3.7795   3.7810   3.7914   3.8030   3.8053   3.8118
  3.8347   3.8664   3.8742   3.8871   3.8915   3.9243   3.9312   3.9438
  3.9487   3.9624   3.9955   4.0054   4.0323   4.0466   4.0521   4.0591
  4.0747   4.1037   4.1397   4.1503   4.1635   4.2024   4.2148   4.2265
  4.2425   4.2539   4.2704   4.2752   4.2908   4.2954   4.3056   4.3065
  4.3173   4.3188   4.3270   4.3419   4.3498   4.3525   4.3668   4.3743
  4.3828   4.3910   4.4071   4.4216   4.4244   4.4276   4.4335   4.4699
  4.4740   4.4791   4.4935   4.5371   4.5490   4.5593   4.5697   4.6034
  4.6165   4.6324   4.6505   4.6656   4.7480   4.7493   4.7538   4.7884
  4.8089   4.8330   4.8420   4.8822   4.9034   4.9233   4.9329   4.9582
  4.9620   4.9696   4.9973   5.0061   5.0461   5.0542   5.0631   5.0723
  5.1282   5.1454   5.1682   5.1844   5.2042   5.2188   5.2772   5.3001
  5.3708   5.3740   5.3834   5.4167   5.4624   5.4939   5.5130   5.5269
  5.5443   5.5921   5.6488   5.6836   5.7097   5.7936   5.8190   5.8338
  5.9419   5.9742   6.2492   6.3463  22.6610  22.6703  22.6857  22.8002
 22.9160  22.9290  22.9386  22.9668  22.9907  23.0151  23.0870  23.2016
 23.2702  23.4107  23.4582  23.7923  32.8392
 --------------------------------------------------------------

          Ground-State Mulliken Net Atomic Charges

     Atom                 Charge (a.u.)
  ----------------------------------------
      1 C                    -1.014356
      2 C                    -0.293855
      3 C                     0.435119
      4 C                     0.782796
      5 C                    -0.684744
      6 C                    -0.200879
      7 C                    -0.578289
      8 C                    -0.579846
      9 C                    -0.632759
     10 N                     0.141014
     11 H                     0.375276
     12 H                     0.347783
     13 H                     0.424942
     14 H                     0.303721
     15 H                     0.228556
     16 H                     0.259041
     17 H                     0.210928
     18 H                     0.233038
     19 H                     0.247862
     20 C                    -1.056831
     21 C                    -0.222788
     22 C                     0.084868
     23 C                    -0.700857
     24 C                    -0.618591
     25 C                    -0.433701
     26 C                     0.615239
     27 H                     0.359565
     28 H                     0.193127
     29 H                     0.334847
     30 H                     0.335969
     31 H                     0.336574
     32 H                     0.278057
     33 H                     0.267357
     34 H                     0.221818
  ----------------------------------------
  Sum of atomic charges =     0.000000

 -----------------------------------------------------------------
                    Cartesian Multipole Moments
 -----------------------------------------------------------------
    Charge (ESU x 10^10)
                -0.0000
    Dipole Moment (Debye)
         X      -0.3319      Y       2.3890      Z       0.0430
       Tot       2.4123
    Quadrupole Moments (Debye-Ang)
        XX     -96.2676     XY      -1.9911     YY     -72.1324
        XZ      -6.8741     YZ     -10.1170     ZZ    -103.3456
    Octopole Moments (Debye-Ang^2)
       XXX      11.9485    XXY      23.5664    XYY       6.0447
       YYY     102.9375    XXZ       0.7048    XYZ       4.1256
       YYZ     -11.6842    XZZ      -9.7960    YZZ      -7.8403
       ZZZ      15.9991
    Hexadecapole Moments (Debye-Ang^3)
      XXXX   -2790.9551   XXXY   -1491.6081   XXYY   -1414.1185
      XYYY   -1406.5089   YYYY   -5009.5838   XXXZ    1074.8203
      XXYZ     506.8736   XYYZ     278.9827   YYYZ    1371.3374
      XXZZ    -825.7816   XYZZ    -421.9831   YYZZ   -1303.0471
      XZZZ    1127.2715   YZZZ    1730.4111   ZZZZ   -2715.2719
 -----------------------------------------------------------------
Archival summary:
1\1\compute-0-13.local\SP\ProcedureUnspecified\BasisUnspecified\11617\meili\WedSep2909:51:192021WedSep2909:51:192021\0\\#,ProcedureUnspecified,BasisUnspecified,\\0,1\C\N,1,1.36299\H,2,1.02453,1,125.363\C,2,1.37266,1,108.572,3,-170.166,0\H,4,1.085,2,124.159,1,177.536,0\C,4,1.36288,2,111.345,1,-0.646673,0\C,1,1.38942,2,130.851,3,-9.31611,0\H,7,1.07702,1,120.862,2,-0.365273,0\C,7,1.38058,1,117.747,2,179.406,0\H,9,1.07872,7,118.684,1,-179.216,0\C,9,1.39878,7,122.451,1,0.0464111,0\H,11,1.0766,9,120.086,7,178.722,0\C,11,1.40499,9,120.001,7,-0.0365201,0\H,13,1.08001,11,120.722,9,179.771,0\C,13,1.40714,11,118.6,9,0.110205,0\C,6,1.50033,4,127.749,2,178.303,0\H,16,1.09015,6,107.478,4,-65.8625,0\H,16,1.09121,6,109.145,4,178.127,0\H,16,1.1,6,115.376,4,54.8749,0\H,10,2.22286,9,141.313,7,-79.5578,0\C,20,1.07814,10,122.013,9,-101.708,0\C,21,1.38359,20,121.349,10,14.358,0\H,22,1.07944,21,118.826,20,0.944111,0\C,21,1.39103,20,120.887,10,-166.847,0\H,24,1.07752,21,119.553,20,-0.515029,0\C,24,1.39781,21,120.648,20,-177.915,0\H,26,1.08129,24,119.067,21,177.979,0\C,22,1.39866,21,122.487,20,179.006,0\H,28,1.08083,22,119.536,21,-177.912,0\C,28,1.39715,22,119.954,21,-1.94535,0\C,30,1.49958,28,121.25,22,-175.227,0\H,31,1.08829,30,107.426,28,37.1949,0\H,31,1.09094,30,107.975,28,152.184,0\H,31,1.1,30,116.757,28,-86.4517,0\\\@

 Total job time:  61488.52s(wall), 105349.50s(cpu) 
 Wed Sep 29 09:51:19 2021

        *************************************************************
        *                                                           *
        *  Thank you very much for using Q-Chem.  Have a nice day.  *
        *                                                           *
        *************************************************************


