
Running Job 1 of 1 SSI-007PHE-111PHE-1_PCM_TZVPD.in
qchem SSI-007PHE-111PHE-1_PCM_TZVPD.in_19388.0 /tmp/qchem19388/ 0
/global/common/cori/software/qchem/5.2/exe/qcprog.exe_s SSI-007PHE-111PHE-1_PCM_TZVPD.in_19388.0 /tmp/qchem19388/
                  Welcome to Q-Chem
     A Quantum Leap Into The Future Of Chemistry


 Q-Chem 5.2, Q-Chem, Inc., Pleasanton, CA (2019)

 License issued to: National Energy Research Scientific Computing Center

 Yihan Shao,  Zhengting Gan,  E. Epifanovsky,  A. T. B. Gilbert,  M. Wormit,  
 J. Kussmann,  A. W. Lange,  A. Behn,  Jia Deng,  Xintian Feng,  D. Ghosh,  
 M. Goldey,  P. R. Horn,  L. D. Jacobson,  I. Kaliman,  T. Kus,  A. Landau,  
 Jie Liu,  E. I. Proynov,  R. M. Richard,  R. P. Steele,  E. J. Sundstrom,  
 H. L. Woodcock III,  P. M. Zimmerman,  D. Zuev,  B. Albrecht,  E. Alguire,  
 S. A. Baeppler,  D. Barton,  Z. Benda,  Y. A. Bernard,  E. J. Berquist,  
 K. B. Bravaya,  H. Burton,  D. Casanova,  Chun-Min Chang,  Yunqing Chen,  
 A. Chien,  K. D. Closser,  M. P. Coons,  S. Coriani,  S. Dasgupta,  
 A. L. Dempwolff,  M. Diedenhofen,  Hainam Do,  R. G. Edgar,  Po-Tung Fang,  
 S. Faraji,  S. Fatehi,  Qingguo Feng,  K. D. Fenk,  J. Fosso-Tande,  
 J. Gayvert,  Qinghui Ge,  A. Ghysels,  G. Gidofalvi,  J. Gomes,  
 J. Gonthier,  A. Gunina,  D. Hait,  M. W. D. Hanson-Heine,  
 P. H. P. Harbach,  A. W. Hauser,  M. F. Herbst,  J. E. Herr,  
 E. G. Hohenstein,  Z. C. Holden,  Kerwin Hui,  B. C. Huynh,  T.-C. Jagau,  
 Hyunjun Ji,  B. Kaduk,  K. Khistyaev,  Jaehoon Kim,  P. Klunzinger,  K. Koh,  
 D. Kosenkov,  L. Koulias,  T. Kowalczyk,  C. M. Krauter,  A. Kunitsa,  
 Ka Un Lao,  A. Laurent,  K. V. Lawler,  Joonho Lee,  D. Lefrancois,  
 S. Lehtola,  D. S. Levine,  Yi-Pei Li,  You-Sheng Lin,  Fenglai Liu,  
 E. Livshits,  A. Luenser,  P. Manohar,  E. Mansoor,  S. F. Manzer,  
 Shan-Ping Mao,  Yuezhi Mao,  N. Mardirossian,  A. V. Marenich,  
 T. Markovich,  L. A. Martinez-Martinez,  S. A. Maurer,  N. J. Mayhall,  
 S. C. McKenzie,  J.-M. Mewes,  P. Morgante,  A. F. Morrison,  
 J. W. Mullinax,  K. Nanda,  T. S. Nguyen-Beck,  R. Olivares-Amaya,  
 J. A. Parkhill,  Zheng Pei,  T. M. Perrine,  F. Plasser,  P. Pokhilko,  
 S. Prager,  A. Prociuk,  E. Ramos,  D. R. Rehn,  F. Rob,  M. Scheurer,  
 M. Schneider,  N. Sergueev,  S. M. Sharada,  S. Sharma,  D. W. Small,  
 T. Stauch,  T. Stein,  Yu-Chuan Su,  A. J. W. Thom,  A. Tkatchenko,  
 T. Tsuchimochi,  N. M. Tubman,  L. Vogt,  M. L. Vidal,  O. Vydrov,  
 M. A. Watson,  J. Wenzel,  M. de Wergifosse,  T. A. Wesolowski,  A. White,  
 J. Witte,  A. Yamada,  Jun Yang,  K. Yao,  S. Yeganeh,  S. R. Yost,  
 Zhi-Qiang You,  A. Zech,  Igor Ying Zhang,  Xing Zhang,  Yan Zhao,  
 Ying Zhu,  B. R. Brooks,  G. K. L. Chan,  C. J. Cramer,  M. S. Gordon,  
 W. J. Hehre,  A. Klamt,  M. W. Schmidt,  C. D. Sherrill,  D. G. Truhlar,  
 A. Aspuru-Guzik,  R. Baer,  A. T. Bell,  N. A. Besley,  Jeng-Da Chai,  
 A. E. DePrince, III,  R. A. DiStasio Jr.,  A. Dreuw,  B. D. Dunietz,  
 T. R. Furlani,  Chao-Ping Hsu,  Yousung Jung,  Jing Kong,  D. S. Lambrecht,  
 WanZhen Liang,  C. Ochsenfeld,  V. A. Rassolov,  L. V. Slipchenko,  
 J. E. Subotnik,  T. Van Voorhis,  J. M. Herbert,  A. I. Krylov,  
 P. M. W. Gill,  M. Head-Gordon

 Contributors to earlier versions of Q-Chem not listed above: 
 R. D. Adamson,  B. Austin,  J. Baker,  G. J. O. Beran,  K. Brandhorst,  
 S. T. Brown,  E. F. C. Byrd,  A. K. Chakraborty,  C.-L. Cheng,  
 Siu Hung Chien,  D. M. Chipman,  D. L. Crittenden,  H. Dachsel,  
 R. J. Doerksen,  A. D. Dutoi,  L. Fusti-Molnar,  W. A. Goddard III,  
 A. Golubeva-Zadorozhnaya,  S. R. Gwaltney,  G. Hawkins,  A. Heyden,  
 S. Hirata,  G. Kedziora,  F. J. Keil,  C. Kelley,  Jihan Kim,  R. A. King,  
 R. Z. Khaliullin,  P. P. Korambath,  W. Kurlancheek,  A. M. Lee,  M. S. Lee,  
 S. V. Levchenko,  Ching Yeh Lin,  D. Liotard,  R. C. Lochan,  I. Lotan,  
 P. E. Maslen,  N. Nair,  D. P. O'Neill,  D. Neuhauser,  E. Neuscamman,  
 C. M. Oana,  R. Olson,  B. Peters,  R. Peverati,  P. A. Pieniazek,  
 Y. M. Rhee,  J. Ritchie,  M. A. Rohrdanz,  E. Rosta,  N. J. Russ,  
 H. F. Schaefer III,  N. E. Schultz,  N. Shenvi,  A. C. Simmonett,  A. Sodt,  
 D. Stuck,  K. S. Thanthiriwatte,  V. Vanovschi,  Tao Wang,  A. Warshel,  
 C. F. Williams,  Q. Wu,  X. Xu,  W. Zhang

 Please cite Q-Chem as follows:
 Y. Shao et al., Mol. Phys. 113, 184-215 (2015)
 DOI: 10.1080/00268976.2014.952696

 Q-Chem 5.2.0 for Intel X86 EM64T Linux

 Parts of Q-Chem use Armadillo 8.300.2 (Tropical Shenanigans).
 http://arma.sourceforge.net/

 Q-Chem begins on Sun Sep 26 02:03:58 2021  

Host: cori01
0

     Scratch files written to /tmp/qchem19388//
 May1019 |scratch|qcdevops|jenkins|workspace|build_RNUM -1
Processing $rem in /global/common/cori/software/qchem/5.2/config/preferences:
	 MEM_TOTAL  96000 
NAlpha2: 100
NElect   100
Mult     1
Symmetry turned off for PCM/SM12/SMD calculation

 Q-Chem warning in module libgen/rem_setup.C, line 2803:

 Neither GIA nor STOLL is specified by user. Use STOLL as the default


Checking the input file for inconsistencies... 	...done.

--------------------------------------------------------------
User input:
--------------------------------------------------------------
$comment
SSI-007PHE-111PHE-1.pdb
$end

$molecule
0 1
--
0 1
C   -1.475157713887   -2.620338366676    4.708084806121
C   -0.536157713887   -0.744338366676    1.566084806121
C    0.756842286113   -0.328338366676    1.840084806121
C   -1.237157713887   -1.489338366676    2.507084806121
C   -0.667157713887   -1.817338366676    3.729084806121
C    1.340842286113   -0.648338366676    3.044084806121
C    0.637842286113   -1.397338366676    3.990084806121
H   -0.990157713887   -0.529338366676    0.614084806121
H    1.303842286113    0.256661633324    1.114084806121
H   -2.241157713887   -1.818338366676    2.279084806121
H    2.346842286113   -0.313338366676    3.257084806121
H   -1.860157713887   -3.495338366676    4.196084806121
H   -2.329157713887   -2.003338366676    4.991084806121
H    1.106842286113   -1.572338366676    4.929084806121
H   -0.962187713887   -2.930422366676    5.630424806121
--
0 1
C    1.226842286113    1.362661633324   -5.288915193879
C   -0.592157713887    1.283661633324   -1.413915193879
C   -0.933157713887    0.327661633324   -2.358915193879
C    0.337842286113    2.258661633324   -1.724915193879
C   -0.344157713887    0.354661633324   -3.611915193879
C    0.927842286113    2.284661633324   -2.978915193879
C    0.597842286113    1.325661633324   -3.925915193879
H   -1.071157713887    1.298661633324   -0.446915193879
H   -1.663157713887   -0.433338366676   -2.118915193879
H    0.603842286113    3.000661633324   -0.985915193879
H   -0.612157713887   -0.398338366676   -4.339915193879
H    1.660842286113    3.037661633324   -3.208915193879
H    1.311842286113    0.345661633324   -5.676915193879
H    2.241842286113    1.753661633324   -5.199915193879
H    0.667692286113    1.988191633324   -6.000295193879
$end

$rem
JOBTYPE			EDA
EDA2			1
method			wB97X-V
BASIS			def2-TZVPD
XC_GRID			000099000590
NL_GRID			1
UNRESTRICTED		FALSE
MAX_SCF_CYCLES		200
SYMMETRY		FALSE
SYM_IGNORE		TRUE
MEM_STATIC		2000
BASIS_LIN_DEP_THRESH 	6
THRESH 			14
SCF_CONVERGENCE 	8
SCF_PRINT_FRGM 		TRUE
SOLVENT_METHOD          PCM
$end

$PCM
THEORY                  CPCM
METHOD                  SWIG
SOLVER                  INVERSION
RADII                   UFF
HPOINTS                 302
HEAVYPOINTS             302
PRINTLEVEL              0
$END

$SOLVENT
DIELECTRIC              78.390000 ! water
$END
--------------------------------------------------------------
 ----------------------------------------------------------------
             Standard Nuclear Orientation (Angstroms)
    I     Atom           X                Y                Z
 ----------------------------------------------------------------
    1      C      -1.4751577139    -2.6203383667     4.7080848061
    2      C      -0.5361577139    -0.7443383667     1.5660848061
    3      C       0.7568422861    -0.3283383667     1.8400848061
    4      C      -1.2371577139    -1.4893383667     2.5070848061
    5      C      -0.6671577139    -1.8173383667     3.7290848061
    6      C       1.3408422861    -0.6483383667     3.0440848061
    7      C       0.6378422861    -1.3973383667     3.9900848061
    8      H      -0.9901577139    -0.5293383667     0.6140848061
    9      H       1.3038422861     0.2566616333     1.1140848061
   10      H      -2.2411577139    -1.8183383667     2.2790848061
   11      H       2.3468422861    -0.3133383667     3.2570848061
   12      H      -1.8601577139    -3.4953383667     4.1960848061
   13      H      -2.3291577139    -2.0033383667     4.9910848061
   14      H       1.1068422861    -1.5723383667     4.9290848061
   15      H      -0.9621877139    -2.9304223667     5.6304248061
   16      C       1.2268422861     1.3626616333    -5.2889151939
   17      C      -0.5921577139     1.2836616333    -1.4139151939
   18      C      -0.9331577139     0.3276616333    -2.3589151939
   19      C       0.3378422861     2.2586616333    -1.7249151939
   20      C      -0.3441577139     0.3546616333    -3.6119151939
   21      C       0.9278422861     2.2846616333    -2.9789151939
   22      C       0.5978422861     1.3256616333    -3.9259151939
   23      H      -1.0711577139     1.2986616333    -0.4469151939
   24      H      -1.6631577139    -0.4333383667    -2.1189151939
   25      H       0.6038422861     3.0006616333    -0.9859151939
   26      H      -0.6121577139    -0.3983383667    -4.3399151939
   27      H       1.6608422861     3.0376616333    -3.2089151939
   28      H       1.3118422861     0.3456616333    -5.6769151939
   29      H       2.2418422861     1.7536616333    -5.1999151939
   30      H       0.6676922861     1.9881916333    -6.0002951939
 ----------------------------------------------------------------
 Nuclear Repulsion Energy =         745.60217785 hartrees
 There are       50 alpha and       50 beta electrons
 Requested basis set is def2-TZVPD
 There are 262 shells and 662 basis functions

 Total QAlloc Memory Limit  96000 MB
 Mega-Array Size      1956 MB
 MEM_STATIC part      2000 MB
 Discretize the solute cavity surface with Lebedev spheres
	Using 302 Lebedev grid points for each H atom
	Using 302 Lebedev grid points for other atoms
	Atomic van der Waals radii will be scaled by 1.20
 Remove points where switching function is < 1.0e-08
 Keep 3380 surface tesserae and discard 5680 interior tesserae
 Molecular Surface Area = 328.414 Angst**2
 A cutoff of  1.0D-14 yielded  27466 shell pairs
 There are    175720 function pairs (    221382 Cartesian)
 Smallest overlap matrix eigenvalue = 4.58E-07
 Linear dependence detected in AO basis
 Tighter screening thresholds may be required for diffuse basis sets
 Use S2THRESH > 14 and THRESH = 14 in case of SCF convergence issues
 Number of orthogonalized atomic orbitals = 659
 Maximum deviation from orthogonality = 1.281E-10

 Scale SEOQF with 1.000000e-01/1.000000e-01/1.000000e-02

 Standard Electronic Orientation quadrupole field applied
 Nucleus-field energy     =     0.0000000092 hartrees

 -----------------------------------------------------------------------
  General SCF calculation program by
  Eric Jon Sundstrom, Paul Horn, Yuezhi Mao, Dmitri Zuev, Alec White,
  David Stuck, Shaama M.S., Shane Yost, Joonho Lee, David Small,
  Daniel Levine, Susi Lehtola, Hugh Burton, Evgeny Epifanovsky
 -----------------------------------------------------------------------
================================================================
                 ALMO-EDA with the EDA2 driver                  
================================================================
 The second-generation ALMO-EDA (for DFT):                      
 P. R. Horn, Y. Mao and M. Head-Gordon, PCCP, 18, 23067 (2016)  
 Decomposition of the frozen energy:                            
 P. R. Horn, Y. Mao and M. Head-Gordon, JCP, 144, 114107 (2016) 
 FERF model for polarization:                                   
 P. R. Horn and M. Head-Gordon, JCP, 143, 114111 (2015)         
Using eda2 option set 1
Option set summary: Frozen orbital wavefunction, initial wavefunction decomposition, and nDQ polarization.
--------------------------------
Printing EDA Options
--------------------------------
eda_child_super_basis      0
fragmo_guess_mode          0
child_mp                   1
child_mp_orders            232
cls_elec                   1
cls_disp                   0
scfmi_mode                 1
scfmi_occs                 0
scfmi_virts                0
frz_relax                  0
frz_relax_method           0
dc_pen_start               0
dc_pen_conv                0
dc_pen_increment           0
dc_pen_steps               0
dc_pen_thresh_factor       0
dc_pen_pre_newton_thresh   0
frz_ortho_decomp           1
frz_ortho_decomp_conv      6
frgm_method                2
scfmi_freeze_ss            0
separate_rehyb             0
plot_diff_den              0
eda_nocv                   0
eda_vct_relax              1
disp_free_x                0
disp_free_c                0
eda_bsse                   0
eda_pct_a                  0
eda_covp                   0
--------------------------------
Attempting to make child job directory: /tmp/qchem19388//Frg1/
Attempting to make child job directory: /tmp/qchem19388//Frg2/
Creating input file /tmp/qchem19388/Frg1.input
using default PutDataFrgm: nothing
calling putenv with: QCSCRATCH=/tmp/qchem19388/ 
calling putenv with: QCLOCALSCR=/tmp/qchem19388/ 
Spawning Job For Fragment 0
                  Welcome to Q-Chem
     A Quantum Leap Into The Future Of Chemistry


 Q-Chem 5.2, Q-Chem, Inc., Pleasanton, CA (2019)

 License issued to: National Energy Research Scientific Computing Center

 Yihan Shao,  Zhengting Gan,  E. Epifanovsky,  A. T. B. Gilbert,  M. Wormit,  
 J. Kussmann,  A. W. Lange,  A. Behn,  Jia Deng,  Xintian Feng,  D. Ghosh,  
 M. Goldey,  P. R. Horn,  L. D. Jacobson,  I. Kaliman,  T. Kus,  A. Landau,  
 Jie Liu,  E. I. Proynov,  R. M. Richard,  R. P. Steele,  E. J. Sundstrom,  
 H. L. Woodcock III,  P. M. Zimmerman,  D. Zuev,  B. Albrecht,  E. Alguire,  
 S. A. Baeppler,  D. Barton,  Z. Benda,  Y. A. Bernard,  E. J. Berquist,  
 K. B. Bravaya,  H. Burton,  D. Casanova,  Chun-Min Chang,  Yunqing Chen,  
 A. Chien,  K. D. Closser,  M. P. Coons,  S. Coriani,  S. Dasgupta,  
 A. L. Dempwolff,  M. Diedenhofen,  Hainam Do,  R. G. Edgar,  Po-Tung Fang,  
 S. Faraji,  S. Fatehi,  Qingguo Feng,  K. D. Fenk,  J. Fosso-Tande,  
 J. Gayvert,  Qinghui Ge,  A. Ghysels,  G. Gidofalvi,  J. Gomes,  
 J. Gonthier,  A. Gunina,  D. Hait,  M. W. D. Hanson-Heine,  
 P. H. P. Harbach,  A. W. Hauser,  M. F. Herbst,  J. E. Herr,  
 E. G. Hohenstein,  Z. C. Holden,  Kerwin Hui,  B. C. Huynh,  T.-C. Jagau,  
 Hyunjun Ji,  B. Kaduk,  K. Khistyaev,  Jaehoon Kim,  P. Klunzinger,  K. Koh,  
 D. Kosenkov,  L. Koulias,  T. Kowalczyk,  C. M. Krauter,  A. Kunitsa,  
 Ka Un Lao,  A. Laurent,  K. V. Lawler,  Joonho Lee,  D. Lefrancois,  
 S. Lehtola,  D. S. Levine,  Yi-Pei Li,  You-Sheng Lin,  Fenglai Liu,  
 E. Livshits,  A. Luenser,  P. Manohar,  E. Mansoor,  S. F. Manzer,  
 Shan-Ping Mao,  Yuezhi Mao,  N. Mardirossian,  A. V. Marenich,  
 T. Markovich,  L. A. Martinez-Martinez,  S. A. Maurer,  N. J. Mayhall,  
 S. C. McKenzie,  J.-M. Mewes,  P. Morgante,  A. F. Morrison,  
 J. W. Mullinax,  K. Nanda,  T. S. Nguyen-Beck,  R. Olivares-Amaya,  
 J. A. Parkhill,  Zheng Pei,  T. M. Perrine,  F. Plasser,  P. Pokhilko,  
 S. Prager,  A. Prociuk,  E. Ramos,  D. R. Rehn,  F. Rob,  M. Scheurer,  
 M. Schneider,  N. Sergueev,  S. M. Sharada,  S. Sharma,  D. W. Small,  
 T. Stauch,  T. Stein,  Yu-Chuan Su,  A. J. W. Thom,  A. Tkatchenko,  
 T. Tsuchimochi,  N. M. Tubman,  L. Vogt,  M. L. Vidal,  O. Vydrov,  
 M. A. Watson,  J. Wenzel,  M. de Wergifosse,  T. A. Wesolowski,  A. White,  
 J. Witte,  A. Yamada,  Jun Yang,  K. Yao,  S. Yeganeh,  S. R. Yost,  
 Zhi-Qiang You,  A. Zech,  Igor Ying Zhang,  Xing Zhang,  Yan Zhao,  
 Ying Zhu,  B. R. Brooks,  G. K. L. Chan,  C. J. Cramer,  M. S. Gordon,  
 W. J. Hehre,  A. Klamt,  M. W. Schmidt,  C. D. Sherrill,  D. G. Truhlar,  
 A. Aspuru-Guzik,  R. Baer,  A. T. Bell,  N. A. Besley,  Jeng-Da Chai,  
 A. E. DePrince, III,  R. A. DiStasio Jr.,  A. Dreuw,  B. D. Dunietz,  
 T. R. Furlani,  Chao-Ping Hsu,  Yousung Jung,  Jing Kong,  D. S. Lambrecht,  
 WanZhen Liang,  C. Ochsenfeld,  V. A. Rassolov,  L. V. Slipchenko,  
 J. E. Subotnik,  T. Van Voorhis,  J. M. Herbert,  A. I. Krylov,  
 P. M. W. Gill,  M. Head-Gordon

 Contributors to earlier versions of Q-Chem not listed above: 
 R. D. Adamson,  B. Austin,  J. Baker,  G. J. O. Beran,  K. Brandhorst,  
 S. T. Brown,  E. F. C. Byrd,  A. K. Chakraborty,  C.-L. Cheng,  
 Siu Hung Chien,  D. M. Chipman,  D. L. Crittenden,  H. Dachsel,  
 R. J. Doerksen,  A. D. Dutoi,  L. Fusti-Molnar,  W. A. Goddard III,  
 A. Golubeva-Zadorozhnaya,  S. R. Gwaltney,  G. Hawkins,  A. Heyden,  
 S. Hirata,  G. Kedziora,  F. J. Keil,  C. Kelley,  Jihan Kim,  R. A. King,  
 R. Z. Khaliullin,  P. P. Korambath,  W. Kurlancheek,  A. M. Lee,  M. S. Lee,  
 S. V. Levchenko,  Ching Yeh Lin,  D. Liotard,  R. C. Lochan,  I. Lotan,  
 P. E. Maslen,  N. Nair,  D. P. O'Neill,  D. Neuhauser,  E. Neuscamman,  
 C. M. Oana,  R. Olson,  B. Peters,  R. Peverati,  P. A. Pieniazek,  
 Y. M. Rhee,  J. Ritchie,  M. A. Rohrdanz,  E. Rosta,  N. J. Russ,  
 H. F. Schaefer III,  N. E. Schultz,  N. Shenvi,  A. C. Simmonett,  A. Sodt,  
 D. Stuck,  K. S. Thanthiriwatte,  V. Vanovschi,  Tao Wang,  A. Warshel,  
 C. F. Williams,  Q. Wu,  X. Xu,  W. Zhang

 Please cite Q-Chem as follows:
 Y. Shao et al., Mol. Phys. 113, 184-215 (2015)
 DOI: 10.1080/00268976.2014.952696

 Q-Chem 5.2.0 for Intel X86 EM64T Linux

 Parts of Q-Chem use Armadillo 8.300.2 (Tropical Shenanigans).
 http://arma.sourceforge.net/

 Q-Chem begins on Sun Sep 26 02:04:05 2021  

Host: cori01
0

     Scratch files written to /tmp/qchem19388//Frg1//
 May1019 |scratch|qcdevops|jenkins|workspace|build_RNUM -1
Processing $rem in /global/common/cori/software/qchem/5.2/config/preferences:
	 MEM_TOTAL  96000 
NAlpha2: 50
NElect   50
Mult     1
Symmetry turned off for PCM/SM12/SMD calculation

Checking the input file for inconsistencies... 	...done.

--------------------------------------------------------------
User input:
--------------------------------------------------------------
$molecule
0 1
 6	-1.4751577139	-2.6203383667	4.7080848061
 6	-0.5361577139	-0.7443383667	1.5660848061
 6	0.7568422861	-0.3283383667	1.8400848061
 6	-1.2371577139	-1.4893383667	2.5070848061
 6	-0.6671577139	-1.8173383667	3.7290848061
 6	1.3408422861	-0.6483383667	3.0440848061
 6	0.6378422861	-1.3973383667	3.9900848061
 1	-0.9901577139	-0.5293383667	0.6140848061
 1	1.3038422861	0.2566616333	1.1140848061
 1	-2.2411577139	-1.8183383667	2.2790848061
 1	2.3468422861	-0.3133383667	3.2570848061
 1	-1.8601577139	-3.4953383667	4.1960848061
 1	-2.3291577139	-2.0033383667	4.9910848061
 1	1.1068422861	-1.5723383667	4.9290848061
 1	-0.9621877139	-2.9304223667	5.6304248061
$end
$rem
EDA2		1
METHOD		WB97X-V
BASIS		DEF2-TZVPD
XC_GRID		000099000590
NL_GRID		1
UNRESTRICTED		FALSE
MAX_SCF_CYCLES		200
SYMMETRY		FALSE
SYM_IGNORE		TRUE
BASIS_LIN_DEP_THRESH		6
THRESH		14
SCF_CONVERGENCE		8
SCF_PRINT_FRGM		TRUE
SOLVENT_METHOD		PCM
!required keywords
JOBTYPE		SP
SYM_IGNORE		TRUE
SUBSYSTEM		TRUE
GEN_SCFMAN		TRUE
CHILD_INSTRUCTION		2
SYM_IGNORE		TRUE
SCFMI		0
RI_K 0		
PARI_K 0		
MIN_PARI_K 0		
IARI_K 0		
OCC_RI_K 0		
PURECART		1111
MEM_STATIC		2000
MEM_TOTAL		96000
GUI		0
CHILD_MP		1
CHILD_MP_ORDERS		232
FRZ_RELAX		0
FRZ_RELAX_METHOD		0
EDA_CLS_ELEC		1
EDA_CLS_DISP		0
FRZ_ORTHO_DECOMP		1
EDA2		FALSE
FRGM_METHOD		FALSE
CIS_N_ROOTS  0
LOCAL_CIS    0
CIS_RLX_DNS  1
$end
$pcm
THEORY                  CPCM
METHOD                  SWIG
SOLVER                  INVERSION
RADII                   UFF
HPOINTS                 302
HEAVYPOINTS             302
PRINTLEVEL              0
$end
$solvent
DIELECTRIC              78.390000 ! water
$end
--------------------------------------------------------------
 ----------------------------------------------------------------
             Standard Nuclear Orientation (Angstroms)
    I     Atom           X                Y                Z
 ----------------------------------------------------------------
    1      C      -1.4751577139    -2.6203383667     4.7080848061
    2      C      -0.5361577139    -0.7443383667     1.5660848061
    3      C       0.7568422861    -0.3283383667     1.8400848061
    4      C      -1.2371577139    -1.4893383667     2.5070848061
    5      C      -0.6671577139    -1.8173383667     3.7290848061
    6      C       1.3408422861    -0.6483383667     3.0440848061
    7      C       0.6378422861    -1.3973383667     3.9900848061
    8      H      -0.9901577139    -0.5293383667     0.6140848061
    9      H       1.3038422861     0.2566616333     1.1140848061
   10      H      -2.2411577139    -1.8183383667     2.2790848061
   11      H       2.3468422861    -0.3133383667     3.2570848061
   12      H      -1.8601577139    -3.4953383667     4.1960848061
   13      H      -2.3291577139    -2.0033383667     4.9910848061
   14      H       1.1068422861    -1.5723383667     4.9290848061
   15      H      -0.9621877139    -2.9304223667     5.6304248061
 ----------------------------------------------------------------
 Nuclear Repulsion Energy =         270.53212113 hartrees
 There are       25 alpha and       25 beta electrons
 Requested basis set is def2-TZVPD
 There are 131 shells and 331 basis functions

 Total QAlloc Memory Limit  96000 MB
 Mega-Array Size      1956 MB
 MEM_STATIC part      2000 MB
 Discretize the solute cavity surface with Lebedev spheres
	Using 302 Lebedev grid points for each H atom
	Using 302 Lebedev grid points for other atoms
	Atomic van der Waals radii will be scaled by 1.20
 Remove points where switching function is < 1.0e-08
 Keep 1795 surface tesserae and discard 2735 interior tesserae
 Molecular Surface Area = 177.880 Angst**2

                       Distance Matrix (Angstroms)
             C (  1)   C (  2)   C (  3)   C (  4)   C (  5)   C (  6)
   C (  2)  3.777997
   C (  3)  4.296570  1.385634
   C (  4)  2.486002  1.389931  2.401842
   C (  5)  1.502037  2.418069  2.795213  1.387720
   C (  6)  3.819363  2.390989  1.375890  2.764369  2.422365
   C (  7)  2.544803  2.771364  2.404043  2.392358  1.395545  1.396469
   H (  8)  4.622590  1.076404  2.143708  2.136834  3.386222  3.369365
   H (  9)  5.377435  2.142873  1.080976  3.383141  3.876150  2.131970
   H ( 10)  2.670206  2.137492  3.376511  1.080852  2.140088  3.845107
   H ( 11)  4.694181  3.370005  2.129839  3.845846  3.401323  1.081494
   H ( 12)  1.084433  4.029625  4.735960  2.695345  2.111166  4.436092
   H ( 13)  1.090914  4.065779  4.717820  2.761687  2.095110  4.369867
   H ( 14)  2.795330  3.833380  3.348426  3.371544  2.155714  2.112287
   H ( 15)  1.100001  4.634579  4.908420  3.450737  2.222857  4.147410
             C (  7)   H (  8)   H (  9)   H ( 10)   H ( 11)   H ( 12)
   H (  8)  3.847231
   H (  9)  3.383881  2.475931
   H ( 10)  3.375412  2.449234  4.269646
   H ( 11)  2.152447  4.262355  2.450551  4.926586
   H ( 12)  3.268646  4.731256  5.795440  2.575341  5.357769
   H ( 13)  3.189408  4.808714  5.773856  2.719727  5.265722  1.754437
   H ( 14)  1.064099  4.909632  4.235360  4.276929  2.432748  3.610860
   H ( 15)  2.757020  5.561443  5.974088  3.755526  4.840615  1.784044
             H ( 13)   H ( 14)
   H ( 14)  3.463481
   H ( 15)  1.771115  2.572383
 
 A cutoff of  1.0D-14 yielded   8368 shell pairs
 There are     54522 function pairs (     69478 Cartesian)
 Smallest overlap matrix eigenvalue = 5.40E-07
 Linear dependence detected in AO basis
 Tighter screening thresholds may be required for diffuse basis sets
 Use S2THRESH > 14 and THRESH = 14 in case of SCF convergence issues
 Number of orthogonalized atomic orbitals = 330
 Maximum deviation from orthogonality = 1.645E-10

 Scale SEOQF with 1.000000e-01/1.000000e-01/1.000000e-02

 Standard Electronic Orientation quadrupole field applied
 Nucleus-field energy     =     0.0000000053 hartrees
 Guess from superposition of atomic densities
 Warning:  Energy on first SCF cycle will be non-variational
 SAD guess density has 49.913408 electrons

 -----------------------------------------------------------------------
  General SCF calculation program by
  Eric Jon Sundstrom, Paul Horn, Yuezhi Mao, Dmitri Zuev, Alec White,
  David Stuck, Shaama M.S., Shane Yost, Joonho Lee, David Small,
  Daniel Levine, Susi Lehtola, Hugh Burton, Evgeny Epifanovsky
 -----------------------------------------------------------------------
 Exchange:     0.1670 Hartree-Fock + 1.0000 wB97X-V + LR-HF
 Correlation:  1.0000 wB97X-V
 Using Euler-Maclaurin-Lebedev (99,590) quadrature formula
 Nonlocal Correlation:  VV10 with C = 0.0100 and b = 6.00 and scale = 1.00000
 Grid used for NLC:  SG-1 standard quadrature
Energy prior to optimization (guess energy) = -271.517076393613
Begin Timing: Total SCF Calculation
begin iterations for algorithm: DIIS         
the SCF tolerance is set to 1.00e-08
    1    -271.5170763936      1.99e-03     00000 
    2    -271.5568954115      1.28e-03     00000 
    3    -271.5795726771      1.39e-04     00000 
    4    -271.5799879590      4.74e-05     00000 
    5    -271.5800220232      1.52e-05     00000 
    6    -271.5800263040      3.14e-06     00000 
    7    -271.5800265802      8.30e-07     00000 
    8    -271.5800265970      3.41e-07     00000 
    9    -271.5800265997      1.01e-07     00000 
   10    -271.5800266003      4.14e-08     00000 
   11    -271.5800266004      2.40e-08     00000 
   12    -271.5800266004      5.63e-09     00000 Convergence criterion met
Timing for Total SCF: 1559.00s (wall), 3094.07s (cpu)

************** Final PCM Free Energy Summary **************
 G_electrostatic  =      -0.00245962 hartree =      -1.54343365 kcal/mol
 G_cavitation     =       0.00000000 hartree =       0.00000000 kcal/mol
 G_dispersion     =       0.00000000 hartree =       0.00000000 kcal/mol
 G_repulsion      =       0.00000000 hartree =       0.00000000 kcal/mol
 --------------------------------------------------
 Non-electrostatic Free Energy =       0.00000000 hartree =       0.00000000 kcal/mol
 Total                         =      -0.00245962 hartree =      -1.54343365 kcal/mol
 --------------------------------------------------
 SCF Energy (H0 + V/2)                       =    -271.58002660 
 Solute Internal Energy (H0)                 =    -271.57756698 
 Total Free Energy (H0 + V/2 + non-elec)     =    -271.58002660 hartree
                                             = -170419.03882619 kcal/mol
***********************************************************

E_pcm = -0.0024596181
Multipole orders to be included
        2
        3
computing dipole RHS
computing quadrupole RHS
total number of RHS in solve_reponses: 8
RHS batch sizes
        8
Beginning Block Conjugate Gradient Iterations. Batch Number: 0
computing hessian-vector products by finite difference
              1      5.71e-01     00000 Conjugate Gradient Iteration
computing hessian-vector products by finite difference
              2      1.87e-01     00000 Conjugate Gradient Iteration
computing hessian-vector products by finite difference
              3      4.34e-02     00000 Conjugate Gradient Iteration
computing hessian-vector products by finite difference
              4      9.92e-03     00000 Conjugate Gradient Iteration
computing hessian-vector products by finite difference
              5      1.99e-03     00000 Conjugate Gradient Iteration
computing hessian-vector products by finite difference
              6      5.02e-04     00000 Conjugate Gradient Iteration
computing hessian-vector products by finite difference
              7      1.65e-04     00000 Conjugate Gradient Iteration
computing hessian-vector products by finite difference
              8      2.42e-05     00000 Conjugate Gradient Iteration
computing hessian-vector products by finite difference
              9      2.78e-06     00000 Conjugate Gradient Iteration
computing hessian-vector products by finite difference
             10      4.83e-07     00000 Conjugate Gradient Iteration
computing hessian-vector products by finite difference
             11      7.86e-08     00000 Conjugate Gradient Iteration
computing hessian-vector products by finite difference
             12      1.08e-08     00000 Conjugate Gradient Iteration
computing hessian-vector products by finite difference
             13      2.29e-09     00000 CG Converged
batch 0 complete
Done Calculating Responses
TESTING ORTHOGONALIZATION OF MULTIPOLE BASIS
Multipole virts passed orthogonality test
Virts Per Order
           75
          125
 
 --------------------------------------------------------------
 
                    Orbital Energies (a.u.)
 --------------------------------------------------------------
 
 Alpha MOs
 -- Occupied --
-10.2825 -10.2715 -10.2707 -10.2681 -10.2679 -10.2670 -10.2625  -0.9993
 -0.9097  -0.8793  -0.8153  -0.7313  -0.7069  -0.6317  -0.5748  -0.5680
 -0.5374  -0.5295  -0.5164  -0.4905  -0.4737  -0.4436  -0.4398  -0.3487
 -0.3384
 -- Virtual --
  0.0629   0.0634   0.0706   0.0787   0.0845   0.1042   0.1099   0.1134
  0.1363   0.1543   0.1642   0.1709   0.1794   0.1896   0.1942   0.2011
  0.2236   0.2285   0.2326   0.2424   0.2464   0.2537   0.2593   0.2713
  0.2791   0.2825   0.2887   0.2905   0.2932   0.2996   0.3023   0.3138
  0.3230   0.3275   0.3305   0.3430   0.3448   0.3506   0.3669   0.3713
  0.3729   0.3808   0.3870   0.3905   0.3926   0.3972   0.4008   0.4020
  0.4153   0.4263   0.4294   0.4394   0.4432   0.4484   0.4529   0.4564
  0.4664   0.4681   0.4811   0.4846   0.4973   0.5001   0.5098   0.5110
  0.5158   0.5217   0.5303   0.5423   0.5438   0.5527   0.5606   0.5680
  0.5695   0.5729   0.5901   0.5924   0.5985   0.6232   0.6311   0.6439
  0.6559   0.6712   0.6798   0.6873   0.6936   0.7031   0.7176   0.7220
  0.7274   0.7300   0.7418   0.7618   0.7653   0.7656   0.7777   0.7838
  0.7867   0.7952   0.7976   0.7997   0.8126   0.8215   0.8261   0.8266
  0.8302   0.8385   0.8489   0.8519   0.8608   0.8767   0.8823   0.8940
  0.9194   0.9301   0.9423   0.9516   0.9657   1.0040   1.0364   1.0397
  1.0468   1.0615   1.0727   1.0785   1.0930   1.0983   1.1076   1.1402
  1.1597   1.1662   1.2574   1.2820   1.2964   1.3288   1.3549   1.3608
  1.3769   1.4437   1.4534   1.4595   1.4667   1.4776   1.5294   1.5435
  1.6089   1.6170   1.6209   1.6274   1.6386   1.6803   1.7368   1.7656
  1.7816   1.7976   1.8021   1.8164   1.8436   1.8534   1.8840   1.9070
  1.9211   1.9244   1.9322   1.9711   1.9886   1.9981   2.0117   2.0327
  2.0342   2.0438   2.0683   2.0929   2.1151   2.1292   2.1722   2.1772
  2.2089   2.2409   2.2487   2.2622   2.2914   2.3225   2.3734   2.3979
  2.4167   2.4394   2.4549   2.5215   2.5341   2.5606   2.5715   2.6033
  2.6226   2.6320   2.6698   2.6766   2.7210   2.7249   2.7730   2.7831
  2.7926   2.8172   2.8249   2.8490   2.8634   2.8938   2.9095   2.9203
  2.9310   2.9485   2.9692   2.9902   3.0105   3.0137   3.0254   3.0564
  3.0695   3.0974   3.1059   3.1551   3.1656   3.1904   3.1908   3.2103
  3.2375   3.2575   3.2645   3.2893   3.3307   3.3560   3.3667   3.3891
  3.4184   3.4246   3.4440   3.4529   3.4627   3.4652   3.4867   3.5007
  3.5145   3.5325   3.5355   3.5502   3.5549   3.5771   3.5832   3.5964
  3.6145   3.6475   3.6621   3.6983   3.7153   3.7505   3.7560   3.7965
  3.8652   3.8981   3.9452   3.9607   3.9765   3.9946   4.0418   4.0628
  4.1389   4.2151   4.2761   4.2787   4.2876   4.3295   4.3364   4.3648
  4.3679   4.3792   4.3854   4.4111   4.4283   4.4707   4.5278   4.5602
  4.6088   4.6497   4.7514   4.7962   4.8210   4.8560   4.9111   4.9547
  5.0332   5.0476   5.1734   5.2737   5.3937   5.4101   5.4977   5.5257
  5.6845   5.8553  22.5899  22.6898  22.9049  22.9299  23.0273  23.1035
 23.4497
 --------------------------------------------------------------
 
          Ground-State Mulliken Net Atomic Charges

     Atom                 Charge (a.u.)
  ----------------------------------------
      1 C                    -1.029689
      2 C                    -0.491727
      3 C                    -0.453107
      4 C                    -0.250176
      5 C                     0.808024
      6 C                    -0.463887
      7 C                    -0.482337
      8 H                     0.316470
      9 H                     0.331910
     10 H                     0.344454
     11 H                     0.303506
     12 H                     0.245202
     13 H                     0.227377
     14 H                     0.324590
     15 H                     0.269390
  ----------------------------------------
  Sum of atomic charges =     0.000000

 -----------------------------------------------------------------
                    Cartesian Multipole Moments
 -----------------------------------------------------------------
    Charge (ESU x 10^10)
                 0.0000
    Dipole Moment (Debye)
         X      -0.3555      Y      -0.2429      Z       0.3308
       Tot       0.5430
    Quadrupole Moments (Debye-Ang)
        XX     -39.1241     XY       3.1946     YY     -43.3006
        XZ      -0.1350     YZ      -3.8068     ZZ     -37.2504
    Octopole Moments (Debye-Ang^2)
       XXX      26.0583    XXY      53.3982    XYY       1.4607
       YYY     170.5234    XXZ    -121.4181    XYZ       7.3929
       YYZ    -127.2967    XZZ      10.4395    YZZ      33.0769
       ZZZ    -356.8240
    Hexadecapole Moments (Debye-Ang^3)
      XXXX    -361.3095   XXXY    -107.2440   XXYY    -170.4478
      XYYY    -101.6323   YYYY    -672.2786   XXXZ     123.3389
      XXYZ     198.3084   XYYZ      18.4009   YYYZ     614.7208
      XXZZ    -502.5267   XYZZ     -22.7366   YYZZ    -550.1276
      XZZZ     135.4890   YZZZ     493.6223   ZZZZ   -2626.3059
 -----------------------------------------------------------------
Archival summary:
1\1\nid00523\SP\ProcedureUnspecified\BasisUnspecified\78\meili\SunSep2610:44:072021SunSep2610:44:072021\0\\#,ProcedureUnspecified,BasisUnspecified,\\0,1\C\C,1,1.38772\H,2,1.08085,1,119.693\C,2,1.38993,1,121.044,3,-179.875,0\H,4,1.0764,2,119.545,1,178.131,0\C,4,1.38563,2,119.846,1,0.55427,0\H,6,1.08098,4,120.123,2,-179.607,0\C,6,1.37589,4,119.953,2,-0.289308,0\H,8,1.08149,6,119.678,4,-179.42,0\C,1,1.39555,2,118.532,3,179.044,0\H,10,1.0641,1,121.85,2,176.54,0\C,1,1.50204,2,118.643,3,-0.347835,0\H,12,1.08443,1,108.337,2,51.2283,0\H,12,1.09091,1,106.728,2,-64.2791,0\H,12,1.1,1,116.51,2,175.182,0\\\@

 Total job time:  31204.42s(wall), 61830.98s(cpu) 
 Sun Sep 26 10:44:09 2021

        *************************************************************
        *                                                           *
        *  Thank you very much for using Q-Chem.  Have a nice day.  *
        *                                                           *
        *************************************************************


Done Job For Fragment 0
calling putenv with: QCSCRATCH=/global/cscratch1/sd/meili 
calling putenv with: QCLOCALSCR=/tmp 
calling putenv with: QCTHREADS=32 
Creating input file /tmp/qchem19388/Frg2.input
using default PutDataFrgm: nothing
calling putenv with: QCSCRATCH=/tmp/qchem19388/ 
calling putenv with: QCLOCALSCR=/tmp/qchem19388/ 
Spawning Job For Fragment 1
                  Welcome to Q-Chem
     A Quantum Leap Into The Future Of Chemistry


 Q-Chem 5.2, Q-Chem, Inc., Pleasanton, CA (2019)

 License issued to: National Energy Research Scientific Computing Center

 Yihan Shao,  Zhengting Gan,  E. Epifanovsky,  A. T. B. Gilbert,  M. Wormit,  
 J. Kussmann,  A. W. Lange,  A. Behn,  Jia Deng,  Xintian Feng,  D. Ghosh,  
 M. Goldey,  P. R. Horn,  L. D. Jacobson,  I. Kaliman,  T. Kus,  A. Landau,  
 Jie Liu,  E. I. Proynov,  R. M. Richard,  R. P. Steele,  E. J. Sundstrom,  
 H. L. Woodcock III,  P. M. Zimmerman,  D. Zuev,  B. Albrecht,  E. Alguire,  
 S. A. Baeppler,  D. Barton,  Z. Benda,  Y. A. Bernard,  E. J. Berquist,  
 K. B. Bravaya,  H. Burton,  D. Casanova,  Chun-Min Chang,  Yunqing Chen,  
 A. Chien,  K. D. Closser,  M. P. Coons,  S. Coriani,  S. Dasgupta,  
 A. L. Dempwolff,  M. Diedenhofen,  Hainam Do,  R. G. Edgar,  Po-Tung Fang,  
 S. Faraji,  S. Fatehi,  Qingguo Feng,  K. D. Fenk,  J. Fosso-Tande,  
 J. Gayvert,  Qinghui Ge,  A. Ghysels,  G. Gidofalvi,  J. Gomes,  
 J. Gonthier,  A. Gunina,  D. Hait,  M. W. D. Hanson-Heine,  
 P. H. P. Harbach,  A. W. Hauser,  M. F. Herbst,  J. E. Herr,  
 E. G. Hohenstein,  Z. C. Holden,  Kerwin Hui,  B. C. Huynh,  T.-C. Jagau,  
 Hyunjun Ji,  B. Kaduk,  K. Khistyaev,  Jaehoon Kim,  P. Klunzinger,  K. Koh,  
 D. Kosenkov,  L. Koulias,  T. Kowalczyk,  C. M. Krauter,  A. Kunitsa,  
 Ka Un Lao,  A. Laurent,  K. V. Lawler,  Joonho Lee,  D. Lefrancois,  
 S. Lehtola,  D. S. Levine,  Yi-Pei Li,  You-Sheng Lin,  Fenglai Liu,  
 E. Livshits,  A. Luenser,  P. Manohar,  E. Mansoor,  S. F. Manzer,  
 Shan-Ping Mao,  Yuezhi Mao,  N. Mardirossian,  A. V. Marenich,  
 T. Markovich,  L. A. Martinez-Martinez,  S. A. Maurer,  N. J. Mayhall,  
 S. C. McKenzie,  J.-M. Mewes,  P. Morgante,  A. F. Morrison,  
 J. W. Mullinax,  K. Nanda,  T. S. Nguyen-Beck,  R. Olivares-Amaya,  
 J. A. Parkhill,  Zheng Pei,  T. M. Perrine,  F. Plasser,  P. Pokhilko,  
 S. Prager,  A. Prociuk,  E. Ramos,  D. R. Rehn,  F. Rob,  M. Scheurer,  
 M. Schneider,  N. Sergueev,  S. M. Sharada,  S. Sharma,  D. W. Small,  
 T. Stauch,  T. Stein,  Yu-Chuan Su,  A. J. W. Thom,  A. Tkatchenko,  
 T. Tsuchimochi,  N. M. Tubman,  L. Vogt,  M. L. Vidal,  O. Vydrov,  
 M. A. Watson,  J. Wenzel,  M. de Wergifosse,  T. A. Wesolowski,  A. White,  
 J. Witte,  A. Yamada,  Jun Yang,  K. Yao,  S. Yeganeh,  S. R. Yost,  
 Zhi-Qiang You,  A. Zech,  Igor Ying Zhang,  Xing Zhang,  Yan Zhao,  
 Ying Zhu,  B. R. Brooks,  G. K. L. Chan,  C. J. Cramer,  M. S. Gordon,  
 W. J. Hehre,  A. Klamt,  M. W. Schmidt,  C. D. Sherrill,  D. G. Truhlar,  
 A. Aspuru-Guzik,  R. Baer,  A. T. Bell,  N. A. Besley,  Jeng-Da Chai,  
 A. E. DePrince, III,  R. A. DiStasio Jr.,  A. Dreuw,  B. D. Dunietz,  
 T. R. Furlani,  Chao-Ping Hsu,  Yousung Jung,  Jing Kong,  D. S. Lambrecht,  
 WanZhen Liang,  C. Ochsenfeld,  V. A. Rassolov,  L. V. Slipchenko,  
 J. E. Subotnik,  T. Van Voorhis,  J. M. Herbert,  A. I. Krylov,  
 P. M. W. Gill,  M. Head-Gordon

 Contributors to earlier versions of Q-Chem not listed above: 
 R. D. Adamson,  B. Austin,  J. Baker,  G. J. O. Beran,  K. Brandhorst,  
 S. T. Brown,  E. F. C. Byrd,  A. K. Chakraborty,  C.-L. Cheng,  
 Siu Hung Chien,  D. M. Chipman,  D. L. Crittenden,  H. Dachsel,  
 R. J. Doerksen,  A. D. Dutoi,  L. Fusti-Molnar,  W. A. Goddard III,  
 A. Golubeva-Zadorozhnaya,  S. R. Gwaltney,  G. Hawkins,  A. Heyden,  
 S. Hirata,  G. Kedziora,  F. J. Keil,  C. Kelley,  Jihan Kim,  R. A. King,  
 R. Z. Khaliullin,  P. P. Korambath,  W. Kurlancheek,  A. M. Lee,  M. S. Lee,  
 S. V. Levchenko,  Ching Yeh Lin,  D. Liotard,  R. C. Lochan,  I. Lotan,  
 P. E. Maslen,  N. Nair,  D. P. O'Neill,  D. Neuhauser,  E. Neuscamman,  
 C. M. Oana,  R. Olson,  B. Peters,  R. Peverati,  P. A. Pieniazek,  
 Y. M. Rhee,  J. Ritchie,  M. A. Rohrdanz,  E. Rosta,  N. J. Russ,  
 H. F. Schaefer III,  N. E. Schultz,  N. Shenvi,  A. C. Simmonett,  A. Sodt,  
 D. Stuck,  K. S. Thanthiriwatte,  V. Vanovschi,  Tao Wang,  A. Warshel,  
 C. F. Williams,  Q. Wu,  X. Xu,  W. Zhang

 Please cite Q-Chem as follows:
 Y. Shao et al., Mol. Phys. 113, 184-215 (2015)
 DOI: 10.1080/00268976.2014.952696

 Q-Chem 5.2.0 for Intel X86 EM64T Linux

 Parts of Q-Chem use Armadillo 8.300.2 (Tropical Shenanigans).
 http://arma.sourceforge.net/

 Q-Chem begins on Sun Sep 26 10:44:12 2021  

Host: cori01
0

     Scratch files written to /tmp/qchem19388//Frg2//
 May1019 |scratch|qcdevops|jenkins|workspace|build_RNUM -1
Processing $rem in /global/common/cori/software/qchem/5.2/config/preferences:
	 MEM_TOTAL  96000 
NAlpha2: 50
NElect   50
Mult     1
Symmetry turned off for PCM/SM12/SMD calculation

Checking the input file for inconsistencies... 	...done.

--------------------------------------------------------------
User input:
--------------------------------------------------------------
$molecule
0 1
 6	1.2268422861	1.3626616333	-5.2889151939
 6	-0.5921577139	1.2836616333	-1.4139151939
 6	-0.9331577139	0.3276616333	-2.3589151939
 6	0.3378422861	2.2586616333	-1.7249151939
 6	-0.3441577139	0.3546616333	-3.6119151939
 6	0.9278422861	2.2846616333	-2.9789151939
 6	0.5978422861	1.3256616333	-3.9259151939
 1	-1.0711577139	1.2986616333	-0.4469151939
 1	-1.6631577139	-0.4333383667	-2.1189151939
 1	0.6038422861	3.0006616333	-0.9859151939
 1	-0.6121577139	-0.3983383667	-4.3399151939
 1	1.6608422861	3.0376616333	-3.2089151939
 1	1.3118422861	0.3456616333	-5.6769151939
 1	2.2418422861	1.7536616333	-5.1999151939
 1	0.6676922861	1.9881916333	-6.0002951939
$end
$rem
EDA2		1
METHOD		WB97X-V
BASIS		DEF2-TZVPD
XC_GRID		000099000590
NL_GRID		1
UNRESTRICTED		FALSE
MAX_SCF_CYCLES		200
SYMMETRY		FALSE
SYM_IGNORE		TRUE
BASIS_LIN_DEP_THRESH		6
THRESH		14
SCF_CONVERGENCE		8
SCF_PRINT_FRGM		TRUE
SOLVENT_METHOD		PCM
!required keywords
JOBTYPE		SP
SYM_IGNORE		TRUE
SUBSYSTEM		TRUE
GEN_SCFMAN		TRUE
CHILD_INSTRUCTION		2
SYM_IGNORE		TRUE
SCFMI		0
RI_K 0		
PARI_K 0		
MIN_PARI_K 0		
IARI_K 0		
OCC_RI_K 0		
PURECART		1111
MEM_STATIC		2000
MEM_TOTAL		96000
GUI		0
CHILD_MP		1
CHILD_MP_ORDERS		232
FRZ_RELAX		0
FRZ_RELAX_METHOD		0
EDA_CLS_ELEC		1
EDA_CLS_DISP		0
FRZ_ORTHO_DECOMP		1
EDA2		FALSE
FRGM_METHOD		FALSE
CIS_N_ROOTS  0
LOCAL_CIS    0
CIS_RLX_DNS  1
$end
$pcm
THEORY                  CPCM
METHOD                  SWIG
SOLVER                  INVERSION
RADII                   UFF
HPOINTS                 302
HEAVYPOINTS             302
PRINTLEVEL              0
$end
$solvent
DIELECTRIC              78.390000 ! water
$end
--------------------------------------------------------------
 ----------------------------------------------------------------
             Standard Nuclear Orientation (Angstroms)
    I     Atom           X                Y                Z
 ----------------------------------------------------------------
    1      C       1.2268422861     1.3626616333    -5.2889151939
    2      C      -0.5921577139     1.2836616333    -1.4139151939
    3      C      -0.9331577139     0.3276616333    -2.3589151939
    4      C       0.3378422861     2.2586616333    -1.7249151939
    5      C      -0.3441577139     0.3546616333    -3.6119151939
    6      C       0.9278422861     2.2846616333    -2.9789151939
    7      C       0.5978422861     1.3256616333    -3.9259151939
    8      H      -1.0711577139     1.2986616333    -0.4469151939
    9      H      -1.6631577139    -0.4333383667    -2.1189151939
   10      H       0.6038422861     3.0006616333    -0.9859151939
   11      H      -0.6121577139    -0.3983383667    -4.3399151939
   12      H       1.6608422861     3.0376616333    -3.2089151939
   13      H       1.3118422861     0.3456616333    -5.6769151939
   14      H       2.2418422861     1.7536616333    -5.1999151939
   15      H       0.6676922861     1.9881916333    -6.0002951939
 ----------------------------------------------------------------
 Nuclear Repulsion Energy =         270.87410942 hartrees
 There are       25 alpha and       25 beta electrons
 Requested basis set is def2-TZVPD
 There are 131 shells and 331 basis functions

 Total QAlloc Memory Limit  96000 MB
 Mega-Array Size      1956 MB
 MEM_STATIC part      2000 MB
 Discretize the solute cavity surface with Lebedev spheres
	Using 302 Lebedev grid points for each H atom
	Using 302 Lebedev grid points for other atoms
	Atomic van der Waals radii will be scaled by 1.20
 Remove points where switching function is < 1.0e-08
 Keep 1796 surface tesserae and discard 2734 interior tesserae
 Molecular Surface Area = 177.694 Angst**2

                       Distance Matrix (Angstroms)
             C (  1)   C (  2)   C (  3)   C (  4)   C (  5)   C (  6)
   C (  2)  4.281428
   C (  3)  3.784406  1.386810
   C (  4)  3.780904  1.382840  2.397115
   C (  5)  2.509270  2.399114  1.384796  2.766064
   C (  6)  2.505112  2.400339  2.770843  1.386107  2.396575
   C (  7)  1.501592  2.779929  2.407375  2.404681  1.388813  1.387584
   H (  8)  5.360025  1.079238  2.148867  2.130766  3.381847  3.373310
   H (  9)  4.650443  2.142931  1.081490  3.377292  2.142371  3.852325
   H ( 10)  4.646179  2.135811  3.375267  1.080482  3.846543  2.142354
   H ( 11)  2.717286  3.375056  2.134122  3.847125  1.081118  3.379706
   H ( 12)  2.705620  3.372618  3.846484  2.135281  3.373562  1.075731
   H ( 13)  1.091814  4.762166  4.006179  4.497394  2.647006  3.344605
   H ( 14)  1.091342  4.752500  4.492814  3.994479  3.341608  2.634653
   H ( 15)  1.099999  4.808167  4.310421  4.296607  3.065391  3.047017
             C (  7)   H (  8)   H (  9)   H ( 10)   H ( 11)   H ( 12)
   H (  8)  3.858721
   H (  9)  3.386953  2.479087
   H ( 10)  3.383676  2.448050  4.267943
   H ( 11)  2.146549  4.271527  2.457370  4.927593
   H ( 12)  2.138925  4.256359  4.927973  2.461777  4.272211
   H ( 13)  2.129835  5.825787  4.702853  5.436522  2.458227  3.668745
   H ( 14)  2.123440  5.811541  5.433650  4.689973  3.676414  2.439323
   H ( 15)  2.178733  5.859956  5.134372  5.115973  3.176540  3.143173
             H ( 13)   H ( 14)
   H ( 14)  1.753537
   H ( 15)  1.793714  1.781449
 
 A cutoff of  1.0D-14 yielded   8363 shell pairs
 There are     54511 function pairs (     69466 Cartesian)
 Smallest overlap matrix eigenvalue = 5.26E-07
 Linear dependence detected in AO basis
 Tighter screening thresholds may be required for diffuse basis sets
 Use S2THRESH > 14 and THRESH = 14 in case of SCF convergence issues
 Number of orthogonalized atomic orbitals = 330
 Maximum deviation from orthogonality = 1.309E-10

 Scale SEOQF with 1.000000e-01/1.000000e-01/1.000000e-02

 Standard Electronic Orientation quadrupole field applied
 Nucleus-field energy     =     0.0000000039 hartrees
 Guess from superposition of atomic densities
 Warning:  Energy on first SCF cycle will be non-variational
 SAD guess density has 49.913408 electrons

 -----------------------------------------------------------------------
  General SCF calculation program by
  Eric Jon Sundstrom, Paul Horn, Yuezhi Mao, Dmitri Zuev, Alec White,
  David Stuck, Shaama M.S., Shane Yost, Joonho Lee, David Small,
  Daniel Levine, Susi Lehtola, Hugh Burton, Evgeny Epifanovsky
 -----------------------------------------------------------------------
 Exchange:     0.1670 Hartree-Fock + 1.0000 wB97X-V + LR-HF
 Correlation:  1.0000 wB97X-V
 Using Euler-Maclaurin-Lebedev (99,590) quadrature formula
 Nonlocal Correlation:  VV10 with C = 0.0100 and b = 6.00 and scale = 1.00000
 Grid used for NLC:  SG-1 standard quadrature
Energy prior to optimization (guess energy) = -271.518289981388
Begin Timing: Total SCF Calculation
begin iterations for algorithm: DIIS         
the SCF tolerance is set to 1.00e-08
    1    -271.5182899814      2.00e-03     00000 
    2    -271.5580354476      1.29e-03     00000 
    3    -271.5810984311      1.40e-04     00000 
    4    -271.5815104693      4.97e-05     00000 
    5    -271.5815463792      1.63e-05     00000 
    6    -271.5815509508      4.13e-06     00000 
    7    -271.5815512813      1.91e-06     00000 
    8    -271.5815513431      3.47e-07     00000 
    9    -271.5815513462      6.23e-08     00000 
   10    -271.5815513463      3.19e-08     00000 
   11    -271.5815513463      5.95e-09     00000 Convergence criterion met
Timing for Total SCF: 1344.00s (wall), 2665.65s (cpu)

************** Final PCM Free Energy Summary **************
 G_electrostatic  =      -0.00238615 hartree =      -1.49733439 kcal/mol
 G_cavitation     =       0.00000000 hartree =       0.00000000 kcal/mol
 G_dispersion     =       0.00000000 hartree =       0.00000000 kcal/mol
 G_repulsion      =       0.00000000 hartree =       0.00000000 kcal/mol
 --------------------------------------------------
 Non-electrostatic Free Energy =       0.00000000 hartree =       0.00000000 kcal/mol
 Total                         =      -0.00238615 hartree =      -1.49733439 kcal/mol
 --------------------------------------------------
 SCF Energy (H0 + V/2)                       =    -271.58155135 
 Solute Internal Energy (H0)                 =    -271.57916519 
 Total Free Energy (H0 + V/2 + non-elec)     =    -271.58155135 hartree
                                             = -170419.99561870 kcal/mol
***********************************************************

E_pcm = -0.0023861543
Multipole orders to be included
        2
        3
computing dipole RHS
computing quadrupole RHS
total number of RHS in solve_reponses: 8
RHS batch sizes
        8
Beginning Block Conjugate Gradient Iterations. Batch Number: 0
computing hessian-vector products by finite difference
              1      5.72e-01     00000 Conjugate Gradient Iteration
computing hessian-vector products by finite difference
              2      1.83e-01     00000 Conjugate Gradient Iteration
computing hessian-vector products by finite difference
              3      4.22e-02     00000 Conjugate Gradient Iteration
computing hessian-vector products by finite difference
              4      9.73e-03     00000 Conjugate Gradient Iteration
computing hessian-vector products by finite difference
              5      2.22e-03     00000 Conjugate Gradient Iteration
computing hessian-vector products by finite difference
              6      6.02e-04     00000 Conjugate Gradient Iteration
computing hessian-vector products by finite difference
              7      1.63e-04     00000 Conjugate Gradient Iteration
computing hessian-vector products by finite difference
              8      2.57e-05     00000 Conjugate Gradient Iteration
computing hessian-vector products by finite difference
              9      3.91e-06     00000 Conjugate Gradient Iteration
computing hessian-vector products by finite difference
             10      1.23e-06     00000 Conjugate Gradient Iteration
computing hessian-vector products by finite difference
             11      2.92e-07     00000 Conjugate Gradient Iteration
computing hessian-vector products by finite difference
             12      4.95e-08     00000 Conjugate Gradient Iteration
computing hessian-vector products by finite difference
             13      9.11e-09     00000 CG Converged
batch 0 complete
Done Calculating Responses
TESTING ORTHOGONALIZATION OF MULTIPOLE BASIS
Multipole virts passed orthogonality test
Virts Per Order
           75
          125
 
 --------------------------------------------------------------
 
                    Orbital Energies (a.u.)
 --------------------------------------------------------------
 
 Alpha MOs
 -- Occupied --
-10.2799 -10.2717 -10.2708 -10.2681 -10.2680 -10.2673 -10.2621  -1.0005
 -0.9086  -0.8810  -0.8139  -0.7315  -0.7067  -0.6318  -0.5756  -0.5666
 -0.5373  -0.5314  -0.5145  -0.4872  -0.4754  -0.4417  -0.4408  -0.3505
 -0.3389
 -- Virtual --
  0.0632   0.0646   0.0688   0.0790   0.0845   0.1045   0.1105   0.1137
  0.1356   0.1520   0.1658   0.1667   0.1876   0.1890   0.1948   0.2013
  0.2219   0.2246   0.2341   0.2412   0.2483   0.2582   0.2605   0.2698
  0.2796   0.2808   0.2833   0.2925   0.2936   0.3014   0.3046   0.3108
  0.3213   0.3241   0.3325   0.3339   0.3492   0.3540   0.3666   0.3728
  0.3793   0.3819   0.3832   0.3888   0.3891   0.4013   0.4048   0.4091
  0.4093   0.4286   0.4292   0.4368   0.4424   0.4489   0.4516   0.4529
  0.4625   0.4697   0.4744   0.4814   0.4934   0.4958   0.5126   0.5175
  0.5177   0.5268   0.5353   0.5369   0.5408   0.5478   0.5489   0.5660
  0.5845   0.5892   0.5960   0.5965   0.6028   0.6230   0.6425   0.6449
  0.6618   0.6728   0.6843   0.6849   0.6865   0.6984   0.7207   0.7244
  0.7289   0.7303   0.7431   0.7606   0.7643   0.7658   0.7765   0.7870
  0.7895   0.7970   0.8009   0.8027   0.8083   0.8228   0.8259   0.8334
  0.8359   0.8373   0.8401   0.8500   0.8604   0.8758   0.8877   0.8958
  0.9087   0.9162   0.9347   0.9500   0.9515   1.0144   1.0212   1.0424
  1.0446   1.0603   1.0719   1.0789   1.0894   1.0941   1.1067   1.1449
  1.1691   1.1801   1.2500   1.2786   1.2967   1.3196   1.3500   1.3510
  1.3820   1.4365   1.4515   1.4606   1.4688   1.4879   1.5277   1.5424
  1.5997   1.6020   1.6209   1.6227   1.6693   1.6834   1.7357   1.7782
  1.7944   1.7962   1.8071   1.8107   1.8371   1.8702   1.8834   1.9131
  1.9206   1.9300   1.9556   1.9578   1.9839   1.9978   2.0118   2.0283
  2.0314   2.0452   2.0712   2.0963   2.1145   2.1246   2.1711   2.1776
  2.1946   2.2350   2.2403   2.2658   2.2872   2.3150   2.3951   2.4060
  2.4113   2.4115   2.4831   2.5070   2.5381   2.5577   2.5676   2.6066
  2.6143   2.6249   2.6679   2.6721   2.7017   2.7143   2.7604   2.7752
  2.7935   2.8176   2.8256   2.8519   2.8639   2.9051   2.9070   2.9177
  2.9415   2.9466   2.9623   2.9771   2.9926   3.0153   3.0205   3.0557
  3.0613   3.0902   3.1030   3.1404   3.1824   3.1866   3.2031   3.2243
  3.2275   3.2389   3.2927   3.3131   3.3306   3.3588   3.3677   3.3812
  3.4010   3.4475   3.4498   3.4517   3.4590   3.4727   3.4984   3.5065
  3.5101   3.5326   3.5413   3.5454   3.5676   3.5791   3.5952   3.6081
  3.6157   3.6370   3.6574   3.6966   3.7188   3.7575   3.7859   3.8183
  3.8366   3.8915   3.9115   3.9706   3.9728   3.9991   4.0436   4.0637
  4.1172   4.2030   4.2752   4.2892   4.3068   4.3263   4.3303   4.3311
  4.3638   4.3832   4.4000   4.4149   4.4518   4.4581   4.4882   4.5386
  4.6049   4.6399   4.7650   4.7687   4.8431   4.9009   4.9042   4.9531
  5.0380   5.0562   5.1771   5.2724   5.3941   5.4027   5.5122   5.5335
  5.6850   5.8536  22.5712  22.6700  22.9069  22.9205  23.0401  23.1052
 23.4541
 --------------------------------------------------------------
 
          Ground-State Mulliken Net Atomic Charges

     Atom                 Charge (a.u.)
  ----------------------------------------
      1 C                    -1.042476
      2 C                    -0.476272
      3 C                    -0.500699
      4 C                    -0.485263
      5 C                    -0.366351
      6 C                    -0.376738
      7 C                     0.894090
      8 H                     0.331052
      9 H                     0.309554
     10 H                     0.308215
     11 H                     0.320928
     12 H                     0.325609
     13 H                     0.274409
     14 H                     0.273437
     15 H                     0.210504
  ----------------------------------------
  Sum of atomic charges =     0.000000

 -----------------------------------------------------------------
                    Cartesian Multipole Moments
 -----------------------------------------------------------------
    Charge (ESU x 10^10)
                 0.0000
    Dipole Moment (Debye)
         X       0.1803      Y       0.0415      Z      -0.4309
       Tot       0.4690
    Quadrupole Moments (Debye-Ang)
        XX     -42.3863     XY       3.6456     YY     -40.9694
        XZ      -2.6551     YZ       0.8955     ZZ     -36.4715
    Octopole Moments (Debye-Ang^2)
       XXX     -24.4147    XXY     -55.7461    XYY       0.7365
       YYY    -162.5023    XXZ     131.2204    XYZ     -11.9605
       YYZ     130.1110    XZZ       3.4764    YZZ     -55.0555
       ZZZ     355.4649
    Hexadecapole Moments (Debye-Ang^3)
      XXXX    -244.0456   XXXY     -80.9148   XXYY    -143.3583
      XYYY     -61.4922   YYYY    -649.8626   XXXZ     162.5736
      XXYZ     161.5085   XYYZ      31.2083   YYYZ     493.7808
      XXZZ    -535.8236   XYZZ       8.4754   YYZZ    -594.2085
      XZZZ     124.0353   YZZZ     475.0339   ZZZZ   -2776.2494
 -----------------------------------------------------------------
Archival summary:
1\1\nid00523\SP\ProcedureUnspecified\BasisUnspecified\78\meili\SunSep2619:41:172021SunSep2619:41:172021\0\\#,ProcedureUnspecified,BasisUnspecified,\\0,1\C\C,1,1.38758\H,2,1.07573,1,119.994\C,2,1.38611,1,120.215,3,-178.555,0\H,4,1.08048,2,120.073,1,179.388,0\C,4,1.38284,2,120.196,1,-0.570192,0\H,6,1.07924,4,119.354,2,-177.66,0\C,6,1.38681,4,119.878,2,0.131219,0\H,8,1.08149,6,119.988,4,-179.759,0\C,8,1.3848,6,119.904,4,-0.178231,0\H,10,1.08112,8,119.359,6,179.643,0\C,1,1.50159,2,120.188,3,-2.07124,0\H,12,1.09134,1,108.929,2,32.7617,0\H,12,1.09181,1,109.404,2,149.26,0\H,12,1.1,1,112.837,2,-88.1357,0\\\@

 Total job time:  32230.14s(wall), 63903.45s(cpu) 
 Sun Sep 26 19:41:22 2021

        *************************************************************
        *                                                           *
        *  Thank you very much for using Q-Chem.  Have a nice day.  *
        *                                                           *
        *************************************************************


Done Job For Fragment 1
calling putenv with: QCSCRATCH=/global/cscratch1/sd/meili 
calling putenv with: QCLOCALSCR=/tmp 
calling putenv with: QCTHREADS=32 
Doing General SCFMI
 Exchange:     0.1670 Hartree-Fock + 1.0000 wB97X-V + LR-HF
 Correlation:  1.0000 wB97X-V
 Using Euler-Maclaurin-Lebedev (99,590) quadrature formula
 Nonlocal Correlation:  VV10 with C = 0.0100 and b = 6.00 and scale = 1.00000
 Grid used for NLC:  SG-1 standard quadrature
performing fock build before subrot guess so that all methods have access
Printing subrot_rss_gen Method Specification:
Occupied Subspace Method is 0
Virtual Subspace Method is 0
Energy of the unrelaxed supersystem initial determinant -543.157204741662
performing fock build before subrot guess so that all methods have access
Printing subrot_rss_gen Method Specification:
Occupied Subspace Method is 0
Virtual Subspace Method is 0
Energy of the unrelaxed supersystem initial determinant w/ solvent -543.161829335310
write pseudocanon occs and virts to disk
write pseudocanon orbital energies to disk
Tolerance of ortho_decomp_scf: 1.00e-06
GDM subspace size: 20
Beginning the Orthogonal Decomposition of the Initial Supersystem Wavefunction
    1    -543.1447786283      1.68e-02     ortho_decomp Preconditoned Steepest Descent
    2    -543.1460265704      4.25e-04     ortho_decomp BFGS Step
    3    -543.1460304030      3.14e-05     ortho_decomp BFGS Step
    4    -543.1460304104      1.31e-06     ortho_decomp BFGS Step
    5    -543.1460304104      3.79e-08     ortho_decomp 00000 Convergence criterion met
 Hartree-Fock
 Hartree-Fock
 Hartree-Fock
Doing General SCFMI
 Exchange:     0.1670 Hartree-Fock + 1.0000 wB97X-V + LR-HF
 Correlation:  1.0000 wB97X-V
 Using Euler-Maclaurin-Lebedev (99,590) quadrature formula
 Nonlocal Correlation:  VV10 with C = 0.0100 and b = 6.00 and scale = 1.00000
 Grid used for NLC:  SG-1 standard quadrature
performing fock build at end of subrot_r(subrot) constructor so that all methods have access
<S^2> of initial wavefunction before polarization iterations 0.0000000000
Beginning iterations for the determination of the polarized wavefunction
Energy prior to optimization (guess energy) = -543.161829335309
Begin Timing: Total SCF Calculation
begin iterations for algorithm: DIIS         
the SCF tolerance is set to 1.00e-08
    1    -543.1618293353      3.94e-05     00000 
    2    -543.1620026546      1.37e-05     00000 
    3    -543.1620165802      7.59e-06     00000 
    4    -543.1620207130      2.23e-06     00000 
    5    -543.1620212556      1.11e-06     00000 
    6    -543.1620214042      4.47e-07     00000 
    7    -543.1620214275      1.36e-07     00000 
    8    -543.1620214291      6.22e-08     00000 
    9    -543.1620214294      2.33e-08     00000 
   10    -543.1620214294      1.18e-08     00000 
   11    -543.1620214294      5.18e-09     00000 Convergence criterion met
write pseudocanon occs and virts to disk
write pseudocanon orbital energies to disk
Timing for Total SCF: 8390.00s (wall), 16695.26s (cpu)
<S^2> of polarized wavefunction after polarization iterations 0.0000000000
relaxing scfmi constraint to allow all rotations in the entire AO span
Doing General SCFMI
 Exchange:     0.1670 Hartree-Fock + 1.0000 wB97X-V + LR-HF
 Correlation:  1.0000 wB97X-V
 Using Euler-Maclaurin-Lebedev (99,590) quadrature formula
 Nonlocal Correlation:  VV10 with C = 0.0100 and b = 6.00 and scale = 1.00000
 Grid used for NLC:  SG-1 standard quadrature
performing fock build at end of subrot_r(subrot) constructor so that all methods have access
<S^2> of polarized wavefunction before ct-allowed iterations 0.0000000000
Beginning iterations for the determination of the CT-Allowed wavefunction
Energy prior to optimization (guess energy) = -543.162021429399
Begin Timing: Total SCF Calculation
begin iterations for algorithm: DIIS         
the SCF tolerance is set to 1.00e-08
    1    -543.1620214294      5.52e-05     00000 
    2    -543.1627414912      6.25e-06     00000 
    3    -543.1627621840      8.64e-07     00000 
    4    -543.1627626801      2.73e-07     00000 
    5    -543.1627626992      1.19e-07     00000 
    6    -543.1627627039      2.02e-08     00000 
    7    -543.1627627041      1.05e-08     00000 
    8    -543.1627627041      2.10e-09     00000 Convergence criterion met
write pseudocanon occs and virts to disk
write pseudocanon orbital energies to disk
Timing for Total SCF: 5802.00s (wall), 11549.86s (cpu)
<S^2> of ct_allowed wavefunction after ct-allowed iterations 0.0000000000

================================
        Results of EDA2         
================================
Basic EDA Quantities
--------------------
Fragment Energies (Ha):
1 -271.5800266004
2 -271.5815513463
--------------------
  E_prp (kJ/mol) = -0.0000
  E_sol (kJ/mol) = 0.5807
  E_frz (kJ/mol) = -1.2407
  E_pol (kJ/mol) = -0.5043
  E_vct (kJ/mol) = -1.9462
  E_int (kJ/mol) = -3.1106
--------------------


Initial Wavefunction Decomposition
--------------------
  --------------------
  Orthogonal Fragment Subspace Decomposition:
  --------------------
     E_elec   (ELEC)   (kJ/mol) = -12.6025
     E_pauli  (PAULI)  (kJ/mol) = 21.8840
     E_disp   (DISP)   (kJ/mol) = -10.5223
     --------------------
     Terms summing to E_pauli:
     --------------------
        E_kep_pauli       (kJ/mol) = 28.0978
        E_disp_free_pauli (kJ/mol) = -6.2138
  --------------------
  Classical Frozen Decomposition:
  --------------------
     E_cls_elec  (CLS ELEC)  (kJ/mol) = -4.5884
     E_cls_pauli (CLS PAULI) (kJ/mol) = 3.3477
    [E_mod_pauli (MOD PAULI) (kJ/mol) = 13.8700 (CLS PAULI - DISP from orthogonal decomposition) ]
  --------------------
--------------------

Simplified EDA Summary (kJ/mol)
--------------------
 PREPARATION     -0.0000
 SOLVATION       0.5807
 FROZEN          9.2815      (does not include dispersion)
[PAULI           21.8840]     (if this is negligible, then frozen describes electrostatics)
 DISPERSION      -10.5223
 POLARIZATION    -0.5043
 CHARGE TRANSFER -1.9462
 TOTAL           -3.1106     (PRP + SOL + FRZ + DISP + POL + CT)
--------------------
 
 --------------------------------------------------------------
 
                    Orbital Energies (a.u.)
 --------------------------------------------------------------
 
 Alpha MOs
 -- Occupied --
-10.2826 -10.2807 -10.2730 -10.2719 -10.2714 -10.2709 -10.2692 -10.2689
-10.2683 -10.2681 -10.2680 -10.2672 -10.2625 -10.2624  -1.0015  -0.9994
 -0.9104  -0.9090  -0.8820  -0.8795  -0.8158  -0.8144  -0.7331  -0.7314
 -0.7080  -0.7068  -0.6369  -0.6289  -0.5770  -0.5750  -0.5691  -0.5668
 -0.5377  -0.5375  -0.5326  -0.5307  -0.5182  -0.5126  -0.4905  -0.4877
 -0.4761  -0.4739  -0.4457  -0.4426  -0.4400  -0.4394  -0.3515  -0.3487
 -0.3397  -0.3385
 -- Virtual --
  0.0565   0.0602   0.0647   0.0663   0.0676   0.0695   0.0758   0.0790
  0.0875   0.0980   0.1035   0.1046   0.1110   0.1117   0.1257   0.1307
  0.1397   0.1496   0.1521   0.1540   0.1610   0.1642   0.1747   0.1770
  0.1809   0.1855   0.1933   0.1939   0.2044   0.2077   0.2135   0.2172
  0.2264   0.2277   0.2330   0.2339   0.2393   0.2406   0.2496   0.2506
  0.2541   0.2586   0.2598   0.2664   0.2700   0.2701   0.2745   0.2767
  0.2812   0.2851   0.2873   0.2906   0.2926   0.2971   0.2997   0.3007
  0.3048   0.3090   0.3154   0.3181   0.3228   0.3251   0.3309   0.3318
  0.3376   0.3404   0.3420   0.3448   0.3512   0.3547   0.3561   0.3610
  0.3635   0.3671   0.3683   0.3732   0.3753   0.3770   0.3793   0.3816
  0.3827   0.3851   0.3884   0.3906   0.3920   0.3995   0.4003   0.4056
  0.4069   0.4128   0.4183   0.4196   0.4216   0.4227   0.4338   0.4376
  0.4417   0.4435   0.4475   0.4509   0.4523   0.4552   0.4565   0.4608
  0.4620   0.4657   0.4695   0.4730   0.4770   0.4789   0.4834   0.4861
  0.4890   0.4926   0.4954   0.5031   0.5053   0.5060   0.5085   0.5101
  0.5153   0.5191   0.5197   0.5269   0.5299   0.5323   0.5344   0.5380
  0.5436   0.5479   0.5500   0.5523   0.5581   0.5634   0.5656   0.5712
  0.5729   0.5793   0.5824   0.5889   0.5904   0.5962   0.5999   0.6074
  0.6131   0.6192   0.6196   0.6227   0.6261   0.6312   0.6469   0.6497
  0.6608   0.6619   0.6679   0.6732   0.6734   0.6774   0.6846   0.6873
  0.6933   0.7007   0.7060   0.7102   0.7132   0.7194   0.7228   0.7264
  0.7301   0.7320   0.7362   0.7381   0.7416   0.7422   0.7452   0.7507
  0.7560   0.7567   0.7591   0.7701   0.7735   0.7764   0.7832   0.7847
  0.7878   0.7951   0.7963   0.7980   0.8041   0.8089   0.8098   0.8115
  0.8133   0.8137   0.8213   0.8235   0.8292   0.8337   0.8407   0.8420
  0.8456   0.8461   0.8493   0.8536   0.8565   0.8602   0.8658   0.8709
  0.8746   0.8765   0.8840   0.8876   0.8928   0.8939   0.8996   0.9050
  0.9089   0.9135   0.9230   0.9240   0.9369   0.9419   0.9424   0.9533
  0.9612   0.9654   0.9753   0.9782   0.9907   1.0017   1.0051   1.0120
  1.0240   1.0267   1.0394   1.0539   1.0541   1.0598   1.0679   1.0753
  1.0840   1.0864   1.0898   1.0958   1.0964   1.1060   1.1164   1.1201
  1.1286   1.1389   1.1463   1.1543   1.1625   1.1662   1.1889   1.1982
  1.2168   1.2274   1.2522   1.2738   1.3004   1.3043   1.3131   1.3233
  1.3327   1.3489   1.3613   1.3647   1.3700   1.3727   1.3877   1.4146
  1.4266   1.4510   1.4593   1.4708   1.4733   1.4750   1.4870   1.4893
  1.4953   1.5070   1.5144   1.5492   1.5508   1.5639   1.5684   1.6053
  1.6114   1.6125   1.6261   1.6410   1.6446   1.6530   1.6608   1.6642
  1.6701   1.6910   1.6938   1.7397   1.7654   1.7709   1.7883   1.7971
  1.7982   1.8084   1.8123   1.8171   1.8302   1.8354   1.8393   1.8574
  1.8696   1.8839   1.9021   1.9036   1.9201   1.9251   1.9389   1.9443
  1.9495   1.9521   1.9586   1.9661   1.9807   1.9922   1.9983   2.0044
  2.0133   2.0211   2.0326   2.0415   2.0476   2.0497   2.0573   2.0622
  2.0676   2.0755   2.0816   2.0957   2.1051   2.1228   2.1264   2.1441
  2.1489   2.1647   2.1815   2.1935   2.1994   2.2067   2.2248   2.2304
  2.2417   2.2484   2.2506   2.2575   2.2709   2.2834   2.2897   2.3105
  2.3275   2.3417   2.3475   2.3918   2.4047   2.4110   2.4193   2.4211
  2.4296   2.4441   2.4489   2.4768   2.4906   2.5181   2.5342   2.5516
  2.5557   2.5675   2.5806   2.6012   2.6049   2.6107   2.6150   2.6198
  2.6339   2.6399   2.6635   2.6783   2.6859   2.6925   2.6997   2.7225
  2.7263   2.7368   2.7405   2.7636   2.7797   2.7878   2.7919   2.8005
  2.8151   2.8199   2.8246   2.8364   2.8411   2.8604   2.8646   2.8679
  2.8787   2.9016   2.9079   2.9190   2.9294   2.9346   2.9363   2.9464
  2.9567   2.9585   2.9707   2.9803   2.9820   2.9890   3.0080   3.0141
  3.0215   3.0262   3.0314   3.0383   3.0527   3.0629   3.0663   3.0845
  3.0917   3.1008   3.1099   3.1150   3.1311   3.1564   3.1741   3.1763
  3.1975   3.1982   3.2021   3.2077   3.2188   3.2344   3.2433   3.2479
  3.2632   3.2666   3.2733   3.2798   3.3086   3.3103   3.3267   3.3457
  3.3513   3.3622   3.3696   3.3818   3.3955   3.4044   3.4082   3.4194
  3.4315   3.4402   3.4479   3.4524   3.4590   3.4635   3.4686   3.4714
  3.4769   3.4857   3.4892   3.4950   3.5141   3.5205   3.5253   3.5316
  3.5374   3.5443   3.5459   3.5488   3.5562   3.5601   3.5649   3.5748
  3.5781   3.5846   3.5938   3.5990   3.6021   3.6120   3.6149   3.6318
  3.6354   3.6503   3.6582   3.6642   3.6793   3.7023   3.7077   3.7163
  3.7248   3.7284   3.7576   3.7792   3.7964   3.8118   3.8217   3.8411
  3.8710   3.8942   3.9098   3.9226   3.9509   3.9652   3.9752   3.9807
  3.9877   4.0064   4.0111   4.0465   4.0578   4.0770   4.0882   4.1277
  4.1643   4.2204   4.2409   4.2798   4.2843   4.2854   4.2931   4.3087
  4.3143   4.3305   4.3323   4.3387   4.3445   4.3543   4.3710   4.3714
  4.3747   4.3878   4.3926   4.3988   4.4091   4.4157   4.4293   4.4548
  4.4625   4.4652   4.4879   4.4967   4.5377   4.5530   4.5792   4.6133
  4.6149   4.6447   4.6530   4.7636   4.7709   4.7737   4.8027   4.8239
  4.8419   4.8579   4.9050   4.9077   4.9304   4.9654   4.9696   5.0433
  5.0574   5.0651   5.0854   5.1816   5.1856   5.2759   5.2934   5.3973
  5.4050   5.4069   5.4213   5.4997   5.5174   5.5281   5.5422   5.6960
  5.7009   5.8178   5.8758  22.6220  22.6508  22.6762  22.7002  22.9152
 22.9325  22.9484  22.9803  23.0482  23.0549  23.1151  23.1160  23.4612
 23.4638
 --------------------------------------------------------------
 
          Ground-State Mulliken Net Atomic Charges

     Atom                 Charge (a.u.)
  ----------------------------------------
      1 C                    -1.002249
      2 C                    -0.022003
      3 C                    -0.406321
      4 C                    -0.503819
      5 C                     0.647450
      6 C                    -0.596789
      7 C                    -0.578883
      8 H                     0.286430
      9 H                     0.368797
     10 H                     0.357761
     11 H                     0.324424
     12 H                     0.249570
     13 H                     0.228335
     14 H                     0.338570
     15 H                     0.271612
     16 C                    -1.082382
     17 C                    -0.539468
     18 C                    -0.347691
     19 C                    -0.527732
     20 C                    -0.452057
     21 C                    -0.347506
     22 C                     0.689956
     23 H                     0.524455
     24 H                     0.345825
     25 H                     0.326110
     26 H                     0.336778
     27 H                     0.341268
     28 H                     0.279556
     29 H                     0.277001
     30 H                     0.213002
  ----------------------------------------
  Sum of atomic charges =     0.000000

 -----------------------------------------------------------------
                    Cartesian Multipole Moments
 -----------------------------------------------------------------
    Charge (ESU x 10^10)
                 0.0000
    Dipole Moment (Debye)
         X      -0.1281      Y      -0.1717      Z      -0.1684
       Tot       0.2725
    Quadrupole Moments (Debye-Ang)
        XX     -81.5034     XY       6.8749     YY     -84.1410
        XZ      -2.8215     YZ      -3.0838     ZZ     -73.2257
    Octopole Moments (Debye-Ang^2)
       XXX       1.7795    XXY      -2.2998    XYY       2.3140
       YYY       8.3507    XXZ       9.6546    XYZ      -4.7148
       YYZ       2.4943    XZZ      14.1872    YZZ     -21.5930
       ZZZ      -3.0619
    Hexadecapole Moments (Debye-Ang^3)
      XXXX    -605.3384   XXXY    -187.9492   XXYY    -313.6431
      XYYY    -162.6961   YYYY   -1320.8528   XXXZ     285.6520
      XXYZ     359.5069   XYYZ      49.2161   YYYZ    1107.1757
      XXZZ   -1037.3315   XYZZ     -13.6811   YYZZ   -1142.5059
      XZZZ     258.4539   YZZZ     965.5314   ZZZZ   -5390.3467
 -----------------------------------------------------------------
Archival summary:
1\1\nid00523\SP\ProcedureUnspecified\BasisUnspecified\1416\meili\MonSep2702:56:452021MonSep2702:56:452021\0\\#,ProcedureUnspecified,BasisUnspecified,\\0,1\C\H,1,1.0764\C,1,1.38563,2,120.564\H,3,1.08098,1,120.123,2,2.84181,0\C,3,1.37589,1,119.953,2,-177.841,0\H,5,1.08149,3,119.678,1,-179.42,0\C,1,1.38993,2,119.545,3,-177.559,0\H,7,1.08085,1,119.263,2,-1.74447,0\C,7,1.38772,1,121.044,2,178.131,0\C,9,1.39555,7,118.532,1,-0.830612,0\H,10,1.0641,9,121.85,7,176.54,0\C,9,1.50204,7,118.643,1,179.777,0\H,12,1.08443,9,108.337,7,51.2283,0\H,12,1.09091,9,106.728,7,-64.2791,0\H,12,1.1,9,116.51,7,175.182,0\H,2,2.11515,1,129.229,3,-48.0215,0\C,16,1.07924,2,114.863,1,118.613,0\C,17,1.38284,16,119.354,2,-128.316,0\H,18,1.08048,17,119.732,16,2.38176,0\C,18,1.38611,17,120.196,16,-177.66,0\H,20,1.07573,18,119.775,17,-179.128,0\C,17,1.38681,16,120.731,2,53.9125,0\H,22,1.08149,17,119.988,16,-1.99893,0\C,22,1.3848,17,119.904,16,177.582,0\H,24,1.08112,22,119.359,17,179.643,0\C,20,1.38758,18,120.215,17,-0.570192,0\C,26,1.50159,20,120.188,18,179.374,0\H,27,1.09134,26,108.929,20,32.7617,0\H,27,1.09181,26,109.404,20,149.26,0\H,27,1.1,26,112.837,20,-88.1357,0\\\@

 Total job time:  89570.45s(wall), 51977.98s(cpu) 
 Mon Sep 27 02:56:48 2021

        *************************************************************
        *                                                           *
        *  Thank you very much for using Q-Chem.  Have a nice day.  *
        *                                                           *
        *************************************************************


