                  Welcome to Q-Chem
     A Quantum Leap Into The Future Of Chemistry


 Q-Chem 5.2 (devel), Q-Chem, Inc., Pleasanton, CA (2019)

 Yihan Shao,  Zhengting Gan,  E. Epifanovsky,  A. T. B. Gilbert,  M. Wormit,  
 J. Kussmann,  A. W. Lange,  A. Behn,  Jia Deng,  Xintian Feng,  D. Ghosh,  
 M. Goldey,  P. R. Horn,  L. D. Jacobson,  I. Kaliman,  T. Kus,  A. Landau,  
 Jie Liu,  E. I. Proynov,  R. M. Richard,  R. P. Steele,  E. J. Sundstrom,  
 H. L. Woodcock III,  P. M. Zimmerman,  D. Zuev,  B. Albrecht,  E. Alguire,  
 S. A. Baeppler,  D. Barton,  Z. Benda,  Y. A. Bernard,  E. J. Berquist,  
 K. B. Bravaya,  H. Burton,  D. Casanova,  Chun-Min Chang,  Yunqing Chen,  
 A. Chien,  K. D. Closser,  M. P. Coons,  S. Coriani,  S. Dasgupta,  
 A. L. Dempwolff,  M. Diedenhofen,  Hainam Do,  R. G. Edgar,  Po-Tung Fang,  
 S. Faraji,  S. Fatehi,  Qingguo Feng,  K. D. Fenk,  J. Fosso-Tande,  
 J. Gayvert,  Qinghui Ge,  A. Ghysels,  G. Gidofalvi,  J. Gomes,  
 J. Gonthier,  A. Gunina,  D. Hait,  M. W. D. Hanson-Heine,  
 P. H. P. Harbach,  A. W. Hauser,  M. F. Herbst,  J. E. Herr,  
 E. G. Hohenstein,  Z. C. Holden,  Kerwin Hui,  B. C. Huynh,  T.-C. Jagau,  
 Hyunjun Ji,  B. Kaduk,  K. Khistyaev,  Jaehoon Kim,  P. Klunzinger,  K. Koh,  
 D. Kosenkov,  L. Koulias,  T. Kowalczyk,  C. M. Krauter,  A. Kunitsa,  
 Ka Un Lao,  A. Laurent,  K. V. Lawler,  Joonho Lee,  D. Lefrancois,  
 S. Lehtola,  D. S. Levine,  Yi-Pei Li,  You-Sheng Lin,  Fenglai Liu,  
 E. Livshits,  A. Luenser,  P. Manohar,  E. Mansoor,  S. F. Manzer,  
 Shan-Ping Mao,  Yuezhi Mao,  N. Mardirossian,  A. V. Marenich,  
 T. Markovich,  L. A. Martinez-Martinez,  S. A. Maurer,  N. J. Mayhall,  
 S. C. McKenzie,  J.-M. Mewes,  P. Morgante,  A. F. Morrison,  
 J. W. Mullinax,  K. Nanda,  T. S. Nguyen-Beck,  R. Olivares-Amaya,  
 J. A. Parkhill,  Zheng Pei,  T. M. Perrine,  F. Plasser,  P. Pokhilko,  
 S. Prager,  A. Prociuk,  E. Ramos,  D. R. Rehn,  F. Rob,  M. Scheurer,  
 M. Schneider,  N. Sergueev,  S. M. Sharada,  S. Sharma,  D. W. Small,  
 T. Stauch,  T. Stein,  Yu-Chuan Su,  A. J. W. Thom,  A. Tkatchenko,  
 T. Tsuchimochi,  N. M. Tubman,  L. Vogt,  M. L. Vidal,  O. Vydrov,  
 M. A. Watson,  J. Wenzel,  M. de Wergifosse,  T. A. Wesolowski,  A. White,  
 J. Witte,  A. Yamada,  Jun Yang,  K. Yao,  S. Yeganeh,  S. R. Yost,  
 Zhi-Qiang You,  A. Zech,  Igor Ying Zhang,  Xing Zhang,  Yan Zhao,  
 Ying Zhu,  B. R. Brooks,  G. K. L. Chan,  C. J. Cramer,  M. S. Gordon,  
 W. J. Hehre,  A. Klamt,  M. W. Schmidt,  C. D. Sherrill,  D. G. Truhlar,  
 A. Aspuru-Guzik,  R. Baer,  A. T. Bell,  N. A. Besley,  Jeng-Da Chai,  
 A. E. DePrince, III,  R. A. DiStasio Jr.,  A. Dreuw,  B. D. Dunietz,  
 T. R. Furlani,  Chao-Ping Hsu,  Yousung Jung,  Jing Kong,  D. S. Lambrecht,  
 WanZhen Liang,  C. Ochsenfeld,  V. A. Rassolov,  L. V. Slipchenko,  
 J. E. Subotnik,  T. Van Voorhis,  J. M. Herbert,  A. I. Krylov,  
 P. M. W. Gill,  M. Head-Gordon

 Contributors to earlier versions of Q-Chem not listed above: 
 R. D. Adamson,  B. Austin,  J. Baker,  G. J. O. Beran,  K. Brandhorst,  
 S. T. Brown,  E. F. C. Byrd,  A. K. Chakraborty,  C.-L. Cheng,  
 Siu Hung Chien,  D. M. Chipman,  D. L. Crittenden,  H. Dachsel,  
 R. J. Doerksen,  A. D. Dutoi,  L. Fusti-Molnar,  W. A. Goddard III,  
 A. Golubeva-Zadorozhnaya,  S. R. Gwaltney,  G. Hawkins,  A. Heyden,  
 S. Hirata,  G. Kedziora,  F. J. Keil,  C. Kelley,  Jihan Kim,  R. A. King,  
 R. Z. Khaliullin,  P. P. Korambath,  W. Kurlancheek,  A. M. Lee,  M. S. Lee,  
 S. V. Levchenko,  Ching Yeh Lin,  D. Liotard,  R. C. Lochan,  I. Lotan,  
 P. E. Maslen,  N. Nair,  D. P. O'Neill,  D. Neuhauser,  E. Neuscamman,  
 C. M. Oana,  R. Olson,  B. Peters,  R. Peverati,  P. A. Pieniazek,  
 Y. M. Rhee,  J. Ritchie,  M. A. Rohrdanz,  E. Rosta,  N. J. Russ,  
 H. F. Schaefer III,  N. E. Schultz,  N. Shenvi,  A. C. Simmonett,  A. Sodt,  
 D. Stuck,  K. S. Thanthiriwatte,  V. Vanovschi,  Tao Wang,  A. Warshel,  
 C. F. Williams,  Q. Wu,  X. Xu,  W. Zhang

 Please cite Q-Chem as follows:
 Y. Shao et al., Mol. Phys. 113, 184-215 (2015)
 DOI: 10.1080/00268976.2014.952696

 Q-Chem 5.2.1 for Intel X86 EM64T Linux

 Parts of Q-Chem use Armadillo 8.300.2 (Tropical Shenanigans).
 http://arma.sourceforge.net/

 Q-Chem begins on Mon May 10 09:09:15 2021  

compute-0-0.local
Host: 0

     Scratch files written to /home/meili/scratch/qchem20327//
NAlpha2: 80
NElect   80
Mult     1

 Q-Chem warning in module libgen/rem_setup.C, line 2813:

 Neither GIA nor STOLL is specified by user. Use STOLL as the default


Checking the input file for inconsistencies... 	...done.

--------------------------------------------------------------
User input:
--------------------------------------------------------------
$comment
1vex_ff99sbtip3p_nvt_e9_100ns_m3225_005CYX_006LEU_033SER_034LEU.pdb
$end

$molecule
0 1
--
0 1
C    11.9940000000   30.5060000000   28.8990000000
H    12.9810000000   30.2410000000   28.7330000000
C    11.1350000000   29.9940000000   27.7640000000
O    10.0650000000   30.5410000000   27.4050000000
N    11.5520000000   28.9260000000   27.1020000000
H    12.4620000000   28.5080000000   27.3100000000
C    10.7660000000   28.1910000000   26.0990000000
H    10.2870000000   28.8810000000   25.4640000000
H    11.6600000000   30.0770000000   29.8200000000
H    11.9160000000   31.5720000000   28.9520000000
H    11.4150000000   27.5650000000   25.5230000000
H    10.0340000000   27.5830000000   26.5890000000
--
0 1
C    15.7000000000   29.8750000000   27.3460000000
H    14.9390000000   30.3210000000   28.0640000000
C    15.1440000000   29.9210000000   25.8930000000
O    15.2950000000   28.9540000000   25.1460000000
N    14.5640000000   31.0420000000   25.4320000000
H    14.2930000000   31.8000000000   26.0850000000
C    14.0780000000   31.2050000000   24.1030000000
H    13.4780000000   30.3140000000   23.8800000000
H    16.6090000000   30.4380000000   27.3970000000
H    15.8900000000   28.8580000000   27.6190000000
H    13.4730000000   32.0850000000   24.0360000000
H    14.8830000000   31.3140000000   23.4070000000
$end

$rem
JOBTYPE			EDA
EDA2			1
method			wB97X-V
BASIS			def2-TZVPD
XC_GRID			000099000590
NL_GRID			1
UNRESTRICTED		FALSE
MAX_SCF_CYCLES		200
SYMMETRY		FALSE
SYM_IGNORE		TRUE
MEM_STATIC		2000
BASIS_LIN_DEP_THRESH 	6
THRESH 			14
SCF_CONVERGENCE 	8
SCF_PRINT_FRGM 		TRUE
$end
--------------------------------------------------------------
 ----------------------------------------------------------------
             Standard Nuclear Orientation (Angstroms)
    I     Atom           X                Y                Z
 ----------------------------------------------------------------
    1      C      11.9940000000    30.5060000000    28.8990000000
    2      H      12.9810000000    30.2410000000    28.7330000000
    3      C      11.1350000000    29.9940000000    27.7640000000
    4      O      10.0650000000    30.5410000000    27.4050000000
    5      N      11.5520000000    28.9260000000    27.1020000000
    6      H      12.4620000000    28.5080000000    27.3100000000
    7      C      10.7660000000    28.1910000000    26.0990000000
    8      H      10.2870000000    28.8810000000    25.4640000000
    9      H      11.6600000000    30.0770000000    29.8200000000
   10      H      11.9160000000    31.5720000000    28.9520000000
   11      H      11.4150000000    27.5650000000    25.5230000000
   12      H      10.0340000000    27.5830000000    26.5890000000
   13      C      15.7000000000    29.8750000000    27.3460000000
   14      H      14.9390000000    30.3210000000    28.0640000000
   15      C      15.1440000000    29.9210000000    25.8930000000
   16      O      15.2950000000    28.9540000000    25.1460000000
   17      N      14.5640000000    31.0420000000    25.4320000000
   18      H      14.2930000000    31.8000000000    26.0850000000
   19      C      14.0780000000    31.2050000000    24.1030000000
   20      H      13.4780000000    30.3140000000    23.8800000000
   21      H      16.6090000000    30.4380000000    27.3970000000
   22      H      15.8900000000    28.8580000000    27.6190000000
   23      H      13.4730000000    32.0850000000    24.0360000000
   24      H      14.8830000000    31.3140000000    23.4070000000
 ----------------------------------------------------------------
 Nuclear Repulsion Energy =         539.24253782 hartrees
 There are       40 alpha and       40 beta electrons
 Requested basis set is def2-TZVPD
 There are 202 shells and 502 basis functions

 Total QAlloc Memory Limit   2000 MB
 Mega-Array Size      1956 MB
 MEM_STATIC part      2000 MB
 A cutoff of  1.0D-14 yielded  18365 shell pairs
 There are    113741 function pairs (    141728 Cartesian)
 Smallest overlap matrix eigenvalue = 2.64E-06

 Scale SEOQF with 1.000000e-02/1.000000e-03/1.000000e-03

 Standard Electronic Orientation quadrupole field applied
 Nucleus-field energy     =     0.0000000405 hartrees

 -----------------------------------------------------------------------
  General SCF calculation program by
  Eric Jon Sundstrom, Paul Horn, Yuezhi Mao, Dmitri Zuev, Alec White,
  David Stuck, Shaama M.S., Shane Yost, Joonho Lee, David Small,
  Daniel Levine, Susi Lehtola, Hugh Burton, Evgeny Epifanovsky,
  Bang C. Huynh
 -----------------------------------------------------------------------
================================================================
                 ALMO-EDA with the EDA2 driver                  
================================================================
 The second-generation ALMO-EDA (for DFT):                      
 P. R. Horn, Y. Mao and M. Head-Gordon, PCCP, 18, 23067 (2016)  
 Decomposition of the frozen energy:                            
 P. R. Horn, Y. Mao and M. Head-Gordon, JCP, 144, 114107 (2016) 
 FERF model for polarization:                                   
 P. R. Horn and M. Head-Gordon, JCP, 143, 114111 (2015)         
Using eda2 option set 1
Option set summary: Frozen orbital wavefunction, initial wavefunction decomposition, and nDQ polarization.
--------------------------------
Printing EDA Options
--------------------------------
eda_child_super_basis      0
fragmo_guess_mode          0
child_mp                   1
child_mp_orders            232
cls_elec                   1
cls_disp                   0
scfmi_mode                 1
scfmi_occs                 0
scfmi_virts                0
frz_relax                  0
frz_relax_method           0
dc_pen_start               0
dc_pen_conv                0
dc_pen_increment           0
dc_pen_steps               0
dc_pen_thresh_factor       0
dc_pen_pre_newton_thresh   0
frz_ortho_decomp           1
frz_ortho_decomp_conv      6
frgm_method                2
scfmi_freeze_ss            0
separate_rehyb             0
plot_diff_den              0
eda_nocv                   0
eda_vct_relax              1
disp_free_x                0
disp_free_c                0
eda_bsse                   0
eda_pct_a                  0
eda_covp                   0
--------------------------------
Attempting to make child job directory: /home/meili/scratch/qchem20327//Frg1/
Attempting to make child job directory: /home/meili/scratch/qchem20327//Frg2/
Creating input file /home/meili/scratch/qchem20327/Frg1.input
using default PutDataFrgm: nothing
calling putenv with: QCSCRATCH=/home/meili/scratch/qchem20327/ 
Spawning Job For Fragment 0
                  Welcome to Q-Chem
     A Quantum Leap Into The Future Of Chemistry


 Q-Chem 5.2 (devel), Q-Chem, Inc., Pleasanton, CA (2019)

 Yihan Shao,  Zhengting Gan,  E. Epifanovsky,  A. T. B. Gilbert,  M. Wormit,  
 J. Kussmann,  A. W. Lange,  A. Behn,  Jia Deng,  Xintian Feng,  D. Ghosh,  
 M. Goldey,  P. R. Horn,  L. D. Jacobson,  I. Kaliman,  T. Kus,  A. Landau,  
 Jie Liu,  E. I. Proynov,  R. M. Richard,  R. P. Steele,  E. J. Sundstrom,  
 H. L. Woodcock III,  P. M. Zimmerman,  D. Zuev,  B. Albrecht,  E. Alguire,  
 S. A. Baeppler,  D. Barton,  Z. Benda,  Y. A. Bernard,  E. J. Berquist,  
 K. B. Bravaya,  H. Burton,  D. Casanova,  Chun-Min Chang,  Yunqing Chen,  
 A. Chien,  K. D. Closser,  M. P. Coons,  S. Coriani,  S. Dasgupta,  
 A. L. Dempwolff,  M. Diedenhofen,  Hainam Do,  R. G. Edgar,  Po-Tung Fang,  
 S. Faraji,  S. Fatehi,  Qingguo Feng,  K. D. Fenk,  J. Fosso-Tande,  
 J. Gayvert,  Qinghui Ge,  A. Ghysels,  G. Gidofalvi,  J. Gomes,  
 J. Gonthier,  A. Gunina,  D. Hait,  M. W. D. Hanson-Heine,  
 P. H. P. Harbach,  A. W. Hauser,  M. F. Herbst,  J. E. Herr,  
 E. G. Hohenstein,  Z. C. Holden,  Kerwin Hui,  B. C. Huynh,  T.-C. Jagau,  
 Hyunjun Ji,  B. Kaduk,  K. Khistyaev,  Jaehoon Kim,  P. Klunzinger,  K. Koh,  
 D. Kosenkov,  L. Koulias,  T. Kowalczyk,  C. M. Krauter,  A. Kunitsa,  
 Ka Un Lao,  A. Laurent,  K. V. Lawler,  Joonho Lee,  D. Lefrancois,  
 S. Lehtola,  D. S. Levine,  Yi-Pei Li,  You-Sheng Lin,  Fenglai Liu,  
 E. Livshits,  A. Luenser,  P. Manohar,  E. Mansoor,  S. F. Manzer,  
 Shan-Ping Mao,  Yuezhi Mao,  N. Mardirossian,  A. V. Marenich,  
 T. Markovich,  L. A. Martinez-Martinez,  S. A. Maurer,  N. J. Mayhall,  
 S. C. McKenzie,  J.-M. Mewes,  P. Morgante,  A. F. Morrison,  
 J. W. Mullinax,  K. Nanda,  T. S. Nguyen-Beck,  R. Olivares-Amaya,  
 J. A. Parkhill,  Zheng Pei,  T. M. Perrine,  F. Plasser,  P. Pokhilko,  
 S. Prager,  A. Prociuk,  E. Ramos,  D. R. Rehn,  F. Rob,  M. Scheurer,  
 M. Schneider,  N. Sergueev,  S. M. Sharada,  S. Sharma,  D. W. Small,  
 T. Stauch,  T. Stein,  Yu-Chuan Su,  A. J. W. Thom,  A. Tkatchenko,  
 T. Tsuchimochi,  N. M. Tubman,  L. Vogt,  M. L. Vidal,  O. Vydrov,  
 M. A. Watson,  J. Wenzel,  M. de Wergifosse,  T. A. Wesolowski,  A. White,  
 J. Witte,  A. Yamada,  Jun Yang,  K. Yao,  S. Yeganeh,  S. R. Yost,  
 Zhi-Qiang You,  A. Zech,  Igor Ying Zhang,  Xing Zhang,  Yan Zhao,  
 Ying Zhu,  B. R. Brooks,  G. K. L. Chan,  C. J. Cramer,  M. S. Gordon,  
 W. J. Hehre,  A. Klamt,  M. W. Schmidt,  C. D. Sherrill,  D. G. Truhlar,  
 A. Aspuru-Guzik,  R. Baer,  A. T. Bell,  N. A. Besley,  Jeng-Da Chai,  
 A. E. DePrince, III,  R. A. DiStasio Jr.,  A. Dreuw,  B. D. Dunietz,  
 T. R. Furlani,  Chao-Ping Hsu,  Yousung Jung,  Jing Kong,  D. S. Lambrecht,  
 WanZhen Liang,  C. Ochsenfeld,  V. A. Rassolov,  L. V. Slipchenko,  
 J. E. Subotnik,  T. Van Voorhis,  J. M. Herbert,  A. I. Krylov,  
 P. M. W. Gill,  M. Head-Gordon

 Contributors to earlier versions of Q-Chem not listed above: 
 R. D. Adamson,  B. Austin,  J. Baker,  G. J. O. Beran,  K. Brandhorst,  
 S. T. Brown,  E. F. C. Byrd,  A. K. Chakraborty,  C.-L. Cheng,  
 Siu Hung Chien,  D. M. Chipman,  D. L. Crittenden,  H. Dachsel,  
 R. J. Doerksen,  A. D. Dutoi,  L. Fusti-Molnar,  W. A. Goddard III,  
 A. Golubeva-Zadorozhnaya,  S. R. Gwaltney,  G. Hawkins,  A. Heyden,  
 S. Hirata,  G. Kedziora,  F. J. Keil,  C. Kelley,  Jihan Kim,  R. A. King,  
 R. Z. Khaliullin,  P. P. Korambath,  W. Kurlancheek,  A. M. Lee,  M. S. Lee,  
 S. V. Levchenko,  Ching Yeh Lin,  D. Liotard,  R. C. Lochan,  I. Lotan,  
 P. E. Maslen,  N. Nair,  D. P. O'Neill,  D. Neuhauser,  E. Neuscamman,  
 C. M. Oana,  R. Olson,  B. Peters,  R. Peverati,  P. A. Pieniazek,  
 Y. M. Rhee,  J. Ritchie,  M. A. Rohrdanz,  E. Rosta,  N. J. Russ,  
 H. F. Schaefer III,  N. E. Schultz,  N. Shenvi,  A. C. Simmonett,  A. Sodt,  
 D. Stuck,  K. S. Thanthiriwatte,  V. Vanovschi,  Tao Wang,  A. Warshel,  
 C. F. Williams,  Q. Wu,  X. Xu,  W. Zhang

 Please cite Q-Chem as follows:
 Y. Shao et al., Mol. Phys. 113, 184-215 (2015)
 DOI: 10.1080/00268976.2014.952696

 Q-Chem 5.2.1 for Intel X86 EM64T Linux

 Parts of Q-Chem use Armadillo 8.300.2 (Tropical Shenanigans).
 http://arma.sourceforge.net/

 Q-Chem begins on Mon May 10 09:10:24 2021  

compute-0-0.local
Host: 0

     Scratch files written to /home/meili/scratch/qchem20327//Frg1//
NAlpha2: 40
NElect   40
Mult     1

Checking the input file for inconsistencies... 	...done.

--------------------------------------------------------------
User input:
--------------------------------------------------------------
$molecule
0 1
 6	11.9940000000	30.5060000000	28.8990000000
 1	12.9810000000	30.2410000000	28.7330000000
 6	11.1350000000	29.9940000000	27.7640000000
 8	10.0650000000	30.5410000000	27.4050000000
 7	11.5520000000	28.9260000000	27.1020000000
 1	12.4620000000	28.5080000000	27.3100000000
 6	10.7660000000	28.1910000000	26.0990000000
 1	10.2870000000	28.8810000000	25.4640000000
 1	11.6600000000	30.0770000000	29.8200000000
 1	11.9160000000	31.5720000000	28.9520000000
 1	11.4150000000	27.5650000000	25.5230000000
 1	10.0340000000	27.5830000000	26.5890000000
$end
$rem
EDA2		1
METHOD		WB97X-V
BASIS		DEF2-TZVPD
XC_GRID		000099000590
NL_GRID		1
UNRESTRICTED		FALSE
MAX_SCF_CYCLES		200
SYMMETRY		FALSE
SYM_IGNORE		TRUE
BASIS_LIN_DEP_THRESH		6
THRESH		14
SCF_CONVERGENCE		8
SCF_PRINT_FRGM		TRUE
!required keywords
JOBTYPE		SP
SYM_IGNORE		TRUE
SUBSYSTEM		TRUE
GEN_SCFMAN		TRUE
CHILD_INSTRUCTION		2
SYM_IGNORE		TRUE
SCFMI		0
RI_K 0		
PARI_K 0		
MIN_PARI_K 0		
IARI_K 0		
OCC_RI_K 0		
PURECART		1111
MEM_STATIC		2000
MEM_TOTAL		2000
GUI		0
CHILD_MP		1
CHILD_MP_ORDERS		232
FRZ_RELAX		0
FRZ_RELAX_METHOD		0
EDA_CLS_ELEC		1
EDA_CLS_DISP		0
FRZ_ORTHO_DECOMP		1
EDA2		FALSE
FRGM_METHOD		FALSE
CIS_N_ROOTS  0
LOCAL_CIS    0
CIS_RLX_DNS  1
$end
--------------------------------------------------------------
 ----------------------------------------------------------------
             Standard Nuclear Orientation (Angstroms)
    I     Atom           X                Y                Z
 ----------------------------------------------------------------
    1      C      11.9940000000    30.5060000000    28.8990000000
    2      H      12.9810000000    30.2410000000    28.7330000000
    3      C      11.1350000000    29.9940000000    27.7640000000
    4      O      10.0650000000    30.5410000000    27.4050000000
    5      N      11.5520000000    28.9260000000    27.1020000000
    6      H      12.4620000000    28.5080000000    27.3100000000
    7      C      10.7660000000    28.1910000000    26.0990000000
    8      H      10.2870000000    28.8810000000    25.4640000000
    9      H      11.6600000000    30.0770000000    29.8200000000
   10      H      11.9160000000    31.5720000000    28.9520000000
   11      H      11.4150000000    27.5650000000    25.5230000000
   12      H      10.0340000000    27.5830000000    26.5890000000
 ----------------------------------------------------------------
 Nuclear Repulsion Energy =         180.55677125 hartrees
 There are       20 alpha and       20 beta electrons
 Requested basis set is def2-TZVPD
 There are 101 shells and 251 basis functions

 Total QAlloc Memory Limit   2000 MB
 Mega-Array Size      1956 MB
 MEM_STATIC part      2000 MB

                       Distance Matrix (Angstroms)
             C (  1)   H (  2)   C (  3)   O (  4)   N (  5)   H (  6)
   H (  2)  1.035350
   C (  3)  1.512696  2.099449
   O (  4)  2.440144  3.218173  1.254189
   N (  5)  2.433305  2.536026  1.323917  2.216123
   H (  6)  2.595371  2.301647  2.043341  3.144475  1.022784
   C (  7)  3.834998  4.005831  2.481773  2.778405  1.471064  2.107944
   H (  8)  4.165777  4.449000  2.692187  2.563662  2.070095  2.877059
   H (  9)  1.069504  1.718577  2.123594  2.931134  2.953640  3.066768
   H ( 10)  1.070163  1.718647  2.124003  2.623427  3.249048  3.518860
   H ( 11)  4.514654  4.462895  3.316703  3.771074  2.089098  2.275704
   H ( 12)  4.209707  4.510710  2.899267  3.068645  2.090728  2.696414
             C (  7)   H (  8)   H (  9)   H ( 10)   H ( 11)
   H (  8)  1.052980
   H (  9)  4.266389  4.721258
   H ( 10)  4.570916  4.696942  1.747565
   H ( 11)  1.069978  1.734278  4.983410  5.297650
   H ( 12)  1.070321  1.736214  4.393549  5.003780  1.744661

 A cutoff of  1.0D-14 yielded   5026 shell pairs
 There are     31628 function pairs (     39783 Cartesian)
 Smallest overlap matrix eigenvalue = 7.22E-06

 Scale SEOQF with 1.000000e-02/1.000000e-03/1.000000e-03

 Standard Electronic Orientation quadrupole field applied
 Nucleus-field energy     =     0.0000000105 hartrees
 Guess from superposition of atomic densities
 Warning:  Energy on first SCF cycle will be non-variational
 SAD guess density has 40.000000 electrons

 -----------------------------------------------------------------------
  General SCF calculation program by
  Eric Jon Sundstrom, Paul Horn, Yuezhi Mao, Dmitri Zuev, Alec White,
  David Stuck, Shaama M.S., Shane Yost, Joonho Lee, David Small,
  Daniel Levine, Susi Lehtola, Hugh Burton, Evgeny Epifanovsky,
  Bang C. Huynh
 -----------------------------------------------------------------------
 Exchange:     0.1670 Hartree-Fock + 1.0000 wB97X-V + LR-HF
 Correlation:  1.0000 wB97X-V
 Using Euler-Maclaurin-Lebedev (99,590) quadrature formula
 Nonlocal Correlation:  VV10 with C = 0.0100 and b = 6.00 and scale = 1.00000
 Grid used for NLC:  SG-1 standard quadrature
Energy prior to optimization (guess energy) = -248.411240091012
Begin Timing: Total SCF Calculation
begin iterations for algorithm: DIIS         
the SCF tolerance is set to 1.00e-08
    1    -248.4112400910      4.34e-03     00000 
    2    -248.3363042490      6.06e-03     00000 
    3    -248.5359744162      5.38e-04     00000 
    4    -248.5377428734      2.25e-04     00000 
    5    -248.5380817038      5.73e-05     00000 
    6    -248.5381106276      2.04e-05     00000 
    7    -248.5381158932      5.56e-06     00000 
    8    -248.5381165878      1.67e-06     00000 
    9    -248.5381166365      5.94e-07     00000 
   10    -248.5381166405      1.32e-07     00000 
   11    -248.5381166408      2.30e-08     00000 
   12    -248.5381166408      8.06e-09     00000 Convergence criterion met
Timing for Total SCF: 163.00s (wall), 1246.29s (cpu)
Multipole orders to be included
        2
        3
computing dipole RHS
computing quadrupole RHS
total number of RHS in solve_reponses: 8
RHS batch sizes
        8
Beginning Block Conjugate Gradient Iterations. Batch Number: 0
computing hessian-vector products by finite difference
              1      4.80e-01     00000 Conjugate Gradient Iteration
computing hessian-vector products by finite difference
              2      1.52e-01     00000 Conjugate Gradient Iteration
computing hessian-vector products by finite difference
              3      3.60e-02     00000 Conjugate Gradient Iteration
computing hessian-vector products by finite difference
              4      8.99e-03     00000 Conjugate Gradient Iteration
computing hessian-vector products by finite difference
              5      1.67e-03     00000 Conjugate Gradient Iteration
computing hessian-vector products by finite difference
              6      3.30e-04     00000 Conjugate Gradient Iteration
computing hessian-vector products by finite difference
              7      5.33e-05     00000 Conjugate Gradient Iteration
computing hessian-vector products by finite difference
              8      7.70e-06     00000 Conjugate Gradient Iteration
computing hessian-vector products by finite difference
              9      1.13e-06     00000 Conjugate Gradient Iteration
computing hessian-vector products by finite difference
             10      1.51e-07     00000 Conjugate Gradient Iteration
computing hessian-vector products by finite difference
             11      2.68e-08     00000 Conjugate Gradient Iteration
computing hessian-vector products by finite difference
             12      5.03e-09     00000 CG Converged
batch 0 complete
Done Calculating Responses
TESTING ORTHOGONALIZATION OF MULTIPOLE BASIS
Multipole virts passed orthogonality test
Virts Per Order
           60
          100

 --------------------------------------------------------------

                    Orbital Energies (a.u.)
 --------------------------------------------------------------

 Alpha MOs
 -- Occupied --
-19.1597 -14.4396 -10.3665 -10.2960 -10.2660  -1.1507  -1.0472  -0.8945
 -0.8294  -0.7064  -0.6236  -0.5863  -0.5778  -0.5441  -0.5217  -0.5115
 -0.4893  -0.4609  -0.3558  -0.3498
 -- Virtual --
  0.0543   0.0774   0.0929   0.1054   0.1095   0.1240   0.1355   0.1385
  0.1538   0.1635   0.1691   0.1866   0.1923   0.1983   0.2020   0.2251
  0.2383   0.2470   0.2555   0.2707   0.2728   0.2837   0.2878   0.2901
  0.3032   0.3082   0.3202   0.3299   0.3417   0.3550   0.3603   0.3617
  0.3730   0.3789   0.3833   0.3859   0.3903   0.4023   0.4101   0.4168
  0.4318   0.4389   0.4508   0.4561   0.4592   0.4732   0.4799   0.4882
  0.4927   0.4953   0.5159   0.5190   0.5302   0.5380   0.5494   0.5546
  0.5634   0.5803   0.6009   0.6090   0.6289   0.6417   0.6496   0.6740
  0.6827   0.7066   0.7153   0.7231   0.7323   0.7458   0.7505   0.7716
  0.7759   0.7923   0.7961   0.8069   0.8308   0.8338   0.8345   0.8526
  0.8586   0.8595   0.8759   0.9082   0.9282   0.9345   0.9886   1.0203
  1.0335   1.0392   1.0608   1.0749   1.1270   1.1483   1.1611   1.1781
  1.2223   1.2601   1.2760   1.2849   1.3210   1.3369   1.3660   1.3737
  1.3867   1.4363   1.5084   1.5324   1.6230   1.6907   1.7433   1.7460
  1.7852   1.8305   1.8436   1.8687   1.8749   1.8906   1.9152   1.9202
  1.9473   1.9584   1.9917   2.0115   2.0399   2.0632   2.0992   2.1497
  2.1824   2.1913   2.2071   2.2287   2.2957   2.3211   2.3501   2.3790
  2.4046   2.4397   2.4511   2.5031   2.5163   2.5764   2.5997   2.6007
  2.6185   2.6345   2.6669   2.6999   2.7858   2.8082   2.8261   2.8417
  2.8625   2.8966   2.9371   2.9668   2.9838   3.0158   3.0782   3.1180
  3.1557   3.1802   3.2208   3.2597   3.2834   3.2986   3.3120   3.3304
  3.3513   3.3666   3.3969   3.4246   3.4469   3.4619   3.4991   3.5186
  3.5687   3.5911   3.6197   3.6353   3.6592   3.6700   3.7120   3.7538
  3.8420   3.9032   3.9612   3.9874   4.0366   4.0643   4.1401   4.1823
  4.2933   4.3265   4.4410   4.4804   4.5855   4.6628   4.7217   4.7242
  4.7632   4.8436   4.9614   4.9906   5.0039   5.1885   5.2408   5.2680
  5.3603   5.4050   5.4383   5.4598   5.6390   5.6724   5.7403   5.7793
  5.9872   6.1174   6.2263   6.4880   6.6852   6.7465   6.8305   7.0057
  7.2604   7.3436  22.6962  22.7414  23.5747  32.6832  44.3423
 --------------------------------------------------------------

          Ground-State Mulliken Net Atomic Charges

     Atom                 Charge (a.u.)
  ----------------------------------------
      1 C                    -0.759201
      2 H                     0.260178
      3 C                     0.530744
      4 O                    -0.566908
      5 N                    -0.091097
      6 H                     0.205231
      7 C                    -0.698036
      8 H                     0.252228
      9 H                     0.189336
     10 H                     0.205913
     11 H                     0.252515
     12 H                     0.219097
  ----------------------------------------
  Sum of atomic charges =     0.000000

 -----------------------------------------------------------------
                    Cartesian Multipole Moments
 -----------------------------------------------------------------
    Charge (ESU x 10^10)
                -0.0000
    Dipole Moment (Debye)
         X       3.3500      Y      -2.7198      Z       0.3075
       Tot       4.3260
    Quadrupole Moments (Debye-Ang)
        XX      42.1900     XY      71.2721     YY    -191.5225
        XZ      96.2173     YZ     -63.0116     ZZ     -11.5474
    Octopole Moments (Debye-Ang^2)
       XXX     169.2492    XXY     959.3337    XYY     948.7876
       YYY   -9860.1318    XXZ    1214.3251    XYZ    2111.6934
       YYZ   -4838.7633    XZZ    2440.3148    YZZ   -2252.1813
       ZZZ   -1646.5267
    Hexadecapole Moments (Debye-Ang^3)
      XXXX   -5485.5717   XXXY    1951.2554   XXYY   16080.3191
      XYYY  -16228.7124   YYYY -442984.0586   XXXZ    5323.7779
      XXYZ   28305.0680   XYYZ   31472.9647   YYYZ -256208.3259
      XXZZ   31260.0780   XYZZ   52811.5713   YYZZ -146360.3699
      XZZZ   52705.2136   YZZZ  -99375.9120   ZZZZ -103367.3600
 -----------------------------------------------------------------
Archival summary:
1\1\compute-0-0.local\SP\ProcedureUnspecified\BasisUnspecified\1137\meili\MonMay1010:10:232021MonMay1010:10:232021\0\\#,ProcedureUnspecified,BasisUnspecified,\\0,1\N\H,1,1.02278\C,1,1.32392,2,120.547\O,3,1.25419,1,118.517,2,174.216,0\C,1,1.47106,2,114.195,3,-176.385,0\H,5,1.05298,1,109.076,2,-140.089,0\H,5,1.06998,1,109.589,2,-20.1597,0\H,5,1.07032,1,109.7,2,99.7257,0\C,3,1.5127,1,117.993,2,-4.56145,0\H,9,1.03535,3,109.537,1,26.6333,0\H,9,1.0695,3,109.453,1,-93.3789,0\H,9,1.07016,3,109.446,1,146.587,0\\\@

 Total job time:  3599.12s(wall), 27264.91s(cpu) 
 Mon May 10 10:10:23 2021

        *************************************************************
        *                                                           *
        *  Thank you very much for using Q-Chem.  Have a nice day.  *
        *                                                           *
        *************************************************************


Done Job For Fragment 0
calling putenv with: QCSCRATCH=/home/meili/scratch 
calling putenv with: QCTHREADS=8 
Creating input file /home/meili/scratch/qchem20327/Frg2.input
using default PutDataFrgm: nothing
calling putenv with: QCSCRATCH=/home/meili/scratch/qchem20327/ 
Spawning Job For Fragment 1
                  Welcome to Q-Chem
     A Quantum Leap Into The Future Of Chemistry


 Q-Chem 5.2 (devel), Q-Chem, Inc., Pleasanton, CA (2019)

 Yihan Shao,  Zhengting Gan,  E. Epifanovsky,  A. T. B. Gilbert,  M. Wormit,  
 J. Kussmann,  A. W. Lange,  A. Behn,  Jia Deng,  Xintian Feng,  D. Ghosh,  
 M. Goldey,  P. R. Horn,  L. D. Jacobson,  I. Kaliman,  T. Kus,  A. Landau,  
 Jie Liu,  E. I. Proynov,  R. M. Richard,  R. P. Steele,  E. J. Sundstrom,  
 H. L. Woodcock III,  P. M. Zimmerman,  D. Zuev,  B. Albrecht,  E. Alguire,  
 S. A. Baeppler,  D. Barton,  Z. Benda,  Y. A. Bernard,  E. J. Berquist,  
 K. B. Bravaya,  H. Burton,  D. Casanova,  Chun-Min Chang,  Yunqing Chen,  
 A. Chien,  K. D. Closser,  M. P. Coons,  S. Coriani,  S. Dasgupta,  
 A. L. Dempwolff,  M. Diedenhofen,  Hainam Do,  R. G. Edgar,  Po-Tung Fang,  
 S. Faraji,  S. Fatehi,  Qingguo Feng,  K. D. Fenk,  J. Fosso-Tande,  
 J. Gayvert,  Qinghui Ge,  A. Ghysels,  G. Gidofalvi,  J. Gomes,  
 J. Gonthier,  A. Gunina,  D. Hait,  M. W. D. Hanson-Heine,  
 P. H. P. Harbach,  A. W. Hauser,  M. F. Herbst,  J. E. Herr,  
 E. G. Hohenstein,  Z. C. Holden,  Kerwin Hui,  B. C. Huynh,  T.-C. Jagau,  
 Hyunjun Ji,  B. Kaduk,  K. Khistyaev,  Jaehoon Kim,  P. Klunzinger,  K. Koh,  
 D. Kosenkov,  L. Koulias,  T. Kowalczyk,  C. M. Krauter,  A. Kunitsa,  
 Ka Un Lao,  A. Laurent,  K. V. Lawler,  Joonho Lee,  D. Lefrancois,  
 S. Lehtola,  D. S. Levine,  Yi-Pei Li,  You-Sheng Lin,  Fenglai Liu,  
 E. Livshits,  A. Luenser,  P. Manohar,  E. Mansoor,  S. F. Manzer,  
 Shan-Ping Mao,  Yuezhi Mao,  N. Mardirossian,  A. V. Marenich,  
 T. Markovich,  L. A. Martinez-Martinez,  S. A. Maurer,  N. J. Mayhall,  
 S. C. McKenzie,  J.-M. Mewes,  P. Morgante,  A. F. Morrison,  
 J. W. Mullinax,  K. Nanda,  T. S. Nguyen-Beck,  R. Olivares-Amaya,  
 J. A. Parkhill,  Zheng Pei,  T. M. Perrine,  F. Plasser,  P. Pokhilko,  
 S. Prager,  A. Prociuk,  E. Ramos,  D. R. Rehn,  F. Rob,  M. Scheurer,  
 M. Schneider,  N. Sergueev,  S. M. Sharada,  S. Sharma,  D. W. Small,  
 T. Stauch,  T. Stein,  Yu-Chuan Su,  A. J. W. Thom,  A. Tkatchenko,  
 T. Tsuchimochi,  N. M. Tubman,  L. Vogt,  M. L. Vidal,  O. Vydrov,  
 M. A. Watson,  J. Wenzel,  M. de Wergifosse,  T. A. Wesolowski,  A. White,  
 J. Witte,  A. Yamada,  Jun Yang,  K. Yao,  S. Yeganeh,  S. R. Yost,  
 Zhi-Qiang You,  A. Zech,  Igor Ying Zhang,  Xing Zhang,  Yan Zhao,  
 Ying Zhu,  B. R. Brooks,  G. K. L. Chan,  C. J. Cramer,  M. S. Gordon,  
 W. J. Hehre,  A. Klamt,  M. W. Schmidt,  C. D. Sherrill,  D. G. Truhlar,  
 A. Aspuru-Guzik,  R. Baer,  A. T. Bell,  N. A. Besley,  Jeng-Da Chai,  
 A. E. DePrince, III,  R. A. DiStasio Jr.,  A. Dreuw,  B. D. Dunietz,  
 T. R. Furlani,  Chao-Ping Hsu,  Yousung Jung,  Jing Kong,  D. S. Lambrecht,  
 WanZhen Liang,  C. Ochsenfeld,  V. A. Rassolov,  L. V. Slipchenko,  
 J. E. Subotnik,  T. Van Voorhis,  J. M. Herbert,  A. I. Krylov,  
 P. M. W. Gill,  M. Head-Gordon

 Contributors to earlier versions of Q-Chem not listed above: 
 R. D. Adamson,  B. Austin,  J. Baker,  G. J. O. Beran,  K. Brandhorst,  
 S. T. Brown,  E. F. C. Byrd,  A. K. Chakraborty,  C.-L. Cheng,  
 Siu Hung Chien,  D. M. Chipman,  D. L. Crittenden,  H. Dachsel,  
 R. J. Doerksen,  A. D. Dutoi,  L. Fusti-Molnar,  W. A. Goddard III,  
 A. Golubeva-Zadorozhnaya,  S. R. Gwaltney,  G. Hawkins,  A. Heyden,  
 S. Hirata,  G. Kedziora,  F. J. Keil,  C. Kelley,  Jihan Kim,  R. A. King,  
 R. Z. Khaliullin,  P. P. Korambath,  W. Kurlancheek,  A. M. Lee,  M. S. Lee,  
 S. V. Levchenko,  Ching Yeh Lin,  D. Liotard,  R. C. Lochan,  I. Lotan,  
 P. E. Maslen,  N. Nair,  D. P. O'Neill,  D. Neuhauser,  E. Neuscamman,  
 C. M. Oana,  R. Olson,  B. Peters,  R. Peverati,  P. A. Pieniazek,  
 Y. M. Rhee,  J. Ritchie,  M. A. Rohrdanz,  E. Rosta,  N. J. Russ,  
 H. F. Schaefer III,  N. E. Schultz,  N. Shenvi,  A. C. Simmonett,  A. Sodt,  
 D. Stuck,  K. S. Thanthiriwatte,  V. Vanovschi,  Tao Wang,  A. Warshel,  
 C. F. Williams,  Q. Wu,  X. Xu,  W. Zhang

 Please cite Q-Chem as follows:
 Y. Shao et al., Mol. Phys. 113, 184-215 (2015)
 DOI: 10.1080/00268976.2014.952696

 Q-Chem 5.2.1 for Intel X86 EM64T Linux

 Parts of Q-Chem use Armadillo 8.300.2 (Tropical Shenanigans).
 http://arma.sourceforge.net/

 Q-Chem begins on Mon May 10 10:10:23 2021  

compute-0-0.local
Host: 0

     Scratch files written to /home/meili/scratch/qchem20327//Frg2//
NAlpha2: 40
NElect   40
Mult     1

Checking the input file for inconsistencies... 	...done.

--------------------------------------------------------------
User input:
--------------------------------------------------------------
$molecule
0 1
 6	15.7000000000	29.8750000000	27.3460000000
 1	14.9390000000	30.3210000000	28.0640000000
 6	15.1440000000	29.9210000000	25.8930000000
 8	15.2950000000	28.9540000000	25.1460000000
 7	14.5640000000	31.0420000000	25.4320000000
 1	14.2930000000	31.8000000000	26.0850000000
 6	14.0780000000	31.2050000000	24.1030000000
 1	13.4780000000	30.3140000000	23.8800000000
 1	16.6090000000	30.4380000000	27.3970000000
 1	15.8900000000	28.8580000000	27.6190000000
 1	13.4730000000	32.0850000000	24.0360000000
 1	14.8830000000	31.3140000000	23.4070000000
$end
$rem
EDA2		1
METHOD		WB97X-V
BASIS		DEF2-TZVPD
XC_GRID		000099000590
NL_GRID		1
UNRESTRICTED		FALSE
MAX_SCF_CYCLES		200
SYMMETRY		FALSE
SYM_IGNORE		TRUE
BASIS_LIN_DEP_THRESH		6
THRESH		14
SCF_CONVERGENCE		8
SCF_PRINT_FRGM		TRUE
!required keywords
JOBTYPE		SP
SYM_IGNORE		TRUE
SUBSYSTEM		TRUE
GEN_SCFMAN		TRUE
CHILD_INSTRUCTION		2
SYM_IGNORE		TRUE
SCFMI		0
RI_K 0		
PARI_K 0		
MIN_PARI_K 0		
IARI_K 0		
OCC_RI_K 0		
PURECART		1111
MEM_STATIC		2000
MEM_TOTAL		2000
GUI		0
CHILD_MP		1
CHILD_MP_ORDERS		232
FRZ_RELAX		0
FRZ_RELAX_METHOD		0
EDA_CLS_ELEC		1
EDA_CLS_DISP		0
FRZ_ORTHO_DECOMP		1
EDA2		FALSE
FRGM_METHOD		FALSE
CIS_N_ROOTS  0
LOCAL_CIS    0
CIS_RLX_DNS  1
$end
--------------------------------------------------------------
 ----------------------------------------------------------------
             Standard Nuclear Orientation (Angstroms)
    I     Atom           X                Y                Z
 ----------------------------------------------------------------
    1      C      15.7000000000    29.8750000000    27.3460000000
    2      H      14.9390000000    30.3210000000    28.0640000000
    3      C      15.1440000000    29.9210000000    25.8930000000
    4      O      15.2950000000    28.9540000000    25.1460000000
    5      N      14.5640000000    31.0420000000    25.4320000000
    6      H      14.2930000000    31.8000000000    26.0850000000
    7      C      14.0780000000    31.2050000000    24.1030000000
    8      H      13.4780000000    30.3140000000    23.8800000000
    9      H      16.6090000000    30.4380000000    27.3970000000
   10      H      15.8900000000    28.8580000000    27.6190000000
   11      H      13.4730000000    32.0850000000    24.0360000000
   12      H      14.8830000000    31.3140000000    23.4070000000
 ----------------------------------------------------------------
 Nuclear Repulsion Energy =         179.94724767 hartrees
 There are       20 alpha and       20 beta electrons
 Requested basis set is def2-TZVPD
 There are 101 shells and 251 basis functions

 Total QAlloc Memory Limit   2000 MB
 Mega-Array Size      1956 MB
 MEM_STATIC part      2000 MB

                       Distance Matrix (Angstroms)
             C (  1)   H (  2)   C (  3)   O (  4)   N (  5)   H (  6)
   H (  2)  1.137348
   C (  3)  1.556426  2.217040
   O (  4)  2.419146  3.241936  1.231219
   N (  5)  2.513122  2.754612  1.343712  2.230673
   H (  6)  2.697294  2.553664  2.071643  3.159975  1.036539
   C (  7)  3.862232  4.148771  2.447266  2.763320  1.424432  2.080523
   H (  8)  4.140430  4.431752  2.642380  2.598816  2.029306  2.781087
   H (  9)  1.070444  1.802076  2.162297  2.999309  2.899667  2.990024
   H ( 10)  1.070008  1.800776  2.159991  2.545382  3.363198  3.682245
   H ( 11)  4.560672  4.635260  3.305085  3.788792  2.055954  2.225315
   H ( 12)  4.272462  4.762020  2.861602  2.960315  2.067939  2.784956
             C (  7)   H (  8)   H (  9)   H ( 10)   H ( 11)
   H (  8)  1.097092
   H (  9)  4.224297  4.710396
   H ( 10)  4.599349  4.681645  1.750041
   H ( 11)  1.070007  1.777864  4.882973  5.393821
   H ( 12)  1.069730  1.788226  4.434699  4.978647  1.725741

 A cutoff of  1.0D-14 yielded   5026 shell pairs
 There are     31620 function pairs (     39775 Cartesian)
 Smallest overlap matrix eigenvalue = 9.19E-06

 Scale SEOQF with 1.000000e-02/1.000000e-03/1.000000e-03

 Standard Electronic Orientation quadrupole field applied
 Nucleus-field energy     =     0.0000000300 hartrees
 Guess from superposition of atomic densities
 Warning:  Energy on first SCF cycle will be non-variational
 SAD guess density has 40.000000 electrons

 -----------------------------------------------------------------------
  General SCF calculation program by
  Eric Jon Sundstrom, Paul Horn, Yuezhi Mao, Dmitri Zuev, Alec White,
  David Stuck, Shaama M.S., Shane Yost, Joonho Lee, David Small,
  Daniel Levine, Susi Lehtola, Hugh Burton, Evgeny Epifanovsky,
  Bang C. Huynh
 -----------------------------------------------------------------------
 Exchange:     0.1670 Hartree-Fock + 1.0000 wB97X-V + LR-HF
 Correlation:  1.0000 wB97X-V
 Using Euler-Maclaurin-Lebedev (99,590) quadrature formula
 Nonlocal Correlation:  VV10 with C = 0.0100 and b = 6.00 and scale = 1.00000
 Grid used for NLC:  SG-1 standard quadrature
Energy prior to optimization (guess energy) = -248.418122410414
Begin Timing: Total SCF Calculation
begin iterations for algorithm: DIIS         
the SCF tolerance is set to 1.00e-08
    1    -248.4181224104      4.26e-03     00000 
    2    -248.3527319620      5.87e-03     00000 
    3    -248.5377952294      5.08e-04     00000 
    4    -248.5393551841      2.28e-04     00000 
    5    -248.5397054055      5.35e-05     00000 
    6    -248.5397320895      1.99e-05     00000 
    7    -248.5397370971      5.50e-06     00000 
    8    -248.5397377675      1.66e-06     00000 
    9    -248.5397378128      6.26e-07     00000 
   10    -248.5397378172      1.21e-07     00000 
   11    -248.5397378175      2.52e-08     00000 
   12    -248.5397378175      1.04e-08     00000 
   13    -248.5397378175      2.80e-09     00000 Convergence criterion met
Timing for Total SCF: 203.00s (wall), 1553.68s (cpu)
Multipole orders to be included
        2
        3
computing dipole RHS
computing quadrupole RHS
total number of RHS in solve_reponses: 8
RHS batch sizes
        8
Beginning Block Conjugate Gradient Iterations. Batch Number: 0
computing hessian-vector products by finite difference
              1      4.93e-01     00000 Conjugate Gradient Iteration
computing hessian-vector products by finite difference
              2      1.68e-01     00000 Conjugate Gradient Iteration
computing hessian-vector products by finite difference
              3      4.35e-02     00000 Conjugate Gradient Iteration
computing hessian-vector products by finite difference
              4      1.06e-02     00000 Conjugate Gradient Iteration
computing hessian-vector products by finite difference
              5      1.94e-03     00000 Conjugate Gradient Iteration
computing hessian-vector products by finite difference
              6      3.63e-04     00000 Conjugate Gradient Iteration
computing hessian-vector products by finite difference
              7      5.13e-05     00000 Conjugate Gradient Iteration
computing hessian-vector products by finite difference
              8      8.01e-06     00000 Conjugate Gradient Iteration
computing hessian-vector products by finite difference
              9      1.26e-06     00000 Conjugate Gradient Iteration
computing hessian-vector products by finite difference
             10      3.43e-07     00000 Conjugate Gradient Iteration
computing hessian-vector products by finite difference
             11      5.65e-08     00000 Conjugate Gradient Iteration
computing hessian-vector products by finite difference
             12      8.01e-09     00000 CG Converged
batch 0 complete
Done Calculating Responses
TESTING ORTHOGONALIZATION OF MULTIPOLE BASIS
Multipole virts passed orthogonality test
Virts Per Order
           60
          100

 --------------------------------------------------------------

                    Orbital Energies (a.u.)
 --------------------------------------------------------------

 Alpha MOs
 -- Occupied --
-19.1669 -14.4387 -10.3704 -10.2951 -10.2773  -1.1616  -1.0553  -0.8808
 -0.8217  -0.7034  -0.6234  -0.5841  -0.5743  -0.5386  -0.5150  -0.5092
 -0.4910  -0.4623  -0.3577  -0.3536
 -- Virtual --
  0.0540   0.0779   0.0907   0.1054   0.1091   0.1227   0.1321   0.1412
  0.1551   0.1652   0.1656   0.1792   0.1867   0.1996   0.2083   0.2238
  0.2351   0.2397   0.2551   0.2689   0.2730   0.2831   0.2874   0.2909
  0.3028   0.3078   0.3168   0.3317   0.3425   0.3491   0.3534   0.3587
  0.3678   0.3743   0.3796   0.3858   0.3932   0.4013   0.4112   0.4183
  0.4284   0.4393   0.4506   0.4524   0.4554   0.4713   0.4749   0.4827
  0.4839   0.5017   0.5090   0.5163   0.5268   0.5300   0.5367   0.5488
  0.5637   0.5782   0.6100   0.6116   0.6246   0.6436   0.6485   0.6686
  0.6891   0.6980   0.7166   0.7227   0.7279   0.7391   0.7538   0.7584
  0.7727   0.7784   0.7939   0.8065   0.8210   0.8297   0.8401   0.8505
  0.8545   0.8676   0.8873   0.8955   0.9523   0.9581   0.9819   1.0081
  1.0194   1.0460   1.0541   1.0732   1.1155   1.1392   1.1593   1.1936
  1.2152   1.2430   1.2747   1.2913   1.3222   1.3238   1.3634   1.3800
  1.3888   1.4534   1.5165   1.5517   1.6387   1.6716   1.7207   1.7341
  1.7632   1.8245   1.8409   1.8550   1.8777   1.8972   1.9184   1.9319
  1.9344   1.9573   1.9963   2.0078   2.0269   2.0556   2.0955   2.1379
  2.1521   2.1861   2.2231   2.2517   2.2761   2.2999   2.3397   2.3618
  2.3944   2.4330   2.4567   2.4765   2.5230   2.5543   2.5907   2.6037
  2.6057   2.6246   2.6389   2.7161   2.7754   2.8033   2.8118   2.8434
  2.8530   2.8887   2.9199   2.9271   2.9640   3.0087   3.0699   3.1124
  3.1573   3.1849   3.2101   3.2305   3.2865   3.3039   3.3108   3.3303
  3.3534   3.3718   3.3982   3.4346   3.4426   3.4730   3.4954   3.5152
  3.5468   3.5617   3.6007   3.6337   3.6648   3.6754   3.7073   3.7484
  3.8486   3.8697   3.9096   3.9958   4.0092   4.0704   4.1241   4.1565
  4.2639   4.3263   4.3479   4.4736   4.5160   4.5997   4.6664   4.7020
  4.7109   4.8354   4.9486   5.0013   5.0245   5.1950   5.2396   5.2640
  5.3457   5.3919   5.4289   5.4835   5.6301   5.6748   5.7377   5.7825
  6.0002   6.1156   6.2595   6.5240   6.6796   6.7478   6.8294   7.0091
  7.2736   7.3535  22.5656  22.7611  23.5435  32.6993  44.3366
 --------------------------------------------------------------

          Ground-State Mulliken Net Atomic Charges

     Atom                 Charge (a.u.)
  ----------------------------------------
      1 C                    -0.688565
      2 H                     0.226917
      3 C                     0.437550
      4 O                    -0.532055
      5 N                    -0.082551
      6 H                     0.232740
      7 C                    -0.660916
      8 H                     0.219806
      9 H                     0.198717
     10 H                     0.183586
     11 H                     0.261517
     12 H                     0.203255
  ----------------------------------------
  Sum of atomic charges =     0.000000

 -----------------------------------------------------------------
                    Cartesian Multipole Moments
 -----------------------------------------------------------------
    Charge (ESU x 10^10)
                 0.0000
    Dipole Moment (Debye)
         X      -1.0737      Y       3.5838      Z       1.5881
       Tot       4.0643
    Quadrupole Moments (Debye-Ang)
        XX     -62.3712     XY      20.4119     YY     183.9735
        XZ      -2.1009     YZ     137.2952     ZZ      52.4765
    Octopole Moments (Debye-Ang^2)
       XXX   -2075.4188    XXY   -1104.7893    XYY    1721.9880
       YYY    6866.5508    XXZ   -1192.5137    XYZ    1252.0121
       YYZ    6015.4374    XZZ     164.8140    YZZ    3810.2609
       ZZZ     906.6361
    Hexadecapole Moments (Debye-Ang^3)
      XXXX  -54937.1096   XXXY  -51158.1412   XXYY  -17285.3872
      XYYY   70687.3181   YYYY  217391.2612   XXXZ  -46774.8567
      XXYZ  -16636.0272   XYYZ   65015.5582   YYYZ  213226.7946
      XXZZ  -26700.6822   XYZZ   37715.3451   YYZZ  161055.3264
      XZZZ   -1306.3616   YZZZ   82816.2833   ZZZZ   -7245.3281
 -----------------------------------------------------------------
Archival summary:
1\1\compute-0-0.local\SP\ProcedureUnspecified\BasisUnspecified\1137\meili\MonMay1011:13:002021MonMay1011:13:002021\0\\#,ProcedureUnspecified,BasisUnspecified,\\0,1\N\H,1,1.03654\C,1,1.34371,2,120.45\O,3,1.23122,1,120.001,2,170.002,0\C,1,1.42443,2,114.512,3,170.272,0\H,5,1.06973,1,111.22,2,116.764,0\H,5,1.07001,1,110.209,2,-2.37601,0\H,5,1.09709,1,106.458,2,-121.925,0\C,3,1.55643,1,119.943,2,-13.5982,0\H,9,1.07001,3,109.251,1,165.647,0\H,9,1.07044,3,109.408,1,-74.2573,0\H,9,1.13735,3,109.8,1,45.7955,0\\\@

 Total job time:  3756.98s(wall), 28774.48s(cpu) 
 Mon May 10 11:13:00 2021

        *************************************************************
        *                                                           *
        *  Thank you very much for using Q-Chem.  Have a nice day.  *
        *                                                           *
        *************************************************************


Done Job For Fragment 1
calling putenv with: QCSCRATCH=/home/meili/scratch 
calling putenv with: QCTHREADS=8 
Doing General SCFMI
 Exchange:     0.1670 Hartree-Fock + 1.0000 wB97X-V + LR-HF
 Correlation:  1.0000 wB97X-V
 Using Euler-Maclaurin-Lebedev (99,590) quadrature formula
 Nonlocal Correlation:  VV10 with C = 0.0100 and b = 6.00 and scale = 1.00000
 Grid used for NLC:  SG-1 standard quadrature
performing fock build before subrot guess so that all methods have access
Printing subrot_rss_gen Method Specification:
Occupied Subspace Method is 0
Virtual Subspace Method is 0
Energy of the unrelaxed supersystem initial determinant -497.080652022463
write pseudocanon occs and virts to disk
write pseudocanon orbital energies to disk
Tolerance of ortho_decomp_scf: 1.00e-06
GDM subspace size: 20
Beginning the Orthogonal Decomposition of the Initial Supersystem Wavefunction
    1    -497.0690418520      1.48e-02     ortho_decomp Preconditoned Steepest Descent
    2    -497.0697083254      3.71e-04     ortho_decomp BFGS Step
    3    -497.0697101381      2.22e-05     ortho_decomp BFGS Step
    4    -497.0697101406      9.46e-07     ortho_decomp 00000 Convergence criterion met
 Hartree-Fock
 Hartree-Fock
 Hartree-Fock
Doing General SCFMI
 Exchange:     0.1670 Hartree-Fock + 1.0000 wB97X-V + LR-HF
 Correlation:  1.0000 wB97X-V
 Using Euler-Maclaurin-Lebedev (99,590) quadrature formula
 Nonlocal Correlation:  VV10 with C = 0.0100 and b = 6.00 and scale = 1.00000
 Grid used for NLC:  SG-1 standard quadrature
performing fock build at end of subrot_r(subrot) constructor so that all methods have access
<S^2> of initial wavefunction before polarization iterations 0.0000000000
Beginning iterations for the determination of the polarized wavefunction
Energy prior to optimization (guess energy) = -497.080652022463
Begin Timing: Total SCF Calculation
begin iterations for algorithm: DIIS         
the SCF tolerance is set to 1.00e-08
    1    -497.0806520225      8.50e-05     00000 
    2    -497.0811837651      3.40e-05     00000 
    3    -497.0812290657      1.47e-05     00000 
    4    -497.0812392125      6.72e-06     00000 
    5    -497.0812411206      2.64e-06     00000 
    6    -497.0812415333      1.63e-06     00000 
    7    -497.0812416487      6.06e-07     00000 
    8    -497.0812416680      2.14e-07     00000 
    9    -497.0812416701      8.01e-08     00000 
   10    -497.0812416704      3.25e-08     00000 
   11    -497.0812416705      2.10e-08     00000 
   12    -497.0812416705      7.27e-09     00000 Convergence criterion met
write pseudocanon occs and virts to disk
write pseudocanon orbital energies to disk
Timing for Total SCF: 1380.00s (wall), 10762.89s (cpu)
<S^2> of polarized wavefunction after polarization iterations 0.0000000000
relaxing scfmi constraint to allow all rotations in the entire AO span
Doing General SCFMI
 Exchange:     0.1670 Hartree-Fock + 1.0000 wB97X-V + LR-HF
 Correlation:  1.0000 wB97X-V
 Using Euler-Maclaurin-Lebedev (99,590) quadrature formula
 Nonlocal Correlation:  VV10 with C = 0.0100 and b = 6.00 and scale = 1.00000
 Grid used for NLC:  SG-1 standard quadrature
performing fock build at end of subrot_r(subrot) constructor so that all methods have access
<S^2> of polarized wavefunction before ct-allowed iterations 0.0000000000
Beginning iterations for the determination of the CT-Allowed wavefunction
Energy prior to optimization (guess energy) = -497.081241670464
Begin Timing: Total SCF Calculation
begin iterations for algorithm: DIIS         
the SCF tolerance is set to 1.00e-08
    1    -497.0812416705      7.45e-05     00000 
    2    -497.0819269704      8.00e-06     00000 
    3    -497.0819462056      1.17e-06     00000 
    4    -497.0819466606      5.32e-07     00000 
    5    -497.0819466865      2.12e-07     00000 
    6    -497.0819466912      7.37e-08     00000 
    7    -497.0819466918      1.27e-08     00000 
    8    -497.0819466918      6.21e-09     00000 Convergence criterion met
write pseudocanon occs and virts to disk
write pseudocanon orbital energies to disk
Timing for Total SCF: 897.00s (wall), 6939.38s (cpu)
<S^2> of ct_allowed wavefunction after ct-allowed iterations 0.0000000000

================================
        Results of EDA2         
================================
Basic EDA Quantities
--------------------
Fragment Energies (Ha):
1 -248.5381166408
2 -248.5397378175
--------------------
  E_prp (kJ/mol) = 0.0000
  E_frz (kJ/mol) = -7.3451
  E_pol (kJ/mol) = -1.5481
  E_vct (kJ/mol) = -1.8511
  E_int (kJ/mol) = -10.7443
--------------------


Initial Wavefunction Decomposition
--------------------
  --------------------
  Orthogonal Fragment Subspace Decomposition:
  --------------------
     E_elec   (ELEC)   (kJ/mol) = -12.1010
     E_pauli  (PAULI)  (kJ/mol) = 16.2735
     E_disp   (DISP)   (kJ/mol) = -11.5176
     --------------------
     Terms summing to E_pauli:
     --------------------
        E_kep_pauli       (kJ/mol) = 21.3832
        E_disp_free_pauli (kJ/mol) = -5.1097
  --------------------
  Classical Frozen Decomposition:
  --------------------
     E_cls_elec  (CLS ELEC)  (kJ/mol) = -5.3223
     E_cls_pauli (CLS PAULI) (kJ/mol) = -2.0228
    [E_mod_pauli (MOD PAULI) (kJ/mol) = 9.4948 (CLS PAULI - DISP from orthogonal decomposition) ]
  --------------------
--------------------

Simplified EDA Summary (kJ/mol)
--------------------
 PREPARATION     0.0000
 FROZEN          4.1725      (does not include dispersion)
[PAULI           16.2735]     (if this is negligible, then frozen describes electrostatics)
 DISPERSION      -11.5176
 POLARIZATION    -1.5481
 CHARGE TRANSFER -1.8511
 TOTAL           -10.7443     (PRP + FRZ + DISP + POL + CT)
--------------------

 --------------------------------------------------------------

                    Orbital Energies (a.u.)
 --------------------------------------------------------------

 Alpha MOs
 -- Occupied --
-19.1766 -19.1630 -14.4457 -14.4408 -10.3797 -10.3699 -10.2988 -10.2944
-10.2889 -10.2726  -1.1707  -1.1535  -1.0623  -1.0486  -0.8992  -0.8900
 -0.8309  -0.8287  -0.7099  -0.7071  -0.6308  -0.6261  -0.5970  -0.5870
 -0.5826  -0.5808  -0.5503  -0.5449  -0.5267  -0.5203  -0.5181  -0.5137
 -0.4978  -0.4913  -0.4718  -0.4635  -0.3653  -0.3634  -0.3573  -0.3532
 -- Virtual --
  0.0436   0.0665   0.0697   0.0747   0.0916   0.0935   0.0966   0.1035
  0.1081   0.1097   0.1186   0.1276   0.1311   0.1385   0.1446   0.1493
  0.1528   0.1566   0.1584   0.1666   0.1774   0.1811   0.1895   0.1932
  0.1956   0.2035   0.2167   0.2201   0.2260   0.2275   0.2334   0.2443
  0.2471   0.2539   0.2584   0.2604   0.2676   0.2690   0.2758   0.2800
  0.2839   0.2880   0.2908   0.3054   0.3069   0.3111   0.3148   0.3178
  0.3261   0.3295   0.3325   0.3362   0.3397   0.3439   0.3476   0.3528
  0.3561   0.3630   0.3661   0.3700   0.3711   0.3751   0.3801   0.3829
  0.3836   0.3895   0.3933   0.3964   0.4012   0.4082   0.4104   0.4137
  0.4234   0.4260   0.4288   0.4355   0.4432   0.4459   0.4496   0.4551
  0.4564   0.4592   0.4686   0.4721   0.4773   0.4801   0.4848   0.4905
  0.4939   0.4978   0.4993   0.5136   0.5158   0.5188   0.5216   0.5273
  0.5304   0.5342   0.5368   0.5390   0.5450   0.5527   0.5598   0.5633
  0.5729   0.5797   0.5837   0.5843   0.5940   0.6019   0.6066   0.6171
  0.6207   0.6252   0.6388   0.6436   0.6478   0.6508   0.6627   0.6723
  0.6764   0.6822   0.6894   0.6969   0.7015   0.7078   0.7097   0.7163
  0.7244   0.7284   0.7368   0.7443   0.7458   0.7519   0.7566   0.7642
  0.7725   0.7754   0.7822   0.7863   0.7930   0.7934   0.7979   0.8019
  0.8090   0.8178   0.8219   0.8310   0.8344   0.8366   0.8406   0.8523
  0.8613   0.8668   0.8704   0.8787   0.8821   0.8922   0.8967   0.9010
  0.9143   0.9241   0.9322   0.9415   0.9547   0.9611   0.9658   0.9688
  0.9811   1.0007   1.0132   1.0175   1.0283   1.0449   1.0508   1.0647
  1.0779   1.0832   1.0861   1.0907   1.1006   1.1214   1.1323   1.1459
  1.1496   1.1706   1.1746   1.1872   1.1958   1.2161   1.2301   1.2342
  1.2589   1.2598   1.2794   1.2925   1.3059   1.3126   1.3135   1.3422
  1.3459   1.3628   1.3694   1.3793   1.3982   1.4084   1.4216   1.4225
  1.4535   1.4660   1.4702   1.4840   1.5367   1.5408   1.5850   1.6111
  1.6430   1.6635   1.6895   1.7091   1.7537   1.7702   1.7842   1.7907
  1.8042   1.8258   1.8571   1.8635   1.8795   1.8860   1.8934   1.8969
  1.9084   1.9152   1.9316   1.9351   1.9432   1.9519   1.9548   1.9618
  1.9674   1.9855   1.9963   2.0044   2.0213   2.0237   2.0296   2.0380
  2.0573   2.0739   2.0863   2.1117   2.1306   2.1488   2.1506   2.1642
  2.1955   2.2115   2.2207   2.2300   2.2407   2.2444   2.2617   2.2824
  2.3004   2.3182   2.3324   2.3580   2.3674   2.3869   2.3915   2.4109
  2.4275   2.4603   2.4636   2.4731   2.4813   2.4898   2.5271   2.5325
  2.5494   2.5612   2.5843   2.6119   2.6214   2.6302   2.6406   2.6464
  2.6499   2.6596   2.6738   2.6886   2.6962   2.7103   2.7301   2.7549
  2.7890   2.8151   2.8190   2.8305   2.8364   2.8509   2.8731   2.8789
  2.8880   2.9002   2.9090   2.9262   2.9349   2.9499   2.9609   2.9778
  2.9991   2.9994   3.0485   3.0602   3.1092   3.1252   3.1408   3.1441
  3.1701   3.1912   3.2120   3.2268   3.2403   3.2584   3.2720   3.2886
  3.3041   3.3069   3.3214   3.3356   3.3381   3.3423   3.3512   3.3680
  3.3772   3.3873   3.3920   3.4024   3.4179   3.4198   3.4353   3.4453
  3.4590   3.4665   3.4766   3.4793   3.5113   3.5193   3.5349   3.5435
  3.5620   3.5768   3.5867   3.6111   3.6226   3.6386   3.6726   3.6765
  3.6826   3.6893   3.6943   3.7018   3.7258   3.7466   3.7709   3.7837
  3.8613   3.8665   3.8829   3.9156   3.9262   3.9781   3.9961   4.0174
  4.0259   4.0446   4.0748   4.0845   4.1322   4.1539   4.1675   4.2019
  4.2678   4.3106   4.3404   4.3474   4.3619   4.4589   4.4995   4.5072
  4.5279   4.6043   4.6130   4.6814   4.6868   4.7080   4.7227   4.7453
  4.7533   4.7854   4.8383   4.8539   4.9558   4.9925   5.0067   5.0104
  5.0355   5.0435   5.1968   5.2020   5.2484   5.2505   5.2734   5.2952
  5.3469   5.3647   5.3971   5.4150   5.4373   5.4493   5.4816   5.4908
  5.6319   5.6484   5.6749   5.6941   5.7395   5.7483   5.7790   5.7889
  5.9984   6.0020   6.1276   6.1427   6.2268   6.2596   6.4910   6.5231
  6.6865   6.6949   6.7438   6.7480   6.8335   6.8373   7.0201   7.0217
  7.2645   7.2708   7.3466   7.3536  22.6203  22.7281  22.7602  22.7752
 23.5533  23.5861  32.7337  32.7410  44.3941  44.4377
 --------------------------------------------------------------

          Ground-State Mulliken Net Atomic Charges

     Atom                 Charge (a.u.)
  ----------------------------------------
      1 C                    -0.389666
      2 H                    -0.127462
      3 C                     0.507409
      4 O                    -0.577779
      5 N                    -0.021996
      6 H                     0.194034
      7 C                    -0.772991
      8 H                     0.267612
      9 H                     0.200124
     10 H                     0.188927
     11 H                     0.275226
     12 H                     0.235195
     13 C                    -0.532435
     14 H                     0.021571
     15 C                     0.449090
     16 O                    -0.546289
     17 N                    -0.038436
     18 H                     0.242638
     19 C                    -0.679390
     20 H                     0.213802
     21 H                     0.244165
     22 H                     0.157664
     23 H                     0.267046
     24 H                     0.221940
  ----------------------------------------
  Sum of atomic charges =     0.000000

 -----------------------------------------------------------------
                    Cartesian Multipole Moments
 -----------------------------------------------------------------
    Charge (ESU x 10^10)
                -0.0000
    Dipole Moment (Debye)
         X       2.2947      Y       0.8542      Z       1.6726
       Tot       2.9653
    Quadrupole Moments (Debye-Ang)
        XX     -19.3984     XY      92.6507     YY      -7.7763
        XZ      91.5687     YZ      67.0312     ZZ      29.3513
    Octopole Moments (Debye-Ang^2)
       XXX   -1883.0665    XXY    -109.3646    XYY    2716.6881
       YYY   -2987.8743    XXZ       1.2610    XYZ    3294.2984
       YYZ     950.8786    XZZ    2460.1706    YZZ    1187.8944
       ZZZ   -1191.6150
    Hexadecapole Moments (Debye-Ang^3)
      XXXX  -59846.7507   XXXY  -48251.4884   XXYY     311.5512
      XYYY   56475.8885   YYYY -224736.4425   XXXZ  -41399.9795
      XXYZ   11335.0819   XYYZ   94724.5525   YYYZ  -49750.0529
      XXZZ    2959.3657   XYZZ   86262.3796   YYZZ    3113.0368
      XZZZ   45570.3562   YZZZ  -30923.6870   ZZZZ -126303.3964
 -----------------------------------------------------------------
Archival summary:
1\1\compute-0-0.local\SP\ProcedureUnspecified\BasisUnspecified\22614\meili\MonMay1012:17:252021MonMay1012:17:252021\0\\#,ProcedureUnspecified,BasisUnspecified,\\0,1\N\H,1,1.02278\C,1,1.32392,2,120.547\O,3,1.25419,1,118.517,2,174.216,0\C,1,1.47106,2,114.195,3,-176.385,0\H,5,1.05298,1,109.076,2,-140.089,0\H,5,1.06998,1,109.589,2,-20.1597,0\H,5,1.07032,1,109.7,2,99.7257,0\C,3,1.5127,1,117.993,2,-4.56145,0\H,9,1.03535,3,109.537,1,26.6333,0\H,9,1.0695,3,109.453,1,-93.3789,0\H,9,1.07016,3,109.446,1,146.587,0\H,10,2.07068,9,160.62,3,88.5636,0\C,13,1.13735,10,145.235,9,-109.927,0\H,14,1.07001,13,109.297,10,-65.5541,0\H,14,1.07044,13,109.382,10,174.338,0\C,14,1.55643,13,109.8,10,54.2696,0\O,17,1.23122,14,119.959,13,-137.803,0\N,17,1.34371,14,119.943,13,45.7955,0\H,19,1.03654,17,120.45,14,-13.5982,0\C,19,1.42443,17,124.252,14,177.121,0\H,21,1.06973,19,111.22,17,-73.386,0\H,21,1.07001,19,110.209,17,167.474,0\H,21,1.09709,19,106.458,17,47.9252,0\\\@

 Total job time:  11290.80s(wall), 30008.52s(cpu) 
 Mon May 10 12:17:25 2021

        *************************************************************
        *                                                           *
        *  Thank you very much for using Q-Chem.  Have a nice day.  *
        *                                                           *
        *************************************************************


