                  Welcome to Q-Chem
     A Quantum Leap Into The Future Of Chemistry


 Q-Chem 5.2 (devel), Q-Chem, Inc., Pleasanton, CA (2019)

 Yihan Shao,  Zhengting Gan,  E. Epifanovsky,  A. T. B. Gilbert,  M. Wormit,  
 J. Kussmann,  A. W. Lange,  A. Behn,  Jia Deng,  Xintian Feng,  D. Ghosh,  
 M. Goldey,  P. R. Horn,  L. D. Jacobson,  I. Kaliman,  T. Kus,  A. Landau,  
 Jie Liu,  E. I. Proynov,  R. M. Richard,  R. P. Steele,  E. J. Sundstrom,  
 H. L. Woodcock III,  P. M. Zimmerman,  D. Zuev,  B. Albrecht,  E. Alguire,  
 S. A. Baeppler,  D. Barton,  Z. Benda,  Y. A. Bernard,  E. J. Berquist,  
 K. B. Bravaya,  H. Burton,  D. Casanova,  Chun-Min Chang,  Yunqing Chen,  
 A. Chien,  K. D. Closser,  M. P. Coons,  S. Coriani,  S. Dasgupta,  
 A. L. Dempwolff,  M. Diedenhofen,  Hainam Do,  R. G. Edgar,  Po-Tung Fang,  
 S. Faraji,  S. Fatehi,  Qingguo Feng,  K. D. Fenk,  J. Fosso-Tande,  
 J. Gayvert,  Qinghui Ge,  A. Ghysels,  G. Gidofalvi,  J. Gomes,  
 J. Gonthier,  A. Gunina,  D. Hait,  M. W. D. Hanson-Heine,  
 P. H. P. Harbach,  A. W. Hauser,  M. F. Herbst,  J. E. Herr,  
 E. G. Hohenstein,  Z. C. Holden,  Kerwin Hui,  B. C. Huynh,  T.-C. Jagau,  
 Hyunjun Ji,  B. Kaduk,  K. Khistyaev,  Jaehoon Kim,  P. Klunzinger,  K. Koh,  
 D. Kosenkov,  L. Koulias,  T. Kowalczyk,  C. M. Krauter,  A. Kunitsa,  
 Ka Un Lao,  A. Laurent,  K. V. Lawler,  Joonho Lee,  D. Lefrancois,  
 S. Lehtola,  D. S. Levine,  Yi-Pei Li,  You-Sheng Lin,  Fenglai Liu,  
 E. Livshits,  A. Luenser,  P. Manohar,  E. Mansoor,  S. F. Manzer,  
 Shan-Ping Mao,  Yuezhi Mao,  N. Mardirossian,  A. V. Marenich,  
 T. Markovich,  L. A. Martinez-Martinez,  S. A. Maurer,  N. J. Mayhall,  
 S. C. McKenzie,  J.-M. Mewes,  P. Morgante,  A. F. Morrison,  
 J. W. Mullinax,  K. Nanda,  T. S. Nguyen-Beck,  R. Olivares-Amaya,  
 J. A. Parkhill,  Zheng Pei,  T. M. Perrine,  F. Plasser,  P. Pokhilko,  
 S. Prager,  A. Prociuk,  E. Ramos,  D. R. Rehn,  F. Rob,  M. Scheurer,  
 M. Schneider,  N. Sergueev,  S. M. Sharada,  S. Sharma,  D. W. Small,  
 T. Stauch,  T. Stein,  Yu-Chuan Su,  A. J. W. Thom,  A. Tkatchenko,  
 T. Tsuchimochi,  N. M. Tubman,  L. Vogt,  M. L. Vidal,  O. Vydrov,  
 M. A. Watson,  J. Wenzel,  M. de Wergifosse,  T. A. Wesolowski,  A. White,  
 J. Witte,  A. Yamada,  Jun Yang,  K. Yao,  S. Yeganeh,  S. R. Yost,  
 Zhi-Qiang You,  A. Zech,  Igor Ying Zhang,  Xing Zhang,  Yan Zhao,  
 Ying Zhu,  B. R. Brooks,  G. K. L. Chan,  C. J. Cramer,  M. S. Gordon,  
 W. J. Hehre,  A. Klamt,  M. W. Schmidt,  C. D. Sherrill,  D. G. Truhlar,  
 A. Aspuru-Guzik,  R. Baer,  A. T. Bell,  N. A. Besley,  Jeng-Da Chai,  
 A. E. DePrince, III,  R. A. DiStasio Jr.,  A. Dreuw,  B. D. Dunietz,  
 T. R. Furlani,  Chao-Ping Hsu,  Yousung Jung,  Jing Kong,  D. S. Lambrecht,  
 WanZhen Liang,  C. Ochsenfeld,  V. A. Rassolov,  L. V. Slipchenko,  
 J. E. Subotnik,  T. Van Voorhis,  J. M. Herbert,  A. I. Krylov,  
 P. M. W. Gill,  M. Head-Gordon

 Contributors to earlier versions of Q-Chem not listed above: 
 R. D. Adamson,  B. Austin,  J. Baker,  G. J. O. Beran,  K. Brandhorst,  
 S. T. Brown,  E. F. C. Byrd,  A. K. Chakraborty,  C.-L. Cheng,  
 Siu Hung Chien,  D. M. Chipman,  D. L. Crittenden,  H. Dachsel,  
 R. J. Doerksen,  A. D. Dutoi,  L. Fusti-Molnar,  W. A. Goddard III,  
 A. Golubeva-Zadorozhnaya,  S. R. Gwaltney,  G. Hawkins,  A. Heyden,  
 S. Hirata,  G. Kedziora,  F. J. Keil,  C. Kelley,  Jihan Kim,  R. A. King,  
 R. Z. Khaliullin,  P. P. Korambath,  W. Kurlancheek,  A. M. Lee,  M. S. Lee,  
 S. V. Levchenko,  Ching Yeh Lin,  D. Liotard,  R. C. Lochan,  I. Lotan,  
 P. E. Maslen,  N. Nair,  D. P. O'Neill,  D. Neuhauser,  E. Neuscamman,  
 C. M. Oana,  R. Olson,  B. Peters,  R. Peverati,  P. A. Pieniazek,  
 Y. M. Rhee,  J. Ritchie,  M. A. Rohrdanz,  E. Rosta,  N. J. Russ,  
 H. F. Schaefer III,  N. E. Schultz,  N. Shenvi,  A. C. Simmonett,  A. Sodt,  
 D. Stuck,  K. S. Thanthiriwatte,  V. Vanovschi,  Tao Wang,  A. Warshel,  
 C. F. Williams,  Q. Wu,  X. Xu,  W. Zhang

 Please cite Q-Chem as follows:
 Y. Shao et al., Mol. Phys. 113, 184-215 (2015)
 DOI: 10.1080/00268976.2014.952696

 Q-Chem 5.2.1 for Intel X86 EM64T Linux

 Parts of Q-Chem use Armadillo 8.300.2 (Tropical Shenanigans).
 http://arma.sourceforge.net/

 Q-Chem begins on Mon May 10 09:09:10 2021  

compute-0-1.local
Host: 0

     Scratch files written to /home/meili/scratch/qchem42416//
NAlpha2: 80
NElect   80
Mult     1

 Q-Chem warning in module libgen/rem_setup.C, line 2813:

 Neither GIA nor STOLL is specified by user. Use STOLL as the default


Checking the input file for inconsistencies... 	...done.

--------------------------------------------------------------
User input:
--------------------------------------------------------------
$comment
1vex_ff99sbtip3p_nvt_e8_100ns_m6609_001GLY_002SER_040CYX_041ASN.pdb
$end

$molecule
0 1
--
0 1
C    18.9570000000   34.8760000000   21.1450000000
H    19.3700000000   35.8840000000   20.9110000000
C    17.6110000000   34.9960000000   20.5190000000
O    16.6210000000   35.1440000000   21.1830000000
N    17.5900000000   34.8070000000   19.1990000000
H    18.4600000000   34.6920000000   18.7180000000
C    16.4200000000   35.0180000000   18.3770000000
H    15.6470000000   35.2520000000   19.0240000000
H    19.5360000000   34.0960000000   20.6960000000
H    18.9490000000   34.6220000000   22.1840000000
H    16.5880000000   35.8240000000   17.6940000000
H    16.1910000000   34.1480000000   17.7970000000
--
0 1
C    18.5940000000   29.9310000000   20.5740000000
H    18.5290000000   30.2170000000   19.5190000000
C    17.6560000000   30.8680000000   21.3670000000
O    18.1360000000   31.6230000000   22.1910000000
N    16.3500000000   30.9130000000   21.0840000000
H    16.0530000000   30.2690000000   20.4160000000
C    15.2720000000   31.7620000000   21.6380000000
H    15.7110000000   32.6800000000   21.9810000000
H    19.6000000000   30.0420000000   20.9210000000
H    18.3060000000   28.9090000000   20.7060000000
H    14.7990000000   31.2590000000   22.4550000000
H    14.5360000000   31.9620000000   20.8870000000
$end

$rem
JOBTYPE			EDA
EDA2			1
method			wB97X-V
BASIS			def2-TZVPD
XC_GRID			000099000590
NL_GRID			1
UNRESTRICTED		FALSE
MAX_SCF_CYCLES		200
SYMMETRY		FALSE
SYM_IGNORE		TRUE
MEM_STATIC		2000
BASIS_LIN_DEP_THRESH 	6
THRESH 			14
SCF_CONVERGENCE 	8
SCF_PRINT_FRGM 		TRUE
$end
--------------------------------------------------------------
 ----------------------------------------------------------------
             Standard Nuclear Orientation (Angstroms)
    I     Atom           X                Y                Z
 ----------------------------------------------------------------
    1      C      18.9570000000    34.8760000000    21.1450000000
    2      H      19.3700000000    35.8840000000    20.9110000000
    3      C      17.6110000000    34.9960000000    20.5190000000
    4      O      16.6210000000    35.1440000000    21.1830000000
    5      N      17.5900000000    34.8070000000    19.1990000000
    6      H      18.4600000000    34.6920000000    18.7180000000
    7      C      16.4200000000    35.0180000000    18.3770000000
    8      H      15.6470000000    35.2520000000    19.0240000000
    9      H      19.5360000000    34.0960000000    20.6960000000
   10      H      18.9490000000    34.6220000000    22.1840000000
   11      H      16.5880000000    35.8240000000    17.6940000000
   12      H      16.1910000000    34.1480000000    17.7970000000
   13      C      18.5940000000    29.9310000000    20.5740000000
   14      H      18.5290000000    30.2170000000    19.5190000000
   15      C      17.6560000000    30.8680000000    21.3670000000
   16      O      18.1360000000    31.6230000000    22.1910000000
   17      N      16.3500000000    30.9130000000    21.0840000000
   18      H      16.0530000000    30.2690000000    20.4160000000
   19      C      15.2720000000    31.7620000000    21.6380000000
   20      H      15.7110000000    32.6800000000    21.9810000000
   21      H      19.6000000000    30.0420000000    20.9210000000
   22      H      18.3060000000    28.9090000000    20.7060000000
   23      H      14.7990000000    31.2590000000    22.4550000000
   24      H      14.5360000000    31.9620000000    20.8870000000
 ----------------------------------------------------------------
 Nuclear Repulsion Energy =         545.42363474 hartrees
 There are       40 alpha and       40 beta electrons
 Requested basis set is def2-TZVPD
 There are 202 shells and 502 basis functions

 Total QAlloc Memory Limit   2000 MB
 Mega-Array Size      1956 MB
 MEM_STATIC part      2000 MB
 A cutoff of  1.0D-14 yielded  18325 shell pairs
 There are    113977 function pairs (    142167 Cartesian)
 Smallest overlap matrix eigenvalue = 5.58E-06

 Scale SEOQF with 1.000000e-03/1.000000e-03/1.000000e-03

 Standard Electronic Orientation quadrupole field applied
 Nucleus-field energy     =     0.0000000342 hartrees

 -----------------------------------------------------------------------
  General SCF calculation program by
  Eric Jon Sundstrom, Paul Horn, Yuezhi Mao, Dmitri Zuev, Alec White,
  David Stuck, Shaama M.S., Shane Yost, Joonho Lee, David Small,
  Daniel Levine, Susi Lehtola, Hugh Burton, Evgeny Epifanovsky,
  Bang C. Huynh
 -----------------------------------------------------------------------
================================================================
                 ALMO-EDA with the EDA2 driver                  
================================================================
 The second-generation ALMO-EDA (for DFT):                      
 P. R. Horn, Y. Mao and M. Head-Gordon, PCCP, 18, 23067 (2016)  
 Decomposition of the frozen energy:                            
 P. R. Horn, Y. Mao and M. Head-Gordon, JCP, 144, 114107 (2016) 
 FERF model for polarization:                                   
 P. R. Horn and M. Head-Gordon, JCP, 143, 114111 (2015)         
Using eda2 option set 1
Option set summary: Frozen orbital wavefunction, initial wavefunction decomposition, and nDQ polarization.
--------------------------------
Printing EDA Options
--------------------------------
eda_child_super_basis      0
fragmo_guess_mode          0
child_mp                   1
child_mp_orders            232
cls_elec                   1
cls_disp                   0
scfmi_mode                 1
scfmi_occs                 0
scfmi_virts                0
frz_relax                  0
frz_relax_method           0
dc_pen_start               0
dc_pen_conv                0
dc_pen_increment           0
dc_pen_steps               0
dc_pen_thresh_factor       0
dc_pen_pre_newton_thresh   0
frz_ortho_decomp           1
frz_ortho_decomp_conv      6
frgm_method                2
scfmi_freeze_ss            0
separate_rehyb             0
plot_diff_den              0
eda_nocv                   0
eda_vct_relax              1
disp_free_x                0
disp_free_c                0
eda_bsse                   0
eda_pct_a                  0
eda_covp                   0
--------------------------------
Attempting to make child job directory: /home/meili/scratch/qchem42416//Frg1/
Attempting to make child job directory: /home/meili/scratch/qchem42416//Frg2/
Creating input file /home/meili/scratch/qchem42416/Frg1.input
using default PutDataFrgm: nothing
calling putenv with: QCSCRATCH=/home/meili/scratch/qchem42416/ 
Spawning Job For Fragment 0
                  Welcome to Q-Chem
     A Quantum Leap Into The Future Of Chemistry


 Q-Chem 5.2 (devel), Q-Chem, Inc., Pleasanton, CA (2019)

 Yihan Shao,  Zhengting Gan,  E. Epifanovsky,  A. T. B. Gilbert,  M. Wormit,  
 J. Kussmann,  A. W. Lange,  A. Behn,  Jia Deng,  Xintian Feng,  D. Ghosh,  
 M. Goldey,  P. R. Horn,  L. D. Jacobson,  I. Kaliman,  T. Kus,  A. Landau,  
 Jie Liu,  E. I. Proynov,  R. M. Richard,  R. P. Steele,  E. J. Sundstrom,  
 H. L. Woodcock III,  P. M. Zimmerman,  D. Zuev,  B. Albrecht,  E. Alguire,  
 S. A. Baeppler,  D. Barton,  Z. Benda,  Y. A. Bernard,  E. J. Berquist,  
 K. B. Bravaya,  H. Burton,  D. Casanova,  Chun-Min Chang,  Yunqing Chen,  
 A. Chien,  K. D. Closser,  M. P. Coons,  S. Coriani,  S. Dasgupta,  
 A. L. Dempwolff,  M. Diedenhofen,  Hainam Do,  R. G. Edgar,  Po-Tung Fang,  
 S. Faraji,  S. Fatehi,  Qingguo Feng,  K. D. Fenk,  J. Fosso-Tande,  
 J. Gayvert,  Qinghui Ge,  A. Ghysels,  G. Gidofalvi,  J. Gomes,  
 J. Gonthier,  A. Gunina,  D. Hait,  M. W. D. Hanson-Heine,  
 P. H. P. Harbach,  A. W. Hauser,  M. F. Herbst,  J. E. Herr,  
 E. G. Hohenstein,  Z. C. Holden,  Kerwin Hui,  B. C. Huynh,  T.-C. Jagau,  
 Hyunjun Ji,  B. Kaduk,  K. Khistyaev,  Jaehoon Kim,  P. Klunzinger,  K. Koh,  
 D. Kosenkov,  L. Koulias,  T. Kowalczyk,  C. M. Krauter,  A. Kunitsa,  
 Ka Un Lao,  A. Laurent,  K. V. Lawler,  Joonho Lee,  D. Lefrancois,  
 S. Lehtola,  D. S. Levine,  Yi-Pei Li,  You-Sheng Lin,  Fenglai Liu,  
 E. Livshits,  A. Luenser,  P. Manohar,  E. Mansoor,  S. F. Manzer,  
 Shan-Ping Mao,  Yuezhi Mao,  N. Mardirossian,  A. V. Marenich,  
 T. Markovich,  L. A. Martinez-Martinez,  S. A. Maurer,  N. J. Mayhall,  
 S. C. McKenzie,  J.-M. Mewes,  P. Morgante,  A. F. Morrison,  
 J. W. Mullinax,  K. Nanda,  T. S. Nguyen-Beck,  R. Olivares-Amaya,  
 J. A. Parkhill,  Zheng Pei,  T. M. Perrine,  F. Plasser,  P. Pokhilko,  
 S. Prager,  A. Prociuk,  E. Ramos,  D. R. Rehn,  F. Rob,  M. Scheurer,  
 M. Schneider,  N. Sergueev,  S. M. Sharada,  S. Sharma,  D. W. Small,  
 T. Stauch,  T. Stein,  Yu-Chuan Su,  A. J. W. Thom,  A. Tkatchenko,  
 T. Tsuchimochi,  N. M. Tubman,  L. Vogt,  M. L. Vidal,  O. Vydrov,  
 M. A. Watson,  J. Wenzel,  M. de Wergifosse,  T. A. Wesolowski,  A. White,  
 J. Witte,  A. Yamada,  Jun Yang,  K. Yao,  S. Yeganeh,  S. R. Yost,  
 Zhi-Qiang You,  A. Zech,  Igor Ying Zhang,  Xing Zhang,  Yan Zhao,  
 Ying Zhu,  B. R. Brooks,  G. K. L. Chan,  C. J. Cramer,  M. S. Gordon,  
 W. J. Hehre,  A. Klamt,  M. W. Schmidt,  C. D. Sherrill,  D. G. Truhlar,  
 A. Aspuru-Guzik,  R. Baer,  A. T. Bell,  N. A. Besley,  Jeng-Da Chai,  
 A. E. DePrince, III,  R. A. DiStasio Jr.,  A. Dreuw,  B. D. Dunietz,  
 T. R. Furlani,  Chao-Ping Hsu,  Yousung Jung,  Jing Kong,  D. S. Lambrecht,  
 WanZhen Liang,  C. Ochsenfeld,  V. A. Rassolov,  L. V. Slipchenko,  
 J. E. Subotnik,  T. Van Voorhis,  J. M. Herbert,  A. I. Krylov,  
 P. M. W. Gill,  M. Head-Gordon

 Contributors to earlier versions of Q-Chem not listed above: 
 R. D. Adamson,  B. Austin,  J. Baker,  G. J. O. Beran,  K. Brandhorst,  
 S. T. Brown,  E. F. C. Byrd,  A. K. Chakraborty,  C.-L. Cheng,  
 Siu Hung Chien,  D. M. Chipman,  D. L. Crittenden,  H. Dachsel,  
 R. J. Doerksen,  A. D. Dutoi,  L. Fusti-Molnar,  W. A. Goddard III,  
 A. Golubeva-Zadorozhnaya,  S. R. Gwaltney,  G. Hawkins,  A. Heyden,  
 S. Hirata,  G. Kedziora,  F. J. Keil,  C. Kelley,  Jihan Kim,  R. A. King,  
 R. Z. Khaliullin,  P. P. Korambath,  W. Kurlancheek,  A. M. Lee,  M. S. Lee,  
 S. V. Levchenko,  Ching Yeh Lin,  D. Liotard,  R. C. Lochan,  I. Lotan,  
 P. E. Maslen,  N. Nair,  D. P. O'Neill,  D. Neuhauser,  E. Neuscamman,  
 C. M. Oana,  R. Olson,  B. Peters,  R. Peverati,  P. A. Pieniazek,  
 Y. M. Rhee,  J. Ritchie,  M. A. Rohrdanz,  E. Rosta,  N. J. Russ,  
 H. F. Schaefer III,  N. E. Schultz,  N. Shenvi,  A. C. Simmonett,  A. Sodt,  
 D. Stuck,  K. S. Thanthiriwatte,  V. Vanovschi,  Tao Wang,  A. Warshel,  
 C. F. Williams,  Q. Wu,  X. Xu,  W. Zhang

 Please cite Q-Chem as follows:
 Y. Shao et al., Mol. Phys. 113, 184-215 (2015)
 DOI: 10.1080/00268976.2014.952696

 Q-Chem 5.2.1 for Intel X86 EM64T Linux

 Parts of Q-Chem use Armadillo 8.300.2 (Tropical Shenanigans).
 http://arma.sourceforge.net/

 Q-Chem begins on Mon May 10 09:10:28 2021  

compute-0-1.local
Host: 0

     Scratch files written to /home/meili/scratch/qchem42416//Frg1//
NAlpha2: 40
NElect   40
Mult     1

Checking the input file for inconsistencies... 	...done.

--------------------------------------------------------------
User input:
--------------------------------------------------------------
$molecule
0 1
 6	18.9570000000	34.8760000000	21.1450000000
 1	19.3700000000	35.8840000000	20.9110000000
 6	17.6110000000	34.9960000000	20.5190000000
 8	16.6210000000	35.1440000000	21.1830000000
 7	17.5900000000	34.8070000000	19.1990000000
 1	18.4600000000	34.6920000000	18.7180000000
 6	16.4200000000	35.0180000000	18.3770000000
 1	15.6470000000	35.2520000000	19.0240000000
 1	19.5360000000	34.0960000000	20.6960000000
 1	18.9490000000	34.6220000000	22.1840000000
 1	16.5880000000	35.8240000000	17.6940000000
 1	16.1910000000	34.1480000000	17.7970000000
$end
$rem
EDA2		1
METHOD		WB97X-V
BASIS		DEF2-TZVPD
XC_GRID		000099000590
NL_GRID		1
UNRESTRICTED		FALSE
MAX_SCF_CYCLES		200
SYMMETRY		FALSE
SYM_IGNORE		TRUE
BASIS_LIN_DEP_THRESH		6
THRESH		14
SCF_CONVERGENCE		8
SCF_PRINT_FRGM		TRUE
!required keywords
JOBTYPE		SP
SYM_IGNORE		TRUE
SUBSYSTEM		TRUE
GEN_SCFMAN		TRUE
CHILD_INSTRUCTION		2
SYM_IGNORE		TRUE
SCFMI		0
RI_K 0		
PARI_K 0		
MIN_PARI_K 0		
IARI_K 0		
OCC_RI_K 0		
PURECART		1111
MEM_STATIC		2000
MEM_TOTAL		2000
GUI		0
CHILD_MP		1
CHILD_MP_ORDERS		232
FRZ_RELAX		0
FRZ_RELAX_METHOD		0
EDA_CLS_ELEC		1
EDA_CLS_DISP		0
FRZ_ORTHO_DECOMP		1
EDA2		FALSE
FRGM_METHOD		FALSE
CIS_N_ROOTS  0
LOCAL_CIS    0
CIS_RLX_DNS  1
$end
--------------------------------------------------------------
 ----------------------------------------------------------------
             Standard Nuclear Orientation (Angstroms)
    I     Atom           X                Y                Z
 ----------------------------------------------------------------
    1      C      18.9570000000    34.8760000000    21.1450000000
    2      H      19.3700000000    35.8840000000    20.9110000000
    3      C      17.6110000000    34.9960000000    20.5190000000
    4      O      16.6210000000    35.1440000000    21.1830000000
    5      N      17.5900000000    34.8070000000    19.1990000000
    6      H      18.4600000000    34.6920000000    18.7180000000
    7      C      16.4200000000    35.0180000000    18.3770000000
    8      H      15.6470000000    35.2520000000    19.0240000000
    9      H      19.5360000000    34.0960000000    20.6960000000
   10      H      18.9490000000    34.6220000000    22.1840000000
   11      H      16.5880000000    35.8240000000    17.6940000000
   12      H      16.1910000000    34.1480000000    17.7970000000
 ----------------------------------------------------------------
 Nuclear Repulsion Energy =         182.88724698 hartrees
 There are       20 alpha and       20 beta electrons
 Requested basis set is def2-TZVPD
 There are 101 shells and 251 basis functions

 Total QAlloc Memory Limit   2000 MB
 Mega-Array Size      1956 MB
 MEM_STATIC part      2000 MB

                       Distance Matrix (Angstroms)
             C (  1)   H (  2)   C (  3)   O (  4)   N (  5)   H (  6)
   H (  2)  1.114176
   C (  3)  1.489292  2.009052
   O (  4)  2.351630  2.859823  1.201208
   N (  5)  2.379152  2.694304  1.333627  2.233559
   H (  6)  2.484189  2.656730  2.014154  3.108448  1.000743
   C (  7)  3.757440  3.984170  2.450945  2.816010  1.445374  2.093838
   H (  8)  3.949192  4.221483  2.481503  2.370996  2.000975  2.884477
   H (  9)  1.070160  1.808515  2.132359  3.135713  2.556061  2.329265
   H ( 10)  1.069627  1.841308  2.168489  2.587290  3.285016  3.501025
   H ( 11)  4.291884  4.253494  3.116527  3.554801  2.074444  2.415447
   H ( 12)  4.403390  4.776686  3.185088  3.555547  2.087363  2.508493
             C (  7)   H (  8)   H (  9)   H ( 10)   H ( 11)
   H (  8)  1.034840
   H (  9)  3.992155  4.388193
   H ( 10)  4.587582  4.613643  1.683861
   H ( 11)  1.069742  1.726721  4.548482  5.213370
   H ( 12)  1.070393  1.737896  4.426729  5.203557  1.725455

 A cutoff of  1.0D-14 yielded   5037 shell pairs
 There are     31671 function pairs (     39830 Cartesian)
 Smallest overlap matrix eigenvalue = 6.99E-06

 Scale SEOQF with 1.000000e-03/1.000000e-03/1.000000e-03

 Standard Electronic Orientation quadrupole field applied
 Nucleus-field energy     =     0.0000000221 hartrees
 Guess from superposition of atomic densities
 Warning:  Energy on first SCF cycle will be non-variational
 SAD guess density has 40.000000 electrons

 -----------------------------------------------------------------------
  General SCF calculation program by
  Eric Jon Sundstrom, Paul Horn, Yuezhi Mao, Dmitri Zuev, Alec White,
  David Stuck, Shaama M.S., Shane Yost, Joonho Lee, David Small,
  Daniel Levine, Susi Lehtola, Hugh Burton, Evgeny Epifanovsky,
  Bang C. Huynh
 -----------------------------------------------------------------------
 Exchange:     0.1670 Hartree-Fock + 1.0000 wB97X-V + LR-HF
 Correlation:  1.0000 wB97X-V
 Using Euler-Maclaurin-Lebedev (99,590) quadrature formula
 Nonlocal Correlation:  VV10 with C = 0.0100 and b = 6.00 and scale = 1.00000
 Grid used for NLC:  SG-1 standard quadrature
Energy prior to optimization (guess energy) = -248.420011681911
Begin Timing: Total SCF Calculation
begin iterations for algorithm: DIIS         
the SCF tolerance is set to 1.00e-08
    1    -248.4200116819      4.19e-03     00000 
    2    -248.3802400479      5.41e-03     00000 
    3    -248.5339684940      5.19e-04     00000 
    4    -248.5356003219      2.12e-04     00000 
    5    -248.5359054959      5.11e-05     00000 
    6    -248.5359284825      1.83e-05     00000 
    7    -248.5359326017      4.92e-06     00000 
    8    -248.5359331264      1.39e-06     00000 
    9    -248.5359331603      4.95e-07     00000 
   10    -248.5359331632      9.84e-08     00000 
   11    -248.5359331634      1.94e-08     00000 
   12    -248.5359331634      5.40e-09     00000 Convergence criterion met
Timing for Total SCF: 304.00s (wall), 1914.21s (cpu)
Multipole orders to be included
        2
        3
computing dipole RHS
computing quadrupole RHS
total number of RHS in solve_reponses: 8
RHS batch sizes
        8
Beginning Block Conjugate Gradient Iterations. Batch Number: 0
computing hessian-vector products by finite difference
              1      4.52e-01     00000 Conjugate Gradient Iteration
computing hessian-vector products by finite difference
              2      1.55e-01     00000 Conjugate Gradient Iteration
computing hessian-vector products by finite difference
              3      4.09e-02     00000 Conjugate Gradient Iteration
computing hessian-vector products by finite difference
              4      9.84e-03     00000 Conjugate Gradient Iteration
computing hessian-vector products by finite difference
              5      1.86e-03     00000 Conjugate Gradient Iteration
computing hessian-vector products by finite difference
              6      3.33e-04     00000 Conjugate Gradient Iteration
computing hessian-vector products by finite difference
              7      4.53e-05     00000 Conjugate Gradient Iteration
computing hessian-vector products by finite difference
              8      6.57e-06     00000 Conjugate Gradient Iteration
computing hessian-vector products by finite difference
              9      1.05e-06     00000 Conjugate Gradient Iteration
computing hessian-vector products by finite difference
             10      4.02e-07     00000 Conjugate Gradient Iteration
computing hessian-vector products by finite difference
             11      5.42e-08     00000 Conjugate Gradient Iteration
computing hessian-vector products by finite difference
             12      1.75e-08     00000 Conjugate Gradient Iteration
computing hessian-vector products by finite difference
             13      2.07e-09     00000 CG Converged
batch 0 complete
Done Calculating Responses
TESTING ORTHOGONALIZATION OF MULTIPOLE BASIS
Multipole virts passed orthogonality test
Virts Per Order
           60
          100

 --------------------------------------------------------------

                    Orbital Energies (a.u.)
 --------------------------------------------------------------

 Alpha MOs
 -- Occupied --
-19.1640 -14.4312 -10.3598 -10.2884 -10.2670  -1.1740  -1.0611  -0.8946
 -0.8233  -0.7090  -0.6265  -0.5902  -0.5794  -0.5462  -0.5206  -0.5042
 -0.4995  -0.4663  -0.3593  -0.3540
 -- Virtual --
  0.0543   0.0791   0.0956   0.1062   0.1093   0.1289   0.1328   0.1400
  0.1473   0.1642   0.1712   0.1828   0.1904   0.2029   0.2184   0.2284
  0.2367   0.2419   0.2542   0.2650   0.2726   0.2784   0.2930   0.3028
  0.3095   0.3172   0.3222   0.3338   0.3397   0.3507   0.3562   0.3632
  0.3668   0.3719   0.3875   0.3900   0.3974   0.4031   0.4113   0.4139
  0.4359   0.4490   0.4527   0.4656   0.4721   0.4787   0.4860   0.4892
  0.5007   0.5063   0.5146   0.5300   0.5337   0.5377   0.5412   0.5628
  0.5687   0.5888   0.6013   0.6094   0.6134   0.6362   0.6523   0.6639
  0.6800   0.6974   0.7081   0.7200   0.7440   0.7446   0.7558   0.7600
  0.7775   0.7954   0.8097   0.8133   0.8232   0.8295   0.8353   0.8551
  0.8744   0.8892   0.8952   0.9134   0.9366   0.9521   0.9795   1.0158
  1.0215   1.0442   1.0728   1.0893   1.1359   1.1564   1.1745   1.2099
  1.2327   1.2567   1.2632   1.2845   1.2988   1.3568   1.3724   1.3822
  1.4181   1.4659   1.5059   1.5427   1.6205   1.7066   1.7397   1.7439
  1.7813   1.8291   1.8428   1.8793   1.8804   1.9032   1.9165   1.9348
  1.9467   1.9600   1.9892   2.0103   2.0402   2.0763   2.1000   2.1356
  2.1597   2.2186   2.2270   2.2388   2.3205   2.3350   2.3555   2.3904
  2.4051   2.4818   2.4906   2.4989   2.5237   2.5565   2.5865   2.6086
  2.6400   2.6618   2.6662   2.7374   2.7559   2.7929   2.8146   2.8527
  2.8688   2.8939   2.9504   2.9673   2.9868   3.0221   3.0668   3.1381
  3.1804   3.2006   3.2329   3.2475   3.2721   3.3005   3.3159   3.3444
  3.3561   3.3788   3.4045   3.4376   3.4636   3.5025   3.5220   3.5779
  3.6037   3.6085   3.6284   3.6521   3.6644   3.7126   3.7147   3.7913
  3.8184   3.9452   3.9861   4.0050   4.0509   4.0854   4.1475   4.2294
  4.3424   4.3916   4.4169   4.4929   4.5383   4.6568   4.6950   4.7641
  4.7961   4.8566   4.9455   4.9964   5.0173   5.2111   5.2332   5.2699
  5.3382   5.4300   5.5028   5.5343   5.5958   5.6929   5.7305   5.8708
  6.0248   6.1503   6.3653   6.6205   6.6813   6.8213   6.9461   7.0283
  7.3021   7.3822  22.6636  22.7946  23.7197  32.7055  44.3861
 --------------------------------------------------------------

          Ground-State Mulliken Net Atomic Charges

     Atom                 Charge (a.u.)
  ----------------------------------------
      1 C                    -0.741230
      2 H                     0.170337
      3 C                     0.551901
      4 O                    -0.526749
      5 N                    -0.086328
      6 H                     0.181712
      7 C                    -0.778176
      8 H                     0.328446
      9 H                     0.237404
     10 H                     0.203408
     11 H                     0.245301
     12 H                     0.213973
  ----------------------------------------
  Sum of atomic charges =     0.000000

 -----------------------------------------------------------------
                    Cartesian Multipole Moments
 -----------------------------------------------------------------
    Charge (ESU x 10^10)
                 0.0000
    Dipole Moment (Debye)
         X       2.5850      Y      -0.3826      Z      -2.9710
       Tot       3.9567
    Quadrupole Moments (Debye-Ang)
        XX      59.6513     XY      83.6099     YY     -57.8037
        XZ       3.2853     YZ    -112.3276     ZZ    -149.5788
    Octopole Moments (Debye-Ang^2)
       XXX     758.6959    XXY    1964.4839    XYY    2144.6464
       YYY   -4659.6814    XXZ     403.0047    XYZ     -34.2710
       YYZ   -4844.7319    XZZ   -1435.0949    YZZ   -5417.3343
       ZZZ   -5418.9779
    Hexadecapole Moments (Debye-Ang^3)
      XXXX   -1323.6261   XXXY   24342.1786   XXYY   54945.7969
      XYYY   28825.2893   YYYY -293161.3164   XXXZ    2194.8920
      XXYZ   11430.6198   XYYZ  -17285.9256   YYYZ -223203.1840
      XXZZ  -17054.4404   XYZZ  -53476.1438   YYZZ -208480.1101
      XZZZ  -69586.2083   YZZZ -193643.9883   ZZZZ -169905.3746
 -----------------------------------------------------------------
Archival summary:
1\1\compute-0-1.local\SP\ProcedureUnspecified\BasisUnspecified\1137\meili\MonMay1010:49:352021MonMay1010:49:352021\0\\#,ProcedureUnspecified,BasisUnspecified,\\0,1\C\O,1,1.20121\N,1,1.33363,2,123.478\H,3,1.00074,1,118.576,2,179.981,0\C,3,1.44537,1,123.708,2,12.7032,0\H,5,1.03484,3,106.386,1,-4.4664,0\H,5,1.06974,3,110.241,1,115.068,0\H,5,1.07039,3,111.265,1,-125.811,0\C,1,1.48929,2,121.497,3,-173.791,0\H,9,1.06963,1,114.877,2,18.4867,0\H,9,1.07016,1,111.799,2,136.431,0\H,9,1.11418,1,100.011,2,-105.14,0\\\@

 Total job time:  5946.92s(wall), 37511.81s(cpu) 
 Mon May 10 10:49:35 2021

        *************************************************************
        *                                                           *
        *  Thank you very much for using Q-Chem.  Have a nice day.  *
        *                                                           *
        *************************************************************


Done Job For Fragment 0
calling putenv with: QCSCRATCH=/home/meili/scratch 
calling putenv with: QCTHREADS=8 
Creating input file /home/meili/scratch/qchem42416/Frg2.input
using default PutDataFrgm: nothing
calling putenv with: QCSCRATCH=/home/meili/scratch/qchem42416/ 
Spawning Job For Fragment 1
                  Welcome to Q-Chem
     A Quantum Leap Into The Future Of Chemistry


 Q-Chem 5.2 (devel), Q-Chem, Inc., Pleasanton, CA (2019)

 Yihan Shao,  Zhengting Gan,  E. Epifanovsky,  A. T. B. Gilbert,  M. Wormit,  
 J. Kussmann,  A. W. Lange,  A. Behn,  Jia Deng,  Xintian Feng,  D. Ghosh,  
 M. Goldey,  P. R. Horn,  L. D. Jacobson,  I. Kaliman,  T. Kus,  A. Landau,  
 Jie Liu,  E. I. Proynov,  R. M. Richard,  R. P. Steele,  E. J. Sundstrom,  
 H. L. Woodcock III,  P. M. Zimmerman,  D. Zuev,  B. Albrecht,  E. Alguire,  
 S. A. Baeppler,  D. Barton,  Z. Benda,  Y. A. Bernard,  E. J. Berquist,  
 K. B. Bravaya,  H. Burton,  D. Casanova,  Chun-Min Chang,  Yunqing Chen,  
 A. Chien,  K. D. Closser,  M. P. Coons,  S. Coriani,  S. Dasgupta,  
 A. L. Dempwolff,  M. Diedenhofen,  Hainam Do,  R. G. Edgar,  Po-Tung Fang,  
 S. Faraji,  S. Fatehi,  Qingguo Feng,  K. D. Fenk,  J. Fosso-Tande,  
 J. Gayvert,  Qinghui Ge,  A. Ghysels,  G. Gidofalvi,  J. Gomes,  
 J. Gonthier,  A. Gunina,  D. Hait,  M. W. D. Hanson-Heine,  
 P. H. P. Harbach,  A. W. Hauser,  M. F. Herbst,  J. E. Herr,  
 E. G. Hohenstein,  Z. C. Holden,  Kerwin Hui,  B. C. Huynh,  T.-C. Jagau,  
 Hyunjun Ji,  B. Kaduk,  K. Khistyaev,  Jaehoon Kim,  P. Klunzinger,  K. Koh,  
 D. Kosenkov,  L. Koulias,  T. Kowalczyk,  C. M. Krauter,  A. Kunitsa,  
 Ka Un Lao,  A. Laurent,  K. V. Lawler,  Joonho Lee,  D. Lefrancois,  
 S. Lehtola,  D. S. Levine,  Yi-Pei Li,  You-Sheng Lin,  Fenglai Liu,  
 E. Livshits,  A. Luenser,  P. Manohar,  E. Mansoor,  S. F. Manzer,  
 Shan-Ping Mao,  Yuezhi Mao,  N. Mardirossian,  A. V. Marenich,  
 T. Markovich,  L. A. Martinez-Martinez,  S. A. Maurer,  N. J. Mayhall,  
 S. C. McKenzie,  J.-M. Mewes,  P. Morgante,  A. F. Morrison,  
 J. W. Mullinax,  K. Nanda,  T. S. Nguyen-Beck,  R. Olivares-Amaya,  
 J. A. Parkhill,  Zheng Pei,  T. M. Perrine,  F. Plasser,  P. Pokhilko,  
 S. Prager,  A. Prociuk,  E. Ramos,  D. R. Rehn,  F. Rob,  M. Scheurer,  
 M. Schneider,  N. Sergueev,  S. M. Sharada,  S. Sharma,  D. W. Small,  
 T. Stauch,  T. Stein,  Yu-Chuan Su,  A. J. W. Thom,  A. Tkatchenko,  
 T. Tsuchimochi,  N. M. Tubman,  L. Vogt,  M. L. Vidal,  O. Vydrov,  
 M. A. Watson,  J. Wenzel,  M. de Wergifosse,  T. A. Wesolowski,  A. White,  
 J. Witte,  A. Yamada,  Jun Yang,  K. Yao,  S. Yeganeh,  S. R. Yost,  
 Zhi-Qiang You,  A. Zech,  Igor Ying Zhang,  Xing Zhang,  Yan Zhao,  
 Ying Zhu,  B. R. Brooks,  G. K. L. Chan,  C. J. Cramer,  M. S. Gordon,  
 W. J. Hehre,  A. Klamt,  M. W. Schmidt,  C. D. Sherrill,  D. G. Truhlar,  
 A. Aspuru-Guzik,  R. Baer,  A. T. Bell,  N. A. Besley,  Jeng-Da Chai,  
 A. E. DePrince, III,  R. A. DiStasio Jr.,  A. Dreuw,  B. D. Dunietz,  
 T. R. Furlani,  Chao-Ping Hsu,  Yousung Jung,  Jing Kong,  D. S. Lambrecht,  
 WanZhen Liang,  C. Ochsenfeld,  V. A. Rassolov,  L. V. Slipchenko,  
 J. E. Subotnik,  T. Van Voorhis,  J. M. Herbert,  A. I. Krylov,  
 P. M. W. Gill,  M. Head-Gordon

 Contributors to earlier versions of Q-Chem not listed above: 
 R. D. Adamson,  B. Austin,  J. Baker,  G. J. O. Beran,  K. Brandhorst,  
 S. T. Brown,  E. F. C. Byrd,  A. K. Chakraborty,  C.-L. Cheng,  
 Siu Hung Chien,  D. M. Chipman,  D. L. Crittenden,  H. Dachsel,  
 R. J. Doerksen,  A. D. Dutoi,  L. Fusti-Molnar,  W. A. Goddard III,  
 A. Golubeva-Zadorozhnaya,  S. R. Gwaltney,  G. Hawkins,  A. Heyden,  
 S. Hirata,  G. Kedziora,  F. J. Keil,  C. Kelley,  Jihan Kim,  R. A. King,  
 R. Z. Khaliullin,  P. P. Korambath,  W. Kurlancheek,  A. M. Lee,  M. S. Lee,  
 S. V. Levchenko,  Ching Yeh Lin,  D. Liotard,  R. C. Lochan,  I. Lotan,  
 P. E. Maslen,  N. Nair,  D. P. O'Neill,  D. Neuhauser,  E. Neuscamman,  
 C. M. Oana,  R. Olson,  B. Peters,  R. Peverati,  P. A. Pieniazek,  
 Y. M. Rhee,  J. Ritchie,  M. A. Rohrdanz,  E. Rosta,  N. J. Russ,  
 H. F. Schaefer III,  N. E. Schultz,  N. Shenvi,  A. C. Simmonett,  A. Sodt,  
 D. Stuck,  K. S. Thanthiriwatte,  V. Vanovschi,  Tao Wang,  A. Warshel,  
 C. F. Williams,  Q. Wu,  X. Xu,  W. Zhang

 Please cite Q-Chem as follows:
 Y. Shao et al., Mol. Phys. 113, 184-215 (2015)
 DOI: 10.1080/00268976.2014.952696

 Q-Chem 5.2.1 for Intel X86 EM64T Linux

 Parts of Q-Chem use Armadillo 8.300.2 (Tropical Shenanigans).
 http://arma.sourceforge.net/

 Q-Chem begins on Mon May 10 10:49:35 2021  

compute-0-1.local
Host: 0

     Scratch files written to /home/meili/scratch/qchem42416//Frg2//
NAlpha2: 40
NElect   40
Mult     1

Checking the input file for inconsistencies... 	...done.

--------------------------------------------------------------
User input:
--------------------------------------------------------------
$molecule
0 1
 6	18.5940000000	29.9310000000	20.5740000000
 1	18.5290000000	30.2170000000	19.5190000000
 6	17.6560000000	30.8680000000	21.3670000000
 8	18.1360000000	31.6230000000	22.1910000000
 7	16.3500000000	30.9130000000	21.0840000000
 1	16.0530000000	30.2690000000	20.4160000000
 6	15.2720000000	31.7620000000	21.6380000000
 1	15.7110000000	32.6800000000	21.9810000000
 1	19.6000000000	30.0420000000	20.9210000000
 1	18.3060000000	28.9090000000	20.7060000000
 1	14.7990000000	31.2590000000	22.4550000000
 1	14.5360000000	31.9620000000	20.8870000000
$end
$rem
EDA2		1
METHOD		WB97X-V
BASIS		DEF2-TZVPD
XC_GRID		000099000590
NL_GRID		1
UNRESTRICTED		FALSE
MAX_SCF_CYCLES		200
SYMMETRY		FALSE
SYM_IGNORE		TRUE
BASIS_LIN_DEP_THRESH		6
THRESH		14
SCF_CONVERGENCE		8
SCF_PRINT_FRGM		TRUE
!required keywords
JOBTYPE		SP
SYM_IGNORE		TRUE
SUBSYSTEM		TRUE
GEN_SCFMAN		TRUE
CHILD_INSTRUCTION		2
SYM_IGNORE		TRUE
SCFMI		0
RI_K 0		
PARI_K 0		
MIN_PARI_K 0		
IARI_K 0		
OCC_RI_K 0		
PURECART		1111
MEM_STATIC		2000
MEM_TOTAL		2000
GUI		0
CHILD_MP		1
CHILD_MP_ORDERS		232
FRZ_RELAX		0
FRZ_RELAX_METHOD		0
EDA_CLS_ELEC		1
EDA_CLS_DISP		0
FRZ_ORTHO_DECOMP		1
EDA2		FALSE
FRGM_METHOD		FALSE
CIS_N_ROOTS  0
LOCAL_CIS    0
CIS_RLX_DNS  1
$end
--------------------------------------------------------------
 ----------------------------------------------------------------
             Standard Nuclear Orientation (Angstroms)
    I     Atom           X                Y                Z
 ----------------------------------------------------------------
    1      C      18.5940000000    29.9310000000    20.5740000000
    2      H      18.5290000000    30.2170000000    19.5190000000
    3      C      17.6560000000    30.8680000000    21.3670000000
    4      O      18.1360000000    31.6230000000    22.1910000000
    5      N      16.3500000000    30.9130000000    21.0840000000
    6      H      16.0530000000    30.2690000000    20.4160000000
    7      C      15.2720000000    31.7620000000    21.6380000000
    8      H      15.7110000000    32.6800000000    21.9810000000
    9      H      19.6000000000    30.0420000000    20.9210000000
   10      H      18.3060000000    28.9090000000    20.7060000000
   11      H      14.7990000000    31.2590000000    22.4550000000
   12      H      14.5360000000    31.9620000000    20.8870000000
 ----------------------------------------------------------------
 Nuclear Repulsion Energy =         179.33957358 hartrees
 There are       20 alpha and       20 beta electrons
 Requested basis set is def2-TZVPD
 There are 101 shells and 251 basis functions

 Total QAlloc Memory Limit   2000 MB
 Mega-Array Size      1956 MB
 MEM_STATIC part      2000 MB

                       Distance Matrix (Angstroms)
             C (  1)   H (  2)   C (  3)   O (  4)   N (  5)   H (  6)
   H (  2)  1.095010
   C (  3)  1.544883  2.145002
   O (  4)  2.384810  3.044810  1.216306
   N (  5)  2.501991  2.771585  1.337068  2.217960
   H (  6)  2.568246  2.633987  1.957757  3.053331  0.974253
   C (  7)  3.939586  4.181535  2.560495  2.920210  1.479798  2.081416
   H (  8)  4.224729  4.479837  2.728253  2.653672  2.082119  2.894669
   H (  9)  1.069937  1.772927  2.158779  2.501151  3.368636  3.589953
   H ( 10)  1.069978  1.780326  2.167280  3.098374  2.825745  2.647586
   H ( 11)  4.438893  4.859914  3.082057  3.367159  2.098799  2.590393
   H ( 12)  4.548658  4.567329  3.340903  3.843870  2.104710  2.321504
             C (  7)   H (  8)   H (  9)   H ( 10)   H ( 11)
   H (  8)  1.073822
   H (  9)  4.712120  4.817361
   H ( 10)  4.267715  4.751851  1.733306
   H ( 11)  1.069685  1.753756  5.184963  4.569524
   H ( 12)  1.070372  1.758688  5.415870  4.854531  1.738391

 A cutoff of  1.0D-14 yielded   5018 shell pairs
 There are     31574 function pairs (     39716 Cartesian)
 Smallest overlap matrix eigenvalue = 8.23E-06

 Scale SEOQF with 1.000000e-03/1.000000e-03/1.000000e-03

 Standard Electronic Orientation quadrupole field applied
 Nucleus-field energy     =     0.0000000122 hartrees
 Guess from superposition of atomic densities
 Warning:  Energy on first SCF cycle will be non-variational
 SAD guess density has 40.000000 electrons

 -----------------------------------------------------------------------
  General SCF calculation program by
  Eric Jon Sundstrom, Paul Horn, Yuezhi Mao, Dmitri Zuev, Alec White,
  David Stuck, Shaama M.S., Shane Yost, Joonho Lee, David Small,
  Daniel Levine, Susi Lehtola, Hugh Burton, Evgeny Epifanovsky,
  Bang C. Huynh
 -----------------------------------------------------------------------
 Exchange:     0.1670 Hartree-Fock + 1.0000 wB97X-V + LR-HF
 Correlation:  1.0000 wB97X-V
 Using Euler-Maclaurin-Lebedev (99,590) quadrature formula
 Nonlocal Correlation:  VV10 with C = 0.0100 and b = 6.00 and scale = 1.00000
 Grid used for NLC:  SG-1 standard quadrature
Energy prior to optimization (guess energy) = -248.417085992865
Begin Timing: Total SCF Calculation
begin iterations for algorithm: DIIS         
the SCF tolerance is set to 1.00e-08
    1    -248.4170859929      4.28e-03     00000 
    2    -248.3600132587      5.76e-03     00000 
    3    -248.5362258967      4.99e-04     00000 
    4    -248.5377196005      2.25e-04     00000 
    5    -248.5380530030      5.20e-05     00000 
    6    -248.5380774879      1.89e-05     00000 
    7    -248.5380819245      5.14e-06     00000 
    8    -248.5380824792      1.59e-06     00000 
    9    -248.5380825195      5.64e-07     00000 
   10    -248.5380825233      1.04e-07     00000 
   11    -248.5380825235      2.08e-08     00000 
   12    -248.5380825235      8.41e-09     00000 Convergence criterion met
Timing for Total SCF: 338.00s (wall), 2055.41s (cpu)
Multipole orders to be included
        2
        3
computing dipole RHS
computing quadrupole RHS
total number of RHS in solve_reponses: 8
RHS batch sizes
        8
Beginning Block Conjugate Gradient Iterations. Batch Number: 0
computing hessian-vector products by finite difference
              1      4.68e-01     00000 Conjugate Gradient Iteration
computing hessian-vector products by finite difference
              2      1.47e-01     00000 Conjugate Gradient Iteration
computing hessian-vector products by finite difference
              3      4.01e-02     00000 Conjugate Gradient Iteration
computing hessian-vector products by finite difference
              4      9.65e-03     00000 Conjugate Gradient Iteration
computing hessian-vector products by finite difference
              5      1.81e-03     00000 Conjugate Gradient Iteration
computing hessian-vector products by finite difference
              6      3.37e-04     00000 Conjugate Gradient Iteration
computing hessian-vector products by finite difference
              7      4.96e-05     00000 Conjugate Gradient Iteration
computing hessian-vector products by finite difference
              8      8.02e-06     00000 Conjugate Gradient Iteration
computing hessian-vector products by finite difference
              9      1.27e-06     00000 Conjugate Gradient Iteration
computing hessian-vector products by finite difference
             10      1.89e-07     00000 Conjugate Gradient Iteration
computing hessian-vector products by finite difference
             11      2.94e-08     00000 Conjugate Gradient Iteration
computing hessian-vector products by finite difference
             12      3.57e-09     00000 CG Converged
batch 0 complete
Done Calculating Responses
TESTING ORTHOGONALIZATION OF MULTIPOLE BASIS
Multipole virts passed orthogonality test
Virts Per Order
           60
          100

 --------------------------------------------------------------

                    Orbital Energies (a.u.)
 --------------------------------------------------------------

 Alpha MOs
 -- Occupied --
-19.1601 -14.4317 -10.3649 -10.3032 -10.2707  -1.1631  -1.0533  -0.8829
 -0.8303  -0.7024  -0.6233  -0.5813  -0.5731  -0.5430  -0.5235  -0.5115
 -0.4911  -0.4694  -0.3576  -0.3488
 -- Virtual --
  0.0550   0.0771   0.0965   0.1081   0.1089   0.1248   0.1369   0.1425
  0.1517   0.1609   0.1643   0.1793   0.1867   0.2017   0.2119   0.2290
  0.2346   0.2377   0.2506   0.2628   0.2718   0.2774   0.2917   0.2947
  0.3059   0.3104   0.3202   0.3302   0.3410   0.3519   0.3575   0.3586
  0.3653   0.3676   0.3791   0.3842   0.3940   0.4055   0.4066   0.4156
  0.4260   0.4382   0.4485   0.4590   0.4623   0.4702   0.4764   0.4862
  0.4974   0.5045   0.5060   0.5115   0.5275   0.5355   0.5459   0.5570
  0.5657   0.5791   0.5932   0.6098   0.6120   0.6434   0.6499   0.6631
  0.6802   0.6884   0.7028   0.7149   0.7357   0.7369   0.7462   0.7528
  0.7726   0.7888   0.7950   0.7994   0.8122   0.8235   0.8427   0.8496
  0.8569   0.8769   0.8868   0.8996   0.9365   0.9611   0.9895   1.0029
  1.0321   1.0415   1.0716   1.0919   1.1230   1.1538   1.1800   1.2198
  1.2208   1.2481   1.2553   1.2846   1.2924   1.3309   1.3486   1.3800
  1.4126   1.4428   1.5236   1.5377   1.6245   1.6774   1.7272   1.7336
  1.7565   1.8331   1.8385   1.8629   1.8834   1.8957   1.9076   1.9234
  1.9466   1.9540   1.9877   2.0081   2.0272   2.0684   2.0922   2.1056
  2.1652   2.1984   2.2391   2.2677   2.2913   2.3161   2.3428   2.3626
  2.3753   2.4552   2.4636   2.4798   2.5341   2.5813   2.5844   2.5982
  2.6172   2.6437   2.6455   2.7084   2.7578   2.7784   2.8168   2.8484
  2.8559   2.8757   2.9063   2.9453   2.9621   3.0295   3.0576   3.1226
  3.1859   3.2076   3.2415   3.2667   3.2749   3.2971   3.3303   3.3363
  3.3428   3.3897   3.4036   3.4211   3.4443   3.4596   3.4696   3.5436
  3.5716   3.5952   3.6126   3.6337   3.6426   3.6973   3.7066   3.7614
  3.8059   3.8749   3.9171   3.9586   4.0195   4.1268   4.1650   4.1767
  4.2674   4.3429   4.4456   4.4582   4.4881   4.5832   4.6572   4.7195
  4.7517   4.8336   4.9314   4.9447   5.0147   5.2071   5.2197   5.2296
  5.3138   5.4255   5.4626   5.5158   5.6261   5.7141   5.7843   5.8063
  6.0134   6.1689   6.3006   6.5697   6.6785   6.7917   6.8831   7.0094
  7.2903   7.3688  22.6342  22.6744  23.6267  32.7234  44.3455
 --------------------------------------------------------------

          Ground-State Mulliken Net Atomic Charges

     Atom                 Charge (a.u.)
  ----------------------------------------
      1 C                    -0.723389
      2 H                     0.207801
      3 C                     0.503184
      4 O                    -0.532441
      5 N                    -0.072791
      6 H                     0.171285
      7 C                    -0.711543
      8 H                     0.268494
      9 H                     0.173077
     10 H                     0.245155
     11 H                     0.223223
     12 H                     0.247948
  ----------------------------------------
  Sum of atomic charges =     0.000000

 -----------------------------------------------------------------
                    Cartesian Multipole Moments
 -----------------------------------------------------------------
    Charge (ESU x 10^10)
                 0.0000
    Dipole Moment (Debye)
         X      -2.6151      Y      -1.8776      Z      -2.4694
       Tot       4.0574
    Quadrupole Moments (Debye-Ang)
        XX    -118.2489     XY    -116.3164     YY    -147.0659
        XZ    -100.4044     YZ    -117.0064     ZZ    -137.6578
    Octopole Moments (Debye-Ang^2)
       XXX   -3783.0724    XXY   -4323.8465    XYY   -5226.5843
       YYY   -8263.8324    XXZ   -3329.9353    XYZ   -3873.9691
       YYZ   -5535.6232    XZZ   -3651.4782    YZZ   -5140.4714
       ZZZ   -5440.8776
    Hexadecapole Moments (Debye-Ang^3)
      XXXX -103957.9695   XXXY -129454.6858   XXYY -163623.0541
      XYYY -228580.2884   YYYY -400619.4784   XXXZ  -95309.2492
      XXYZ -117488.7288   XYYZ -154962.6743   YYYZ -251084.9685
      XXZZ  -97970.7548   XYZZ -129647.8717   YYZZ -200432.5904
      XZZZ -122021.5878   YZZZ -187578.9158   ZZZZ -184402.3407
 -----------------------------------------------------------------
Archival summary:
1\1\compute-0-1.local\SP\ProcedureUnspecified\BasisUnspecified\1137\meili\MonMay1012:14:502021MonMay1012:14:502021\0\\#,ProcedureUnspecified,BasisUnspecified,\\0,1\N\H,1,0.974253\C,1,1.33707,2,114.875\O,3,1.21631,1,120.528,2,-179.679,0\C,1,1.4798,2,114.448,3,-178.815,0\H,5,1.06969,1,109.772,2,85.8533,0\H,5,1.07037,1,110.209,2,-33.7722,0\H,5,1.07382,1,108.194,2,-154.337,0\C,3,1.54488,1,120.32,2,5.02416,0\H,9,1.06994,3,109.967,1,178.814,0\H,9,1.06998,3,110.645,1,-61.7262,0\H,9,1.09501,3,107.463,1,59.1548,0\\\@

 Total job time:  5115.27s(wall), 31530.27s(cpu) 
 Mon May 10 12:14:50 2021

        *************************************************************
        *                                                           *
        *  Thank you very much for using Q-Chem.  Have a nice day.  *
        *                                                           *
        *************************************************************


Done Job For Fragment 1
calling putenv with: QCSCRATCH=/home/meili/scratch 
calling putenv with: QCTHREADS=8 
Doing General SCFMI
 Exchange:     0.1670 Hartree-Fock + 1.0000 wB97X-V + LR-HF
 Correlation:  1.0000 wB97X-V
 Using Euler-Maclaurin-Lebedev (99,590) quadrature formula
 Nonlocal Correlation:  VV10 with C = 0.0100 and b = 6.00 and scale = 1.00000
 Grid used for NLC:  SG-1 standard quadrature
performing fock build before subrot guess so that all methods have access
Printing subrot_rss_gen Method Specification:
Occupied Subspace Method is 0
Virtual Subspace Method is 0
Energy of the unrelaxed supersystem initial determinant -497.078536318212
write pseudocanon occs and virts to disk
write pseudocanon orbital energies to disk
Tolerance of ortho_decomp_scf: 1.00e-06
GDM subspace size: 20
Beginning the Orthogonal Decomposition of the Initial Supersystem Wavefunction
    1    -497.0652139697      2.70e-02     ortho_decomp Preconditoned Steepest Descent
    2    -497.0668077905      6.63e-04     ortho_decomp BFGS Step
    3    -497.0668130843      4.57e-05     ortho_decomp BFGS Step
    4    -497.0668130900      1.55e-06     ortho_decomp BFGS Step
    5    -497.0668130900      4.52e-08     ortho_decomp 00000 Convergence criterion met
 Hartree-Fock
 Hartree-Fock
 Hartree-Fock
Doing General SCFMI
 Exchange:     0.1670 Hartree-Fock + 1.0000 wB97X-V + LR-HF
 Correlation:  1.0000 wB97X-V
 Using Euler-Maclaurin-Lebedev (99,590) quadrature formula
 Nonlocal Correlation:  VV10 with C = 0.0100 and b = 6.00 and scale = 1.00000
 Grid used for NLC:  SG-1 standard quadrature
performing fock build at end of subrot_r(subrot) constructor so that all methods have access
<S^2> of initial wavefunction before polarization iterations 0.0000000000
Beginning iterations for the determination of the polarized wavefunction
Energy prior to optimization (guess energy) = -497.078536318212
Begin Timing: Total SCF Calculation
begin iterations for algorithm: DIIS         
the SCF tolerance is set to 1.00e-08
    1    -497.0785363182      9.84e-05     00000 
    2    -497.0792341659      3.67e-05     00000 
    3    -497.0792962118      1.99e-05     00000 
    4    -497.0793111099      9.01e-06     00000 
    5    -497.0793138268      3.33e-06     00000 
    6    -497.0793142874      1.10e-06     00000 
    7    -497.0793143676      4.73e-07     00000 
    8    -497.0793143804      1.43e-07     00000 
    9    -497.0793143820      4.04e-08     00000 
   10    -497.0793143821      1.61e-08     00000 
   11    -497.0793143821      9.13e-09     00000 Convergence criterion met
write pseudocanon occs and virts to disk
write pseudocanon orbital energies to disk
Timing for Total SCF: 1738.00s (wall), 11132.31s (cpu)
<S^2> of polarized wavefunction after polarization iterations 0.0000000000
relaxing scfmi constraint to allow all rotations in the entire AO span
Doing General SCFMI
 Exchange:     0.1670 Hartree-Fock + 1.0000 wB97X-V + LR-HF
 Correlation:  1.0000 wB97X-V
 Using Euler-Maclaurin-Lebedev (99,590) quadrature formula
 Nonlocal Correlation:  VV10 with C = 0.0100 and b = 6.00 and scale = 1.00000
 Grid used for NLC:  SG-1 standard quadrature
performing fock build at end of subrot_r(subrot) constructor so that all methods have access
<S^2> of polarized wavefunction before ct-allowed iterations 0.0000000000
Beginning iterations for the determination of the CT-Allowed wavefunction
Energy prior to optimization (guess energy) = -497.079314382089
Begin Timing: Total SCF Calculation
begin iterations for algorithm: DIIS         
the SCF tolerance is set to 1.00e-08
    1    -497.0793143821      6.14e-05     00000 
    2    -497.0797069467      5.57e-06     00000 
    3    -497.0797172843      1.15e-06     00000 
    4    -497.0797175281      1.16e-06     00000 
    5    -497.0797176430      1.38e-07     00000 
    6    -497.0797176456      6.43e-08     00000 
    7    -497.0797176463      1.54e-08     00000 
    8    -497.0797176463      5.36e-09     00000 Convergence criterion met
write pseudocanon occs and virts to disk
write pseudocanon orbital energies to disk
Timing for Total SCF: 1198.00s (wall), 7732.66s (cpu)
<S^2> of ct_allowed wavefunction after ct-allowed iterations 0.0000000000

================================
        Results of EDA2         
================================
Basic EDA Quantities
--------------------
Fragment Energies (Ha):
1 -248.5359331634
2 -248.5380825235
--------------------
  E_prp (kJ/mol) = 0.0000
  E_frz (kJ/mol) = -11.8691
  E_pol (kJ/mol) = -2.0428
  E_vct (kJ/mol) = -1.0588
  E_int (kJ/mol) = -14.9707
--------------------


Initial Wavefunction Decomposition
--------------------
  --------------------
  Orthogonal Fragment Subspace Decomposition:
  --------------------
     E_elec   (ELEC)   (kJ/mol) = -14.8862
     E_pauli  (PAULI)  (kJ/mol) = 14.3915
     E_disp   (DISP)   (kJ/mol) = -11.3743
     --------------------
     Terms summing to E_pauli:
     --------------------
        E_kep_pauli       (kJ/mol) = 18.9106
        E_disp_free_pauli (kJ/mol) = -4.5192
  --------------------
  Classical Frozen Decomposition:
  --------------------
     E_cls_elec  (CLS ELEC)  (kJ/mol) = -6.9476
     E_cls_pauli (CLS PAULI) (kJ/mol) = -4.9214
    [E_mod_pauli (MOD PAULI) (kJ/mol) = 6.4529 (CLS PAULI - DISP from orthogonal decomposition) ]
  --------------------
--------------------

Simplified EDA Summary (kJ/mol)
--------------------
 PREPARATION     0.0000
 FROZEN          -0.4947      (does not include dispersion)
[PAULI           14.3915]     (if this is negligible, then frozen describes electrostatics)
 DISPERSION      -11.3743
 POLARIZATION    -2.0428
 CHARGE TRANSFER -1.0588
 TOTAL           -14.9707     (PRP + FRZ + DISP + POL + CT)
--------------------

 --------------------------------------------------------------

                    Orbital Energies (a.u.)
 --------------------------------------------------------------

 Alpha MOs
 -- Occupied --
-19.1587 -19.1585 -14.4274 -14.4268 -10.3632 -10.3533 -10.2909 -10.2874
-10.2712 -10.2530  -1.1686  -1.1610  -1.0566  -1.0488  -0.8858  -0.8799
 -0.8240  -0.8168  -0.7046  -0.6974  -0.6191  -0.6186  -0.5856  -0.5757
 -0.5734  -0.5699  -0.5401  -0.5376  -0.5175  -0.5143  -0.5107  -0.4977
 -0.4885  -0.4863  -0.4673  -0.4576  -0.3568  -0.3521  -0.3480  -0.3471
 -- Virtual --
  0.0476   0.0683   0.0738   0.0834   0.0978   0.1032   0.1060   0.1096
  0.1140   0.1218   0.1288   0.1335   0.1374   0.1428   0.1490   0.1614
  0.1648   0.1698   0.1707   0.1744   0.1780   0.1900   0.1948   0.1983
  0.2080   0.2136   0.2238   0.2284   0.2351   0.2391   0.2453   0.2526
  0.2552   0.2609   0.2626   0.2654   0.2754   0.2758   0.2832   0.2864
  0.2899   0.2999   0.3000   0.3024   0.3139   0.3187   0.3212   0.3248
  0.3260   0.3314   0.3341   0.3432   0.3437   0.3458   0.3545   0.3563
  0.3579   0.3613   0.3633   0.3661   0.3708   0.3735   0.3810   0.3840
  0.3883   0.3934   0.3980   0.4012   0.4047   0.4132   0.4189   0.4211
  0.4244   0.4261   0.4276   0.4343   0.4450   0.4491   0.4538   0.4564
  0.4618   0.4648   0.4736   0.4792   0.4830   0.4912   0.4923   0.4957
  0.4994   0.5011   0.5046   0.5074   0.5163   0.5225   0.5270   0.5296
  0.5327   0.5398   0.5478   0.5503   0.5525   0.5609   0.5614   0.5651
  0.5751   0.5798   0.5852   0.5892   0.5921   0.5981   0.6081   0.6118
  0.6241   0.6284   0.6314   0.6485   0.6507   0.6530   0.6610   0.6645
  0.6680   0.6819   0.6852   0.6904   0.6987   0.7052   0.7130   0.7232
  0.7244   0.7352   0.7437   0.7510   0.7586   0.7590   0.7677   0.7712
  0.7813   0.7829   0.7867   0.7949   0.8011   0.8036   0.8083   0.8106
  0.8143   0.8170   0.8327   0.8331   0.8400   0.8463   0.8568   0.8633
  0.8669   0.8764   0.8798   0.8927   0.9010   0.9064   0.9128   0.9237
  0.9297   0.9332   0.9411   0.9486   0.9600   0.9701   0.9858   0.9989
  1.0067   1.0110   1.0244   1.0295   1.0409   1.0466   1.0609   1.0763
  1.0860   1.0944   1.1036   1.1256   1.1339   1.1385   1.1506   1.1647
  1.1814   1.1941   1.1980   1.2114   1.2141   1.2358   1.2518   1.2582
  1.2660   1.2826   1.2948   1.2995   1.3118   1.3193   1.3266   1.3507
  1.3653   1.3730   1.3884   1.3991   1.4049   1.4153   1.4235   1.4345
  1.4512   1.4741   1.4887   1.5253   1.5614   1.5677   1.5800   1.6096
  1.6591   1.6829   1.7238   1.7331   1.7522   1.7581   1.7817   1.7978
  1.8190   1.8384   1.8535   1.8594   1.8878   1.8909   1.8971   1.9086
  1.9144   1.9216   1.9358   1.9378   1.9559   1.9637   1.9641   1.9704
  1.9878   2.0005   2.0168   2.0202   2.0317   2.0423   2.0444   2.0719
  2.0815   2.0904   2.1172   2.1220   2.1311   2.1515   2.1557   2.1779
  2.1994   2.2061   2.2454   2.2584   2.2690   2.2796   2.2990   2.3153
  2.3261   2.3377   2.3509   2.3670   2.3881   2.4037   2.4072   2.4165
  2.4292   2.4492   2.4916   2.5081   2.5112   2.5221   2.5360   2.5499
  2.5612   2.5828   2.5988   2.6170   2.6264   2.6358   2.6498   2.6597
  2.6656   2.6776   2.6993   2.7016   2.7188   2.7254   2.7597   2.7692
  2.7733   2.7879   2.8055   2.8311   2.8564   2.8637   2.8789   2.8805
  2.8941   2.9031   2.9145   2.9185   2.9409   2.9706   2.9811   2.9908
  3.0089   3.0448   3.0653   3.0825   3.1030   3.1427   3.1640   3.1809
  3.2004   3.2275   3.2300   3.2481   3.2622   3.2694   3.2845   3.2978
  3.3048   3.3172   3.3273   3.3320   3.3434   3.3547   3.3637   3.3774
  3.3855   3.3911   3.4052   3.4210   3.4296   3.4464   3.4571   3.4692
  3.4768   3.4882   3.4994   3.5064   3.5269   3.5414   3.5711   3.6008
  3.6083   3.6173   3.6244   3.6300   3.6467   3.6530   3.6737   3.6991
  3.7027   3.7182   3.7371   3.7427   3.7480   3.7667   3.7860   3.8194
  3.8309   3.8411   3.9129   3.9456   3.9654   3.9781   4.0136   4.0281
  4.0341   4.0804   4.1038   4.1452   4.1724   4.1921   4.1930   4.2582
  4.2907   4.3641   4.3788   4.4267   4.4481   4.4744   4.4955   4.5158
  4.5217   4.5718   4.6091   4.6747   4.6810   4.7273   4.7451   4.7702
  4.7905   4.8127   4.8560   4.8754   4.9576   4.9609   4.9742   5.0298
  5.0336   5.0353   5.2314   5.2356   5.2414   5.2520   5.2616   5.2909
  5.3281   5.3588   5.4406   5.4494   5.4743   5.5225   5.5360   5.5516
  5.6188   5.6500   5.7061   5.7335   5.7460   5.7999   5.8154   5.8837
  6.0231   6.0360   6.1656   6.1888   6.3299   6.3921   6.5894   6.6424
  6.7172   6.7247   6.8275   6.8624   6.8959   6.9597   7.0478   7.0682
  7.3094   7.3174   7.3894   7.4046  22.6502  22.7162  22.7282  22.8110
 23.6508  23.7513  32.7557  32.7648  44.4192  44.4834
 --------------------------------------------------------------

          Ground-State Mulliken Net Atomic Charges

     Atom                 Charge (a.u.)
  ----------------------------------------
      1 C                    -0.774043
      2 H                     0.219516
      3 C                     0.576554
      4 O                    -0.545600
      5 N                    -0.065136
      6 H                     0.195589
      7 C                    -0.798395
      8 H                     0.317174
      9 H                     0.236669
     10 H                     0.172652
     11 H                     0.259569
     12 H                     0.214048
     13 C                    -0.801966
     14 H                     0.201531
     15 C                     0.515585
     16 O                    -0.532018
     17 N                    -0.036650
     18 H                     0.171836
     19 C                    -0.724017
     20 H                     0.277919
     21 H                     0.172069
     22 H                     0.293050
     23 H                     0.209650
     24 H                     0.244415
  ----------------------------------------
  Sum of atomic charges =     0.000000

 -----------------------------------------------------------------
                    Cartesian Multipole Moments
 -----------------------------------------------------------------
    Charge (ESU x 10^10)
                 0.0000
    Dipole Moment (Debye)
         X      -0.0168      Y      -2.1939      Z      -5.1242
       Tot       5.5741
    Quadrupole Moments (Debye-Ang)
        XX     -58.3958     XY     -30.9640     YY    -201.3433
        XZ     -91.4533     YZ    -217.2812     ZZ    -274.2842
    Octopole Moments (Debye-Ang^2)
       XXX   -3025.8147    XXY   -2327.0262    XYY   -2996.4075
       YYY  -12791.6905    XXZ   -2830.0983    XYZ   -3690.1858
       YYZ   -9946.4144    XZZ   -4859.7486    YZZ  -10091.8046
       ZZZ  -10460.4781
    Hexadecapole Moments (Debye-Ang^3)
      XXXX -105470.8387   XXXY -104655.1307   XXYY -107032.3204
      XYYY -196514.3710   YYYY -689895.0107   XXXZ  -91538.4493
      XXYZ -102261.7071   XYYZ -164329.6599   YYYZ -459352.3057
      XXZZ -111132.6980   XYZZ -174909.3947   YYZZ -392609.3002
      XZZZ -184661.8082   YZZZ -367136.9219   ZZZZ -343322.0334
 -----------------------------------------------------------------
Archival summary:
1\1\compute-0-1.local\SP\ProcedureUnspecified\BasisUnspecified\22614\meili\MonMay1013:43:582021MonMay1013:43:582021\0\\#,ProcedureUnspecified,BasisUnspecified,\\0,1\O\C,1,1.21631\N,2,1.33707,1,120.528\H,3,0.974253,2,114.875,1,-179.679,0\C,3,1.4798,2,130.664,1,-1.10092,0\H,5,1.06969,3,109.772,2,-92.7299,0\H,5,1.07037,3,110.209,2,147.645,0\H,5,1.07382,3,108.194,2,27.0801,0\C,2,1.54488,1,118.988,3,175.359,0\H,9,1.06994,2,109.967,1,3.44599,0\H,9,1.06998,2,110.645,1,122.905,0\H,9,1.09501,2,107.463,1,-116.214,0\O,8,2.74521,5,144.094,3,80.8848,0\C,13,1.20121,8,108.863,5,-68.1184,0\N,14,1.33363,13,123.478,8,88.3274,0\H,15,1.00074,14,118.576,13,179.981,0\C,15,1.44537,14,123.708,13,12.7032,0\H,17,1.03484,15,106.386,14,-4.4664,0\H,17,1.06974,15,110.241,14,115.068,0\H,17,1.07039,15,111.265,14,-125.811,0\C,14,1.48929,13,121.497,8,-85.4633,0\H,21,1.06963,14,114.877,13,18.4867,0\H,21,1.07016,14,111.799,13,136.431,0\H,21,1.11418,14,100.011,13,-105.14,0\\\@

 Total job time:  16488.45s(wall), 34514.70s(cpu) 
 Mon May 10 13:43:58 2021

        *************************************************************
        *                                                           *
        *  Thank you very much for using Q-Chem.  Have a nice day.  *
        *                                                           *
        *************************************************************


