                  Welcome to Q-Chem
     A Quantum Leap Into The Future Of Chemistry


 Q-Chem 5.2 (devel), Q-Chem, Inc., Pleasanton, CA (2019)

 Yihan Shao,  Zhengting Gan,  E. Epifanovsky,  A. T. B. Gilbert,  M. Wormit,  
 J. Kussmann,  A. W. Lange,  A. Behn,  Jia Deng,  Xintian Feng,  D. Ghosh,  
 M. Goldey,  P. R. Horn,  L. D. Jacobson,  I. Kaliman,  T. Kus,  A. Landau,  
 Jie Liu,  E. I. Proynov,  R. M. Richard,  R. P. Steele,  E. J. Sundstrom,  
 H. L. Woodcock III,  P. M. Zimmerman,  D. Zuev,  B. Albrecht,  E. Alguire,  
 S. A. Baeppler,  D. Barton,  Z. Benda,  Y. A. Bernard,  E. J. Berquist,  
 K. B. Bravaya,  H. Burton,  D. Casanova,  Chun-Min Chang,  Yunqing Chen,  
 A. Chien,  K. D. Closser,  M. P. Coons,  S. Coriani,  S. Dasgupta,  
 A. L. Dempwolff,  M. Diedenhofen,  Hainam Do,  R. G. Edgar,  Po-Tung Fang,  
 S. Faraji,  S. Fatehi,  Qingguo Feng,  K. D. Fenk,  J. Fosso-Tande,  
 J. Gayvert,  Qinghui Ge,  A. Ghysels,  G. Gidofalvi,  J. Gomes,  
 J. Gonthier,  A. Gunina,  D. Hait,  M. W. D. Hanson-Heine,  
 P. H. P. Harbach,  A. W. Hauser,  M. F. Herbst,  J. E. Herr,  
 E. G. Hohenstein,  Z. C. Holden,  Kerwin Hui,  B. C. Huynh,  T.-C. Jagau,  
 Hyunjun Ji,  B. Kaduk,  K. Khistyaev,  Jaehoon Kim,  P. Klunzinger,  K. Koh,  
 D. Kosenkov,  L. Koulias,  T. Kowalczyk,  C. M. Krauter,  A. Kunitsa,  
 Ka Un Lao,  A. Laurent,  K. V. Lawler,  Joonho Lee,  D. Lefrancois,  
 S. Lehtola,  D. S. Levine,  Yi-Pei Li,  You-Sheng Lin,  Fenglai Liu,  
 E. Livshits,  A. Luenser,  P. Manohar,  E. Mansoor,  S. F. Manzer,  
 Shan-Ping Mao,  Yuezhi Mao,  N. Mardirossian,  A. V. Marenich,  
 T. Markovich,  L. A. Martinez-Martinez,  S. A. Maurer,  N. J. Mayhall,  
 S. C. McKenzie,  J.-M. Mewes,  P. Morgante,  A. F. Morrison,  
 J. W. Mullinax,  K. Nanda,  T. S. Nguyen-Beck,  R. Olivares-Amaya,  
 J. A. Parkhill,  Zheng Pei,  T. M. Perrine,  F. Plasser,  P. Pokhilko,  
 S. Prager,  A. Prociuk,  E. Ramos,  D. R. Rehn,  F. Rob,  M. Scheurer,  
 M. Schneider,  N. Sergueev,  S. M. Sharada,  S. Sharma,  D. W. Small,  
 T. Stauch,  T. Stein,  Yu-Chuan Su,  A. J. W. Thom,  A. Tkatchenko,  
 T. Tsuchimochi,  N. M. Tubman,  L. Vogt,  M. L. Vidal,  O. Vydrov,  
 M. A. Watson,  J. Wenzel,  M. de Wergifosse,  T. A. Wesolowski,  A. White,  
 J. Witte,  A. Yamada,  Jun Yang,  K. Yao,  S. Yeganeh,  S. R. Yost,  
 Zhi-Qiang You,  A. Zech,  Igor Ying Zhang,  Xing Zhang,  Yan Zhao,  
 Ying Zhu,  B. R. Brooks,  G. K. L. Chan,  C. J. Cramer,  M. S. Gordon,  
 W. J. Hehre,  A. Klamt,  M. W. Schmidt,  C. D. Sherrill,  D. G. Truhlar,  
 A. Aspuru-Guzik,  R. Baer,  A. T. Bell,  N. A. Besley,  Jeng-Da Chai,  
 A. E. DePrince, III,  R. A. DiStasio Jr.,  A. Dreuw,  B. D. Dunietz,  
 T. R. Furlani,  Chao-Ping Hsu,  Yousung Jung,  Jing Kong,  D. S. Lambrecht,  
 WanZhen Liang,  C. Ochsenfeld,  V. A. Rassolov,  L. V. Slipchenko,  
 J. E. Subotnik,  T. Van Voorhis,  J. M. Herbert,  A. I. Krylov,  
 P. M. W. Gill,  M. Head-Gordon

 Contributors to earlier versions of Q-Chem not listed above: 
 R. D. Adamson,  B. Austin,  J. Baker,  G. J. O. Beran,  K. Brandhorst,  
 S. T. Brown,  E. F. C. Byrd,  A. K. Chakraborty,  C.-L. Cheng,  
 Siu Hung Chien,  D. M. Chipman,  D. L. Crittenden,  H. Dachsel,  
 R. J. Doerksen,  A. D. Dutoi,  L. Fusti-Molnar,  W. A. Goddard III,  
 A. Golubeva-Zadorozhnaya,  S. R. Gwaltney,  G. Hawkins,  A. Heyden,  
 S. Hirata,  G. Kedziora,  F. J. Keil,  C. Kelley,  Jihan Kim,  R. A. King,  
 R. Z. Khaliullin,  P. P. Korambath,  W. Kurlancheek,  A. M. Lee,  M. S. Lee,  
 S. V. Levchenko,  Ching Yeh Lin,  D. Liotard,  R. C. Lochan,  I. Lotan,  
 P. E. Maslen,  N. Nair,  D. P. O'Neill,  D. Neuhauser,  E. Neuscamman,  
 C. M. Oana,  R. Olson,  B. Peters,  R. Peverati,  P. A. Pieniazek,  
 Y. M. Rhee,  J. Ritchie,  M. A. Rohrdanz,  E. Rosta,  N. J. Russ,  
 H. F. Schaefer III,  N. E. Schultz,  N. Shenvi,  A. C. Simmonett,  A. Sodt,  
 D. Stuck,  K. S. Thanthiriwatte,  V. Vanovschi,  Tao Wang,  A. Warshel,  
 C. F. Williams,  Q. Wu,  X. Xu,  W. Zhang

 Please cite Q-Chem as follows:
 Y. Shao et al., Mol. Phys. 113, 184-215 (2015)
 DOI: 10.1080/00268976.2014.952696

 Q-Chem 5.2.1 for Intel X86 EM64T Linux

 Parts of Q-Chem use Armadillo 8.300.2 (Tropical Shenanigans).
 http://arma.sourceforge.net/

 Q-Chem begins on Mon May 10 09:09:15 2021  

compute-0-0.local
Host: 0

     Scratch files written to /home/meili/scratch/qchem20324//
NAlpha2: 80
NElect   80
Mult     1

 Q-Chem warning in module libgen/rem_setup.C, line 2813:

 Neither GIA nor STOLL is specified by user. Use STOLL as the default


Checking the input file for inconsistencies... 	...done.

--------------------------------------------------------------
User input:
--------------------------------------------------------------
$comment
1vex_ff99sbtip3p_nvt_e9_100ns_m3229_005CYX_006LEU_033SER_034LEU.pdb
$end

$molecule
0 1
--
0 1
C    12.7240000000   30.3950000000   29.7740000000
H    13.7210000000   30.0630000000   29.4920000000
C    11.7930000000   30.1480000000   28.6490000000
O    10.7710000000   30.8360000000   28.5310000000
N    11.9830000000   29.0580000000   27.8780000000
H    12.7670000000   28.4210000000   28.0210000000
C    11.1160000000   28.6930000000   26.7810000000
H    10.8510000000   29.6220000000   26.3080000000
H    12.3960000000   29.8520000000   30.6360000000
H    12.7440000000   31.4400000000   30.0020000000
H    11.6300000000   28.0550000000   26.0930000000
H    10.2540000000   28.1550000000   27.1160000000
--
0 1
C    16.4650000000   29.7060000000   28.3290000000
H    15.8710000000   30.0950000000   29.1400000000
C    15.7510000000   29.8560000000   26.9850000000
O    15.8300000000   28.9460000000   26.1150000000
N    15.0990000000   30.9580000000   26.6890000000
H    14.9760000000   31.5860000000   27.4420000000
C    14.6790000000   31.4150000000   25.3390000000
H    14.0490000000   30.6550000000   24.8120000000
H    17.3920000000   30.2390000000   28.2910000000
H    16.6300000000   28.6640000000   28.5050000000
H    14.1150000000   32.3190000000   25.4410000000
H    15.5620000000   31.5710000000   24.7560000000
$end

$rem
JOBTYPE			EDA
EDA2			1
method			wB97X-V
BASIS			def2-TZVPD
XC_GRID			000099000590
NL_GRID			1
UNRESTRICTED		FALSE
MAX_SCF_CYCLES		200
SYMMETRY		FALSE
SYM_IGNORE		TRUE
MEM_STATIC		2000
BASIS_LIN_DEP_THRESH 	6
THRESH 			14
SCF_CONVERGENCE 	8
SCF_PRINT_FRGM 		TRUE
$end
--------------------------------------------------------------
 ----------------------------------------------------------------
             Standard Nuclear Orientation (Angstroms)
    I     Atom           X                Y                Z
 ----------------------------------------------------------------
    1      C      12.7240000000    30.3950000000    29.7740000000
    2      H      13.7210000000    30.0630000000    29.4920000000
    3      C      11.7930000000    30.1480000000    28.6490000000
    4      O      10.7710000000    30.8360000000    28.5310000000
    5      N      11.9830000000    29.0580000000    27.8780000000
    6      H      12.7670000000    28.4210000000    28.0210000000
    7      C      11.1160000000    28.6930000000    26.7810000000
    8      H      10.8510000000    29.6220000000    26.3080000000
    9      H      12.3960000000    29.8520000000    30.6360000000
   10      H      12.7440000000    31.4400000000    30.0020000000
   11      H      11.6300000000    28.0550000000    26.0930000000
   12      H      10.2540000000    28.1550000000    27.1160000000
   13      C      16.4650000000    29.7060000000    28.3290000000
   14      H      15.8710000000    30.0950000000    29.1400000000
   15      C      15.7510000000    29.8560000000    26.9850000000
   16      O      15.8300000000    28.9460000000    26.1150000000
   17      N      15.0990000000    30.9580000000    26.6890000000
   18      H      14.9760000000    31.5860000000    27.4420000000
   19      C      14.6790000000    31.4150000000    25.3390000000
   20      H      14.0490000000    30.6550000000    24.8120000000
   21      H      17.3920000000    30.2390000000    28.2910000000
   22      H      16.6300000000    28.6640000000    28.5050000000
   23      H      14.1150000000    32.3190000000    25.4410000000
   24      H      15.5620000000    31.5710000000    24.7560000000
 ----------------------------------------------------------------
 Nuclear Repulsion Energy =         542.73179625 hartrees
 There are       40 alpha and       40 beta electrons
 Requested basis set is def2-TZVPD
 There are 202 shells and 502 basis functions

 Total QAlloc Memory Limit   2000 MB
 Mega-Array Size      1956 MB
 MEM_STATIC part      2000 MB
 A cutoff of  1.0D-14 yielded  18429 shell pairs
 There are    114491 function pairs (    142817 Cartesian)
 Smallest overlap matrix eigenvalue = 2.49E-06

 Scale SEOQF with 1.000000e-03/1.000000e-03/1.000000e-03

 Standard Electronic Orientation quadrupole field applied
 Nucleus-field energy     =    -0.0000000081 hartrees

 -----------------------------------------------------------------------
  General SCF calculation program by
  Eric Jon Sundstrom, Paul Horn, Yuezhi Mao, Dmitri Zuev, Alec White,
  David Stuck, Shaama M.S., Shane Yost, Joonho Lee, David Small,
  Daniel Levine, Susi Lehtola, Hugh Burton, Evgeny Epifanovsky,
  Bang C. Huynh
 -----------------------------------------------------------------------
================================================================
                 ALMO-EDA with the EDA2 driver                  
================================================================
 The second-generation ALMO-EDA (for DFT):                      
 P. R. Horn, Y. Mao and M. Head-Gordon, PCCP, 18, 23067 (2016)  
 Decomposition of the frozen energy:                            
 P. R. Horn, Y. Mao and M. Head-Gordon, JCP, 144, 114107 (2016) 
 FERF model for polarization:                                   
 P. R. Horn and M. Head-Gordon, JCP, 143, 114111 (2015)         
Using eda2 option set 1
Option set summary: Frozen orbital wavefunction, initial wavefunction decomposition, and nDQ polarization.
--------------------------------
Printing EDA Options
--------------------------------
eda_child_super_basis      0
fragmo_guess_mode          0
child_mp                   1
child_mp_orders            232
cls_elec                   1
cls_disp                   0
scfmi_mode                 1
scfmi_occs                 0
scfmi_virts                0
frz_relax                  0
frz_relax_method           0
dc_pen_start               0
dc_pen_conv                0
dc_pen_increment           0
dc_pen_steps               0
dc_pen_thresh_factor       0
dc_pen_pre_newton_thresh   0
frz_ortho_decomp           1
frz_ortho_decomp_conv      6
frgm_method                2
scfmi_freeze_ss            0
separate_rehyb             0
plot_diff_den              0
eda_nocv                   0
eda_vct_relax              1
disp_free_x                0
disp_free_c                0
eda_bsse                   0
eda_pct_a                  0
eda_covp                   0
--------------------------------
Attempting to make child job directory: /home/meili/scratch/qchem20324//Frg1/
Attempting to make child job directory: /home/meili/scratch/qchem20324//Frg2/
Creating input file /home/meili/scratch/qchem20324/Frg1.input
using default PutDataFrgm: nothing
calling putenv with: QCSCRATCH=/home/meili/scratch/qchem20324/ 
Spawning Job For Fragment 0
                  Welcome to Q-Chem
     A Quantum Leap Into The Future Of Chemistry


 Q-Chem 5.2 (devel), Q-Chem, Inc., Pleasanton, CA (2019)

 Yihan Shao,  Zhengting Gan,  E. Epifanovsky,  A. T. B. Gilbert,  M. Wormit,  
 J. Kussmann,  A. W. Lange,  A. Behn,  Jia Deng,  Xintian Feng,  D. Ghosh,  
 M. Goldey,  P. R. Horn,  L. D. Jacobson,  I. Kaliman,  T. Kus,  A. Landau,  
 Jie Liu,  E. I. Proynov,  R. M. Richard,  R. P. Steele,  E. J. Sundstrom,  
 H. L. Woodcock III,  P. M. Zimmerman,  D. Zuev,  B. Albrecht,  E. Alguire,  
 S. A. Baeppler,  D. Barton,  Z. Benda,  Y. A. Bernard,  E. J. Berquist,  
 K. B. Bravaya,  H. Burton,  D. Casanova,  Chun-Min Chang,  Yunqing Chen,  
 A. Chien,  K. D. Closser,  M. P. Coons,  S. Coriani,  S. Dasgupta,  
 A. L. Dempwolff,  M. Diedenhofen,  Hainam Do,  R. G. Edgar,  Po-Tung Fang,  
 S. Faraji,  S. Fatehi,  Qingguo Feng,  K. D. Fenk,  J. Fosso-Tande,  
 J. Gayvert,  Qinghui Ge,  A. Ghysels,  G. Gidofalvi,  J. Gomes,  
 J. Gonthier,  A. Gunina,  D. Hait,  M. W. D. Hanson-Heine,  
 P. H. P. Harbach,  A. W. Hauser,  M. F. Herbst,  J. E. Herr,  
 E. G. Hohenstein,  Z. C. Holden,  Kerwin Hui,  B. C. Huynh,  T.-C. Jagau,  
 Hyunjun Ji,  B. Kaduk,  K. Khistyaev,  Jaehoon Kim,  P. Klunzinger,  K. Koh,  
 D. Kosenkov,  L. Koulias,  T. Kowalczyk,  C. M. Krauter,  A. Kunitsa,  
 Ka Un Lao,  A. Laurent,  K. V. Lawler,  Joonho Lee,  D. Lefrancois,  
 S. Lehtola,  D. S. Levine,  Yi-Pei Li,  You-Sheng Lin,  Fenglai Liu,  
 E. Livshits,  A. Luenser,  P. Manohar,  E. Mansoor,  S. F. Manzer,  
 Shan-Ping Mao,  Yuezhi Mao,  N. Mardirossian,  A. V. Marenich,  
 T. Markovich,  L. A. Martinez-Martinez,  S. A. Maurer,  N. J. Mayhall,  
 S. C. McKenzie,  J.-M. Mewes,  P. Morgante,  A. F. Morrison,  
 J. W. Mullinax,  K. Nanda,  T. S. Nguyen-Beck,  R. Olivares-Amaya,  
 J. A. Parkhill,  Zheng Pei,  T. M. Perrine,  F. Plasser,  P. Pokhilko,  
 S. Prager,  A. Prociuk,  E. Ramos,  D. R. Rehn,  F. Rob,  M. Scheurer,  
 M. Schneider,  N. Sergueev,  S. M. Sharada,  S. Sharma,  D. W. Small,  
 T. Stauch,  T. Stein,  Yu-Chuan Su,  A. J. W. Thom,  A. Tkatchenko,  
 T. Tsuchimochi,  N. M. Tubman,  L. Vogt,  M. L. Vidal,  O. Vydrov,  
 M. A. Watson,  J. Wenzel,  M. de Wergifosse,  T. A. Wesolowski,  A. White,  
 J. Witte,  A. Yamada,  Jun Yang,  K. Yao,  S. Yeganeh,  S. R. Yost,  
 Zhi-Qiang You,  A. Zech,  Igor Ying Zhang,  Xing Zhang,  Yan Zhao,  
 Ying Zhu,  B. R. Brooks,  G. K. L. Chan,  C. J. Cramer,  M. S. Gordon,  
 W. J. Hehre,  A. Klamt,  M. W. Schmidt,  C. D. Sherrill,  D. G. Truhlar,  
 A. Aspuru-Guzik,  R. Baer,  A. T. Bell,  N. A. Besley,  Jeng-Da Chai,  
 A. E. DePrince, III,  R. A. DiStasio Jr.,  A. Dreuw,  B. D. Dunietz,  
 T. R. Furlani,  Chao-Ping Hsu,  Yousung Jung,  Jing Kong,  D. S. Lambrecht,  
 WanZhen Liang,  C. Ochsenfeld,  V. A. Rassolov,  L. V. Slipchenko,  
 J. E. Subotnik,  T. Van Voorhis,  J. M. Herbert,  A. I. Krylov,  
 P. M. W. Gill,  M. Head-Gordon

 Contributors to earlier versions of Q-Chem not listed above: 
 R. D. Adamson,  B. Austin,  J. Baker,  G. J. O. Beran,  K. Brandhorst,  
 S. T. Brown,  E. F. C. Byrd,  A. K. Chakraborty,  C.-L. Cheng,  
 Siu Hung Chien,  D. M. Chipman,  D. L. Crittenden,  H. Dachsel,  
 R. J. Doerksen,  A. D. Dutoi,  L. Fusti-Molnar,  W. A. Goddard III,  
 A. Golubeva-Zadorozhnaya,  S. R. Gwaltney,  G. Hawkins,  A. Heyden,  
 S. Hirata,  G. Kedziora,  F. J. Keil,  C. Kelley,  Jihan Kim,  R. A. King,  
 R. Z. Khaliullin,  P. P. Korambath,  W. Kurlancheek,  A. M. Lee,  M. S. Lee,  
 S. V. Levchenko,  Ching Yeh Lin,  D. Liotard,  R. C. Lochan,  I. Lotan,  
 P. E. Maslen,  N. Nair,  D. P. O'Neill,  D. Neuhauser,  E. Neuscamman,  
 C. M. Oana,  R. Olson,  B. Peters,  R. Peverati,  P. A. Pieniazek,  
 Y. M. Rhee,  J. Ritchie,  M. A. Rohrdanz,  E. Rosta,  N. J. Russ,  
 H. F. Schaefer III,  N. E. Schultz,  N. Shenvi,  A. C. Simmonett,  A. Sodt,  
 D. Stuck,  K. S. Thanthiriwatte,  V. Vanovschi,  Tao Wang,  A. Warshel,  
 C. F. Williams,  Q. Wu,  X. Xu,  W. Zhang

 Please cite Q-Chem as follows:
 Y. Shao et al., Mol. Phys. 113, 184-215 (2015)
 DOI: 10.1080/00268976.2014.952696

 Q-Chem 5.2.1 for Intel X86 EM64T Linux

 Parts of Q-Chem use Armadillo 8.300.2 (Tropical Shenanigans).
 http://arma.sourceforge.net/

 Q-Chem begins on Mon May 10 09:10:23 2021  

compute-0-0.local
Host: 0

     Scratch files written to /home/meili/scratch/qchem20324//Frg1//
NAlpha2: 40
NElect   40
Mult     1

Checking the input file for inconsistencies... 	...done.

--------------------------------------------------------------
User input:
--------------------------------------------------------------
$molecule
0 1
 6	12.7240000000	30.3950000000	29.7740000000
 1	13.7210000000	30.0630000000	29.4920000000
 6	11.7930000000	30.1480000000	28.6490000000
 8	10.7710000000	30.8360000000	28.5310000000
 7	11.9830000000	29.0580000000	27.8780000000
 1	12.7670000000	28.4210000000	28.0210000000
 6	11.1160000000	28.6930000000	26.7810000000
 1	10.8510000000	29.6220000000	26.3080000000
 1	12.3960000000	29.8520000000	30.6360000000
 1	12.7440000000	31.4400000000	30.0020000000
 1	11.6300000000	28.0550000000	26.0930000000
 1	10.2540000000	28.1550000000	27.1160000000
$end
$rem
EDA2		1
METHOD		WB97X-V
BASIS		DEF2-TZVPD
XC_GRID		000099000590
NL_GRID		1
UNRESTRICTED		FALSE
MAX_SCF_CYCLES		200
SYMMETRY		FALSE
SYM_IGNORE		TRUE
BASIS_LIN_DEP_THRESH		6
THRESH		14
SCF_CONVERGENCE		8
SCF_PRINT_FRGM		TRUE
!required keywords
JOBTYPE		SP
SYM_IGNORE		TRUE
SUBSYSTEM		TRUE
GEN_SCFMAN		TRUE
CHILD_INSTRUCTION		2
SYM_IGNORE		TRUE
SCFMI		0
RI_K 0		
PARI_K 0		
MIN_PARI_K 0		
IARI_K 0		
OCC_RI_K 0		
PURECART		1111
MEM_STATIC		2000
MEM_TOTAL		2000
GUI		0
CHILD_MP		1
CHILD_MP_ORDERS		232
FRZ_RELAX		0
FRZ_RELAX_METHOD		0
EDA_CLS_ELEC		1
EDA_CLS_DISP		0
FRZ_ORTHO_DECOMP		1
EDA2		FALSE
FRGM_METHOD		FALSE
CIS_N_ROOTS  0
LOCAL_CIS    0
CIS_RLX_DNS  1
$end
--------------------------------------------------------------
 ----------------------------------------------------------------
             Standard Nuclear Orientation (Angstroms)
    I     Atom           X                Y                Z
 ----------------------------------------------------------------
    1      C      12.7240000000    30.3950000000    29.7740000000
    2      H      13.7210000000    30.0630000000    29.4920000000
    3      C      11.7930000000    30.1480000000    28.6490000000
    4      O      10.7710000000    30.8360000000    28.5310000000
    5      N      11.9830000000    29.0580000000    27.8780000000
    6      H      12.7670000000    28.4210000000    28.0210000000
    7      C      11.1160000000    28.6930000000    26.7810000000
    8      H      10.8510000000    29.6220000000    26.3080000000
    9      H      12.3960000000    29.8520000000    30.6360000000
   10      H      12.7440000000    31.4400000000    30.0020000000
   11      H      11.6300000000    28.0550000000    26.0930000000
   12      H      10.2540000000    28.1550000000    27.1160000000
 ----------------------------------------------------------------
 Nuclear Repulsion Energy =         181.30726299 hartrees
 There are       20 alpha and       20 beta electrons
 Requested basis set is def2-TZVPD
 There are 101 shells and 251 basis functions

 Total QAlloc Memory Limit   2000 MB
 Mega-Array Size      1956 MB
 MEM_STATIC part      2000 MB

                       Distance Matrix (Angstroms)
             C (  1)   H (  2)   C (  3)   O (  4)   N (  5)   H (  6)
   H (  2)  1.088006
   C (  3)  1.481011  2.105958
   O (  4)  2.356637  3.197429  1.237640
   N (  5)  2.435460  2.575978  1.348570  2.248697
   H (  6)  2.640366  2.402108  2.079805  3.174325  1.020232
   C (  7)  3.800068  4.001555  2.462677  2.788185  1.445103  2.082639
   H (  8)  4.014824  4.309204  2.577658  2.534152  2.016041  2.836869
   H (  9)  1.070270  1.763202  2.097473  2.835473  2.899581  3.003935
   H ( 10)  1.069771  1.763734  2.098636  2.534045  3.280918  3.610990
   H ( 11)  4.496910  4.467387  3.307621  3.796799  2.077701  2.268019
   H ( 12)  4.264207  4.615835  2.947992  3.075268  2.094157  2.684204
             C (  7)   H (  8)   H (  9)   H ( 10)   H ( 11)
   H (  8)  1.075637
   H (  9)  4.224063  4.601251
   H ( 10)  4.535552  4.531469  1.744937
   H ( 11)  1.069852  1.763109  4.945181  5.289565
   H ( 12)  1.069913  1.778022  4.456273  5.031930  1.717529

 A cutoff of  1.0D-14 yielded   5028 shell pairs
 There are     31634 function pairs (     39789 Cartesian)
 Smallest overlap matrix eigenvalue = 6.77E-06

 Scale SEOQF with 1.000000e-02/1.000000e-03/1.000000e-03

 Standard Electronic Orientation quadrupole field applied
 Nucleus-field energy     =     0.0000000106 hartrees
 Guess from superposition of atomic densities
 Warning:  Energy on first SCF cycle will be non-variational
 SAD guess density has 40.000000 electrons

 -----------------------------------------------------------------------
  General SCF calculation program by
  Eric Jon Sundstrom, Paul Horn, Yuezhi Mao, Dmitri Zuev, Alec White,
  David Stuck, Shaama M.S., Shane Yost, Joonho Lee, David Small,
  Daniel Levine, Susi Lehtola, Hugh Burton, Evgeny Epifanovsky,
  Bang C. Huynh
 -----------------------------------------------------------------------
 Exchange:     0.1670 Hartree-Fock + 1.0000 wB97X-V + LR-HF
 Correlation:  1.0000 wB97X-V
 Using Euler-Maclaurin-Lebedev (99,590) quadrature formula
 Nonlocal Correlation:  VV10 with C = 0.0100 and b = 6.00 and scale = 1.00000
 Grid used for NLC:  SG-1 standard quadrature
Energy prior to optimization (guess energy) = -248.418561459806
Begin Timing: Total SCF Calculation
begin iterations for algorithm: DIIS         
the SCF tolerance is set to 1.00e-08
    1    -248.4185614598      4.28e-03     00000 
    2    -248.3546012480      5.86e-03     00000 
    3    -248.5391795029      5.31e-04     00000 
    4    -248.5408970707      2.24e-04     00000 
    5    -248.5412350496      5.62e-05     00000 
    6    -248.5412630983      2.01e-05     00000 
    7    -248.5412682785      5.53e-06     00000 
    8    -248.5412689663      1.57e-06     00000 
    9    -248.5412690124      5.24e-07     00000 
   10    -248.5412690156      1.24e-07     00000 
   11    -248.5412690159      2.35e-08     00000 
   12    -248.5412690159      6.81e-09     00000 Convergence criterion met
Timing for Total SCF: 159.00s (wall), 1213.07s (cpu)
Multipole orders to be included
        2
        3
computing dipole RHS
computing quadrupole RHS
total number of RHS in solve_reponses: 8
RHS batch sizes
        8
Beginning Block Conjugate Gradient Iterations. Batch Number: 0
computing hessian-vector products by finite difference
              1      4.78e-01     00000 Conjugate Gradient Iteration
computing hessian-vector products by finite difference
              2      1.50e-01     00000 Conjugate Gradient Iteration
computing hessian-vector products by finite difference
              3      3.97e-02     00000 Conjugate Gradient Iteration
computing hessian-vector products by finite difference
              4      9.76e-03     00000 Conjugate Gradient Iteration
computing hessian-vector products by finite difference
              5      1.79e-03     00000 Conjugate Gradient Iteration
computing hessian-vector products by finite difference
              6      3.86e-04     00000 Conjugate Gradient Iteration
computing hessian-vector products by finite difference
              7      6.34e-05     00000 Conjugate Gradient Iteration
computing hessian-vector products by finite difference
              8      9.58e-06     00000 Conjugate Gradient Iteration
computing hessian-vector products by finite difference
              9      1.47e-06     00000 Conjugate Gradient Iteration
computing hessian-vector products by finite difference
             10      2.21e-07     00000 Conjugate Gradient Iteration
computing hessian-vector products by finite difference
             11      3.16e-08     00000 Conjugate Gradient Iteration
computing hessian-vector products by finite difference
             12      4.04e-09     00000 CG Converged
batch 0 complete
Done Calculating Responses
TESTING ORTHOGONALIZATION OF MULTIPOLE BASIS
Multipole virts passed orthogonality test
Virts Per Order
           60
          100

 --------------------------------------------------------------

                    Orbital Energies (a.u.)
 --------------------------------------------------------------

 Alpha MOs
 -- Occupied --
-19.1642 -14.4376 -10.3661 -10.2936 -10.2670  -1.1575  -1.0523  -0.8936
 -0.8231  -0.7074  -0.6241  -0.5860  -0.5793  -0.5434  -0.5168  -0.5107
 -0.4917  -0.4587  -0.3590  -0.3518
 -- Virtual --
  0.0545   0.0783   0.0923   0.1023   0.1091   0.1232   0.1341   0.1394
  0.1520   0.1668   0.1675   0.1881   0.1891   0.1994   0.2054   0.2236
  0.2380   0.2478   0.2571   0.2708   0.2769   0.2843   0.2884   0.2928
  0.3035   0.3083   0.3214   0.3313   0.3430   0.3514   0.3570   0.3623
  0.3735   0.3779   0.3853   0.3876   0.3913   0.4040   0.4113   0.4189
  0.4278   0.4409   0.4513   0.4577   0.4597   0.4705   0.4801   0.4849
  0.4918   0.5011   0.5139   0.5153   0.5240   0.5452   0.5482   0.5529
  0.5589   0.5803   0.6015   0.6150   0.6275   0.6421   0.6507   0.6761
  0.6854   0.7084   0.7132   0.7305   0.7388   0.7479   0.7572   0.7682
  0.7740   0.7887   0.7926   0.8026   0.8263   0.8306   0.8377   0.8412
  0.8605   0.8744   0.8803   0.9020   0.9334   0.9434   0.9855   1.0159
  1.0325   1.0500   1.0579   1.0730   1.1218   1.1581   1.1612   1.1742
  1.2429   1.2699   1.2763   1.2911   1.3155   1.3351   1.3625   1.3805
  1.3951   1.4481   1.5185   1.5412   1.6184   1.6845   1.7334   1.7407
  1.7765   1.8216   1.8370   1.8634   1.8825   1.9054   1.9261   1.9323
  1.9441   1.9615   1.9982   2.0044   2.0353   2.0638   2.1088   2.1324
  2.1751   2.2103   2.2145   2.2533   2.3050   2.3160   2.3558   2.3791
  2.4102   2.4429   2.4661   2.4932   2.5213   2.5637   2.6035   2.6173
  2.6218   2.6375   2.6641   2.7153   2.7586   2.8008   2.8304   2.8444
  2.8653   2.8942   2.9280   2.9544   2.9703   3.0462   3.0882   3.1145
  3.1397   3.1772   3.2327   3.2585   3.2859   3.2961   3.3099   3.3362
  3.3632   3.3683   3.4084   3.4277   3.4438   3.4681   3.4862   3.5276
  3.5745   3.5989   3.6119   3.6308   3.6564   3.6966   3.7215   3.7676
  3.8536   3.9258   3.9498   3.9939   4.0520   4.0807   4.1322   4.2045
  4.2671   4.3610   4.4272   4.5001   4.5647   4.6341   4.7031   4.7419
  4.7787   4.8275   4.9496   4.9942   5.0108   5.1984   5.2287   5.2620
  5.3465   5.4190   5.4378   5.5002   5.6270   5.6581   5.7236   5.7991
  5.9852   6.1377   6.2596   6.5203   6.6923   6.7710   6.8385   7.0078
  7.2698   7.3496  22.6757  22.7464  23.5881  32.6875  44.3460
 --------------------------------------------------------------

          Ground-State Mulliken Net Atomic Charges

     Atom                 Charge (a.u.)
  ----------------------------------------
      1 C                    -0.710803
      2 H                     0.235124
      3 C                     0.467895
      4 O                    -0.539978
      5 N                    -0.072087
      6 H                     0.201688
      7 C                    -0.691202
      8 H                     0.241855
      9 H                     0.185783
     10 H                     0.202355
     11 H                     0.264709
     12 H                     0.214660
  ----------------------------------------
  Sum of atomic charges =     0.000000

 -----------------------------------------------------------------
                    Cartesian Multipole Moments
 -----------------------------------------------------------------
    Charge (ESU x 10^10)
                -0.0000
    Dipole Moment (Debye)
         X       2.8720      Y      -2.9478      Z      -0.3248
       Tot       4.1283
    Quadrupole Moments (Debye-Ang)
        XX      34.9928     XY      53.2232     YY    -206.7665
        XZ      79.1021     YZ     -91.6134     ZZ     -46.7077
    Octopole Moments (Debye-Ang^2)
       XXX      50.8319    XXY     684.7187    XYY     262.8661
       YYY  -10634.8752    XXZ     982.5452    XYZ    1460.2871
       YYZ   -6053.9180    XZZ    1844.5650    YZZ   -3669.0024
       ZZZ   -3185.7016
    Hexadecapole Moments (Debye-Ang^3)
      XXXX   -8113.0665   XXXY   -2491.4113   XXYY    5539.2150
      XYYY  -42332.3489   YYYY -478190.0137   XXXZ    1486.7962
      XXYZ   19361.2576   XYYZ    6586.1933   YYYZ -305902.1183
      XXZZ   23611.7485   XYZZ   30111.3144   YYZZ -202306.0536
      XZZZ   31582.5253   YZZZ -158280.8585   ZZZZ -165881.2739
 -----------------------------------------------------------------
Archival summary:
1\1\compute-0-0.local\SP\ProcedureUnspecified\BasisUnspecified\1137\meili\MonMay1010:09:272021MonMay1010:09:272021\0\\#,ProcedureUnspecified,BasisUnspecified,\\0,1\N\H,1,1.02023\C,1,1.34857,2,122.194\O,3,1.23764,1,120.74,2,-173.504,0\C,1,1.4451,2,114.188,3,179.508,0\H,5,1.06985,1,110.521,2,-21.471,0\H,5,1.06991,1,111.882,2,97.369,0\H,5,1.07564,1,105.277,2,-140.833,0\C,3,1.48101,1,118.719,2,-2.53377,0\H,9,1.06977,3,109.668,1,154.769,0\H,9,1.07027,3,109.544,1,-85.3375,0\H,9,1.08801,3,109.164,1,34.6256,0\\\@

 Total job time:  3544.12s(wall), 26800.59s(cpu) 
 Mon May 10 10:09:27 2021

        *************************************************************
        *                                                           *
        *  Thank you very much for using Q-Chem.  Have a nice day.  *
        *                                                           *
        *************************************************************


Done Job For Fragment 0
calling putenv with: QCSCRATCH=/home/meili/scratch 
calling putenv with: QCTHREADS=8 
Creating input file /home/meili/scratch/qchem20324/Frg2.input
using default PutDataFrgm: nothing
calling putenv with: QCSCRATCH=/home/meili/scratch/qchem20324/ 
Spawning Job For Fragment 1
                  Welcome to Q-Chem
     A Quantum Leap Into The Future Of Chemistry


 Q-Chem 5.2 (devel), Q-Chem, Inc., Pleasanton, CA (2019)

 Yihan Shao,  Zhengting Gan,  E. Epifanovsky,  A. T. B. Gilbert,  M. Wormit,  
 J. Kussmann,  A. W. Lange,  A. Behn,  Jia Deng,  Xintian Feng,  D. Ghosh,  
 M. Goldey,  P. R. Horn,  L. D. Jacobson,  I. Kaliman,  T. Kus,  A. Landau,  
 Jie Liu,  E. I. Proynov,  R. M. Richard,  R. P. Steele,  E. J. Sundstrom,  
 H. L. Woodcock III,  P. M. Zimmerman,  D. Zuev,  B. Albrecht,  E. Alguire,  
 S. A. Baeppler,  D. Barton,  Z. Benda,  Y. A. Bernard,  E. J. Berquist,  
 K. B. Bravaya,  H. Burton,  D. Casanova,  Chun-Min Chang,  Yunqing Chen,  
 A. Chien,  K. D. Closser,  M. P. Coons,  S. Coriani,  S. Dasgupta,  
 A. L. Dempwolff,  M. Diedenhofen,  Hainam Do,  R. G. Edgar,  Po-Tung Fang,  
 S. Faraji,  S. Fatehi,  Qingguo Feng,  K. D. Fenk,  J. Fosso-Tande,  
 J. Gayvert,  Qinghui Ge,  A. Ghysels,  G. Gidofalvi,  J. Gomes,  
 J. Gonthier,  A. Gunina,  D. Hait,  M. W. D. Hanson-Heine,  
 P. H. P. Harbach,  A. W. Hauser,  M. F. Herbst,  J. E. Herr,  
 E. G. Hohenstein,  Z. C. Holden,  Kerwin Hui,  B. C. Huynh,  T.-C. Jagau,  
 Hyunjun Ji,  B. Kaduk,  K. Khistyaev,  Jaehoon Kim,  P. Klunzinger,  K. Koh,  
 D. Kosenkov,  L. Koulias,  T. Kowalczyk,  C. M. Krauter,  A. Kunitsa,  
 Ka Un Lao,  A. Laurent,  K. V. Lawler,  Joonho Lee,  D. Lefrancois,  
 S. Lehtola,  D. S. Levine,  Yi-Pei Li,  You-Sheng Lin,  Fenglai Liu,  
 E. Livshits,  A. Luenser,  P. Manohar,  E. Mansoor,  S. F. Manzer,  
 Shan-Ping Mao,  Yuezhi Mao,  N. Mardirossian,  A. V. Marenich,  
 T. Markovich,  L. A. Martinez-Martinez,  S. A. Maurer,  N. J. Mayhall,  
 S. C. McKenzie,  J.-M. Mewes,  P. Morgante,  A. F. Morrison,  
 J. W. Mullinax,  K. Nanda,  T. S. Nguyen-Beck,  R. Olivares-Amaya,  
 J. A. Parkhill,  Zheng Pei,  T. M. Perrine,  F. Plasser,  P. Pokhilko,  
 S. Prager,  A. Prociuk,  E. Ramos,  D. R. Rehn,  F. Rob,  M. Scheurer,  
 M. Schneider,  N. Sergueev,  S. M. Sharada,  S. Sharma,  D. W. Small,  
 T. Stauch,  T. Stein,  Yu-Chuan Su,  A. J. W. Thom,  A. Tkatchenko,  
 T. Tsuchimochi,  N. M. Tubman,  L. Vogt,  M. L. Vidal,  O. Vydrov,  
 M. A. Watson,  J. Wenzel,  M. de Wergifosse,  T. A. Wesolowski,  A. White,  
 J. Witte,  A. Yamada,  Jun Yang,  K. Yao,  S. Yeganeh,  S. R. Yost,  
 Zhi-Qiang You,  A. Zech,  Igor Ying Zhang,  Xing Zhang,  Yan Zhao,  
 Ying Zhu,  B. R. Brooks,  G. K. L. Chan,  C. J. Cramer,  M. S. Gordon,  
 W. J. Hehre,  A. Klamt,  M. W. Schmidt,  C. D. Sherrill,  D. G. Truhlar,  
 A. Aspuru-Guzik,  R. Baer,  A. T. Bell,  N. A. Besley,  Jeng-Da Chai,  
 A. E. DePrince, III,  R. A. DiStasio Jr.,  A. Dreuw,  B. D. Dunietz,  
 T. R. Furlani,  Chao-Ping Hsu,  Yousung Jung,  Jing Kong,  D. S. Lambrecht,  
 WanZhen Liang,  C. Ochsenfeld,  V. A. Rassolov,  L. V. Slipchenko,  
 J. E. Subotnik,  T. Van Voorhis,  J. M. Herbert,  A. I. Krylov,  
 P. M. W. Gill,  M. Head-Gordon

 Contributors to earlier versions of Q-Chem not listed above: 
 R. D. Adamson,  B. Austin,  J. Baker,  G. J. O. Beran,  K. Brandhorst,  
 S. T. Brown,  E. F. C. Byrd,  A. K. Chakraborty,  C.-L. Cheng,  
 Siu Hung Chien,  D. M. Chipman,  D. L. Crittenden,  H. Dachsel,  
 R. J. Doerksen,  A. D. Dutoi,  L. Fusti-Molnar,  W. A. Goddard III,  
 A. Golubeva-Zadorozhnaya,  S. R. Gwaltney,  G. Hawkins,  A. Heyden,  
 S. Hirata,  G. Kedziora,  F. J. Keil,  C. Kelley,  Jihan Kim,  R. A. King,  
 R. Z. Khaliullin,  P. P. Korambath,  W. Kurlancheek,  A. M. Lee,  M. S. Lee,  
 S. V. Levchenko,  Ching Yeh Lin,  D. Liotard,  R. C. Lochan,  I. Lotan,  
 P. E. Maslen,  N. Nair,  D. P. O'Neill,  D. Neuhauser,  E. Neuscamman,  
 C. M. Oana,  R. Olson,  B. Peters,  R. Peverati,  P. A. Pieniazek,  
 Y. M. Rhee,  J. Ritchie,  M. A. Rohrdanz,  E. Rosta,  N. J. Russ,  
 H. F. Schaefer III,  N. E. Schultz,  N. Shenvi,  A. C. Simmonett,  A. Sodt,  
 D. Stuck,  K. S. Thanthiriwatte,  V. Vanovschi,  Tao Wang,  A. Warshel,  
 C. F. Williams,  Q. Wu,  X. Xu,  W. Zhang

 Please cite Q-Chem as follows:
 Y. Shao et al., Mol. Phys. 113, 184-215 (2015)
 DOI: 10.1080/00268976.2014.952696

 Q-Chem 5.2.1 for Intel X86 EM64T Linux

 Parts of Q-Chem use Armadillo 8.300.2 (Tropical Shenanigans).
 http://arma.sourceforge.net/

 Q-Chem begins on Mon May 10 10:09:28 2021  

compute-0-0.local
Host: 0

     Scratch files written to /home/meili/scratch/qchem20324//Frg2//
NAlpha2: 40
NElect   40
Mult     1

Checking the input file for inconsistencies... 	...done.

--------------------------------------------------------------
User input:
--------------------------------------------------------------
$molecule
0 1
 6	16.4650000000	29.7060000000	28.3290000000
 1	15.8710000000	30.0950000000	29.1400000000
 6	15.7510000000	29.8560000000	26.9850000000
 8	15.8300000000	28.9460000000	26.1150000000
 7	15.0990000000	30.9580000000	26.6890000000
 1	14.9760000000	31.5860000000	27.4420000000
 6	14.6790000000	31.4150000000	25.3390000000
 1	14.0490000000	30.6550000000	24.8120000000
 1	17.3920000000	30.2390000000	28.2910000000
 1	16.6300000000	28.6640000000	28.5050000000
 1	14.1150000000	32.3190000000	25.4410000000
 1	15.5620000000	31.5710000000	24.7560000000
$end
$rem
EDA2		1
METHOD		WB97X-V
BASIS		DEF2-TZVPD
XC_GRID		000099000590
NL_GRID		1
UNRESTRICTED		FALSE
MAX_SCF_CYCLES		200
SYMMETRY		FALSE
SYM_IGNORE		TRUE
BASIS_LIN_DEP_THRESH		6
THRESH		14
SCF_CONVERGENCE		8
SCF_PRINT_FRGM		TRUE
!required keywords
JOBTYPE		SP
SYM_IGNORE		TRUE
SUBSYSTEM		TRUE
GEN_SCFMAN		TRUE
CHILD_INSTRUCTION		2
SYM_IGNORE		TRUE
SCFMI		0
RI_K 0		
PARI_K 0		
MIN_PARI_K 0		
IARI_K 0		
OCC_RI_K 0		
PURECART		1111
MEM_STATIC		2000
MEM_TOTAL		2000
GUI		0
CHILD_MP		1
CHILD_MP_ORDERS		232
FRZ_RELAX		0
FRZ_RELAX_METHOD		0
EDA_CLS_ELEC		1
EDA_CLS_DISP		0
FRZ_ORTHO_DECOMP		1
EDA2		FALSE
FRGM_METHOD		FALSE
CIS_N_ROOTS  0
LOCAL_CIS    0
CIS_RLX_DNS  1
$end
--------------------------------------------------------------
 ----------------------------------------------------------------
             Standard Nuclear Orientation (Angstroms)
    I     Atom           X                Y                Z
 ----------------------------------------------------------------
    1      C      16.4650000000    29.7060000000    28.3290000000
    2      H      15.8710000000    30.0950000000    29.1400000000
    3      C      15.7510000000    29.8560000000    26.9850000000
    4      O      15.8300000000    28.9460000000    26.1150000000
    5      N      15.0990000000    30.9580000000    26.6890000000
    6      H      14.9760000000    31.5860000000    27.4420000000
    7      C      14.6790000000    31.4150000000    25.3390000000
    8      H      14.0490000000    30.6550000000    24.8120000000
    9      H      17.3920000000    30.2390000000    28.2910000000
   10      H      16.6300000000    28.6640000000    28.5050000000
   11      H      14.1150000000    32.3190000000    25.4410000000
   12      H      15.5620000000    31.5710000000    24.7560000000
 ----------------------------------------------------------------
 Nuclear Repulsion Energy =         179.35715101 hartrees
 There are       20 alpha and       20 beta electrons
 Requested basis set is def2-TZVPD
 There are 101 shells and 251 basis functions

 Total QAlloc Memory Limit   2000 MB
 Mega-Array Size      1956 MB
 MEM_STATIC part      2000 MB

                       Distance Matrix (Angstroms)
             C (  1)   H (  2)   C (  3)   O (  4)   N (  5)   H (  6)
   H (  2)  1.077904
   C (  3)  1.529259  2.171531
   O (  4)  2.425412  3.236125  1.261444
   N (  5)  2.474482  2.710748  1.314201  2.216299
   H (  6)  2.557008  2.430496  1.949968  3.075686  0.988191
   C (  7)  3.879507  4.196530  2.507784  2.832479  1.485850  2.130741
   H (  8)  4.371149  4.729151  2.873523  2.791138  2.171966  2.939896
   H (  9)  1.069982  1.747850  2.131949  2.974335  2.888116  2.893487
   H ( 10)  1.069563  1.739847  2.122241  2.536065  3.302159  3.521898
   H ( 11)  4.548716  4.659647  3.335686  3.843518  2.092386  2.298393
   H ( 12)  4.130371  4.636110  2.818756  2.968052  2.080055  2.749221
             C (  7)   H (  8)   H (  9)   H ( 10)   H ( 11)
   H (  8)  1.119030
   H (  9)  4.178235  4.842742
   H ( 10)  4.625793  4.925839  1.762687
   H ( 11)  1.070381  1.780138  4.815353  5.391878
   H ( 12)  1.069539  1.769565  4.197541  4.862743  1.767070

 A cutoff of  1.0D-14 yielded   5022 shell pairs
 There are     31588 function pairs (     39733 Cartesian)
 Smallest overlap matrix eigenvalue = 8.18E-06

 Scale SEOQF with 1.000000e-03/1.000000e-03/1.000000e-03

 Standard Electronic Orientation quadrupole field applied
 Nucleus-field energy     =    -0.0000000010 hartrees
 Guess from superposition of atomic densities
 Warning:  Energy on first SCF cycle will be non-variational
 SAD guess density has 40.000000 electrons

 -----------------------------------------------------------------------
  General SCF calculation program by
  Eric Jon Sundstrom, Paul Horn, Yuezhi Mao, Dmitri Zuev, Alec White,
  David Stuck, Shaama M.S., Shane Yost, Joonho Lee, David Small,
  Daniel Levine, Susi Lehtola, Hugh Burton, Evgeny Epifanovsky,
  Bang C. Huynh
 -----------------------------------------------------------------------
 Exchange:     0.1670 Hartree-Fock + 1.0000 wB97X-V + LR-HF
 Correlation:  1.0000 wB97X-V
 Using Euler-Maclaurin-Lebedev (99,590) quadrature formula
 Nonlocal Correlation:  VV10 with C = 0.0100 and b = 6.00 and scale = 1.00000
 Grid used for NLC:  SG-1 standard quadrature
Energy prior to optimization (guess energy) = -248.407928371949
Begin Timing: Total SCF Calculation
begin iterations for algorithm: DIIS         
the SCF tolerance is set to 1.00e-08
    1    -248.4079283719      4.36e-03     00000 
    2    -248.3234670410      6.22e-03     00000 
    3    -248.5344037657      5.18e-04     00000 
    4    -248.5360179398      2.32e-04     00000 
    5    -248.5363728585      5.47e-05     00000 
    6    -248.5363999478      2.04e-05     00000 
    7    -248.5364051165      5.62e-06     00000 
    8    -248.5364058134      1.72e-06     00000 
    9    -248.5364058647      6.14e-07     00000 
   10    -248.5364058691      1.34e-07     00000 
   11    -248.5364058694      2.29e-08     00000 
   12    -248.5364058694      6.05e-09     00000 Convergence criterion met
Timing for Total SCF: 184.00s (wall), 1408.09s (cpu)
Multipole orders to be included
        2
        3
computing dipole RHS
computing quadrupole RHS
total number of RHS in solve_reponses: 8
RHS batch sizes
        8
Beginning Block Conjugate Gradient Iterations. Batch Number: 0
computing hessian-vector products by finite difference
              1      4.80e-01     00000 Conjugate Gradient Iteration
computing hessian-vector products by finite difference
              2      1.64e-01     00000 Conjugate Gradient Iteration
computing hessian-vector products by finite difference
              3      4.25e-02     00000 Conjugate Gradient Iteration
computing hessian-vector products by finite difference
              4      1.06e-02     00000 Conjugate Gradient Iteration
computing hessian-vector products by finite difference
              5      1.91e-03     00000 Conjugate Gradient Iteration
computing hessian-vector products by finite difference
              6      3.87e-04     00000 Conjugate Gradient Iteration
computing hessian-vector products by finite difference
              7      5.78e-05     00000 Conjugate Gradient Iteration
computing hessian-vector products by finite difference
              8      7.29e-06     00000 Conjugate Gradient Iteration
computing hessian-vector products by finite difference
              9      1.22e-06     00000 Conjugate Gradient Iteration
computing hessian-vector products by finite difference
             10      1.89e-07     00000 Conjugate Gradient Iteration
computing hessian-vector products by finite difference
             11      2.64e-08     00000 Conjugate Gradient Iteration
computing hessian-vector products by finite difference
             12      4.65e-09     00000 CG Converged
batch 0 complete
Done Calculating Responses
TESTING ORTHOGONALIZATION OF MULTIPOLE BASIS
Multipole virts passed orthogonality test
Virts Per Order
           60
          100

 --------------------------------------------------------------

                    Orbital Energies (a.u.)
 --------------------------------------------------------------

 Alpha MOs
 -- Occupied --
-19.1577 -14.4387 -10.3660 -10.3095 -10.2716  -1.1482  -1.0490  -0.8875
 -0.8316  -0.7054  -0.6252  -0.5825  -0.5753  -0.5428  -0.5214  -0.5093
 -0.4871  -0.4594  -0.3559  -0.3464
 -- Virtual --
  0.0542   0.0761   0.0932   0.1045   0.1091   0.1235   0.1347   0.1399
  0.1560   0.1610   0.1671   0.1779   0.1895   0.1977   0.2067   0.2233
  0.2369   0.2385   0.2530   0.2672   0.2719   0.2787   0.2851   0.2909
  0.3062   0.3100   0.3170   0.3296   0.3386   0.3514   0.3542   0.3576
  0.3694   0.3772   0.3798   0.3854   0.3877   0.4041   0.4081   0.4154
  0.4306   0.4351   0.4478   0.4515   0.4558   0.4672   0.4714   0.4838
  0.4897   0.5024   0.5060   0.5127   0.5266   0.5363   0.5405   0.5581
  0.5594   0.5710   0.5993   0.6108   0.6288   0.6392   0.6559   0.6684
  0.6872   0.7050   0.7131   0.7206   0.7270   0.7424   0.7439   0.7669
  0.7750   0.7817   0.7924   0.8067   0.8191   0.8269   0.8391   0.8502
  0.8536   0.8627   0.8917   0.9015   0.9345   0.9651   0.9902   1.0149
  1.0165   1.0546   1.0561   1.0754   1.1164   1.1508   1.1595   1.1889
  1.2112   1.2399   1.2623   1.2842   1.3126   1.3425   1.3547   1.3810
  1.3885   1.4345   1.5249   1.5437   1.6119   1.6973   1.7226   1.7338
  1.7724   1.8373   1.8552   1.8594   1.8728   1.8913   1.9132   1.9267
  1.9365   1.9529   1.9873   2.0180   2.0395   2.0557   2.0955   2.1286
  2.1570   2.1879   2.2009   2.2565   2.2846   2.3300   2.3323   2.3767
  2.4071   2.4079   2.4382   2.4962   2.5100   2.5660   2.5781   2.5930
  2.6148   2.6339   2.6683   2.6747   2.7722   2.7961   2.8209   2.8368
  2.8455   2.8786   2.9372   2.9494   2.9870   3.0149   3.0521   3.1398
  3.1670   3.1836   3.2132   3.2332   3.2883   3.3091   3.3131   3.3258
  3.3434   3.3687   3.3830   3.4238   3.4294   3.4627   3.4980   3.5036
  3.5385   3.5708   3.6043   3.6263   3.6464   3.6765   3.7053   3.7238
  3.8412   3.8741   3.9139   3.9976   4.0352   4.0605   4.1536   4.1649
  4.2668   4.3250   4.3768   4.4729   4.5524   4.6051   4.6873   4.6983
  4.7198   4.8450   4.9550   4.9749   5.0039   5.1724   5.2505   5.2749
  5.3536   5.4121   5.4398   5.5019   5.6429   5.6814   5.7421   5.7845
  5.9715   6.1376   6.2092   6.4735   6.6804   6.7443   6.8229   7.0035
  7.2633   7.3443  22.6380  22.6504  23.5612  32.6969  44.3353
 --------------------------------------------------------------

          Ground-State Mulliken Net Atomic Charges

     Atom                 Charge (a.u.)
  ----------------------------------------
      1 C                    -0.731114
      2 H                     0.269122
      3 C                     0.489488
      4 O                    -0.564531
      5 N                    -0.072431
      6 H                     0.191082
      7 C                    -0.630991
      8 H                     0.213834
      9 H                     0.195176
     10 H                     0.186610
     11 H                     0.244442
     12 H                     0.209315
  ----------------------------------------
  Sum of atomic charges =     0.000000

 -----------------------------------------------------------------
                    Cartesian Multipole Moments
 -----------------------------------------------------------------
    Charge (ESU x 10^10)
                 0.0000
    Dipole Moment (Debye)
         X      -0.7266      Y       3.8343      Z       1.9594
       Tot       4.3668
    Quadrupole Moments (Debye-Ang)
        XX     -52.7825     XY      36.8536     YY     199.0257
        XZ      13.0545     YZ     158.3999     ZZ      76.0589
    Octopole Moments (Debye-Ang^2)
       XXX   -1935.2706    XXY    -691.7408    XYY    2377.7986
       YYY    7546.4547    XXZ    -874.4659    XYZ    1913.9995
       YYZ    6914.3635    XZZ     768.7353    YZZ    4864.0764
       ZZZ    1901.0026
    Hexadecapole Moments (Debye-Ang^3)
      XXXX  -54854.1044   XXXY  -44538.7658   XXYY   -1708.3786
      XYYY   94712.1961   YYYY  244731.1459   XXXZ  -42954.8311
      XXYZ   -3102.4454   XYYZ   90097.0365   YYYZ  247203.4023
      XXZZ  -16106.9218   XYZZ   62497.4385   YYZZ  201318.5474
      XZZZ   19752.1676   YZZZ  123846.0943   ZZZZ   26605.0149
 -----------------------------------------------------------------
Archival summary:
1\1\compute-0-0.local\SP\ProcedureUnspecified\BasisUnspecified\1137\meili\MonMay1011:11:272021MonMay1011:11:272021\0\\#,ProcedureUnspecified,BasisUnspecified,\\0,1\N\H,1,0.988191\C,1,1.3142,2,115.025\O,3,1.26144,1,118.728,2,172.879,0\C,1,1.48585,2,117.496,3,-173.18,0\H,5,1.06954,1,107.864,2,109.643,0\H,5,1.07038,1,108.791,2,-11.2466,0\H,5,1.11903,1,112.218,2,-131.657,0\C,3,1.52926,1,120.786,2,-10.358,0\H,9,1.06956,3,108.192,1,160.795,0\H,9,1.06998,3,108.931,1,-78.5054,0\H,9,1.0779,3,111.626,1,41.8175,0\\\@

 Total job time:  3719.77s(wall), 28483.88s(cpu) 
 Mon May 10 11:11:27 2021

        *************************************************************
        *                                                           *
        *  Thank you very much for using Q-Chem.  Have a nice day.  *
        *                                                           *
        *************************************************************


Done Job For Fragment 1
calling putenv with: QCSCRATCH=/home/meili/scratch 
calling putenv with: QCTHREADS=8 
Doing General SCFMI
 Exchange:     0.1670 Hartree-Fock + 1.0000 wB97X-V + LR-HF
 Correlation:  1.0000 wB97X-V
 Using Euler-Maclaurin-Lebedev (99,590) quadrature formula
 Nonlocal Correlation:  VV10 with C = 0.0100 and b = 6.00 and scale = 1.00000
 Grid used for NLC:  SG-1 standard quadrature
performing fock build before subrot guess so that all methods have access
Printing subrot_rss_gen Method Specification:
Occupied Subspace Method is 0
Virtual Subspace Method is 0
Energy of the unrelaxed supersystem initial determinant -497.081299907238
write pseudocanon occs and virts to disk
write pseudocanon orbital energies to disk
Tolerance of ortho_decomp_scf: 1.00e-06
GDM subspace size: 20
Beginning the Orthogonal Decomposition of the Initial Supersystem Wavefunction
    1    -497.0681193819      1.61e-02     ortho_decomp Preconditoned Steepest Descent
    2    -497.0689271425      4.23e-04     ortho_decomp BFGS Step
    3    -497.0689294921      2.45e-05     ortho_decomp BFGS Step
    4    -497.0689294949      1.02e-06     ortho_decomp BFGS Step
    5    -497.0689294949      4.25e-08     ortho_decomp 00000 Convergence criterion met
 Hartree-Fock
 Hartree-Fock
 Hartree-Fock
Doing General SCFMI
 Exchange:     0.1670 Hartree-Fock + 1.0000 wB97X-V + LR-HF
 Correlation:  1.0000 wB97X-V
 Using Euler-Maclaurin-Lebedev (99,590) quadrature formula
 Nonlocal Correlation:  VV10 with C = 0.0100 and b = 6.00 and scale = 1.00000
 Grid used for NLC:  SG-1 standard quadrature
performing fock build at end of subrot_r(subrot) constructor so that all methods have access
<S^2> of initial wavefunction before polarization iterations 0.0000000000
Beginning iterations for the determination of the polarized wavefunction
Energy prior to optimization (guess energy) = -497.081299907238
Begin Timing: Total SCF Calculation
begin iterations for algorithm: DIIS         
the SCF tolerance is set to 1.00e-08
    1    -497.0812999072      8.52e-05     00000 
    2    -497.0818340422      3.57e-05     00000 
    3    -497.0818822714      1.71e-05     00000 
    4    -497.0818943993      8.43e-06     00000 
    5    -497.0818970372      3.29e-06     00000 
    6    -497.0818976055      1.75e-06     00000 
    7    -497.0818977699      6.17e-07     00000 
    8    -497.0818977946      2.43e-07     00000 
    9    -497.0818977975      9.88e-08     00000 
   10    -497.0818977979      5.05e-08     00000 
   11    -497.0818977980      3.09e-08     00000 
   12    -497.0818977980      8.09e-09     00000 Convergence criterion met
write pseudocanon occs and virts to disk
write pseudocanon orbital energies to disk
Timing for Total SCF: 1473.00s (wall), 11496.34s (cpu)
<S^2> of polarized wavefunction after polarization iterations 0.0000000000
relaxing scfmi constraint to allow all rotations in the entire AO span
Doing General SCFMI
 Exchange:     0.1670 Hartree-Fock + 1.0000 wB97X-V + LR-HF
 Correlation:  1.0000 wB97X-V
 Using Euler-Maclaurin-Lebedev (99,590) quadrature formula
 Nonlocal Correlation:  VV10 with C = 0.0100 and b = 6.00 and scale = 1.00000
 Grid used for NLC:  SG-1 standard quadrature
performing fock build at end of subrot_r(subrot) constructor so that all methods have access
<S^2> of polarized wavefunction before ct-allowed iterations 0.0000000000
Beginning iterations for the determination of the CT-Allowed wavefunction
Energy prior to optimization (guess energy) = -497.081897797984
Begin Timing: Total SCF Calculation
begin iterations for algorithm: DIIS         
the SCF tolerance is set to 1.00e-08
    1    -497.0818977980      7.31e-05     00000 
    2    -497.0824685537      6.90e-06     00000 
    3    -497.0824824789      1.03e-06     00000 
    4    -497.0824828189      4.99e-07     00000 
    5    -497.0824828426      1.79e-07     00000 
    6    -497.0824828460      7.58e-08     00000 
    7    -497.0824828466      1.33e-08     00000 
    8    -497.0824828467      5.79e-09     00000 Convergence criterion met
write pseudocanon occs and virts to disk
write pseudocanon orbital energies to disk
Timing for Total SCF: 872.00s (wall), 6726.89s (cpu)
<S^2> of ct_allowed wavefunction after ct-allowed iterations 0.0000000000

================================
        Results of EDA2         
================================
Basic EDA Quantities
--------------------
Fragment Energies (Ha):
1 -248.5412690159
2 -248.5364058694
--------------------
  E_prp (kJ/mol) = 0.0000
  E_frz (kJ/mol) = -9.5176
  E_pol (kJ/mol) = -1.5698
  E_vct (kJ/mol) = -1.5361
  E_int (kJ/mol) = -12.6235
--------------------


Initial Wavefunction Decomposition
--------------------
  --------------------
  Orthogonal Fragment Subspace Decomposition:
  --------------------
     E_elec   (ELEC)   (kJ/mol) = -14.0671
     E_pauli  (PAULI)  (kJ/mol) = 17.4189
     E_disp   (DISP)   (kJ/mol) = -12.8694
     --------------------
     Terms summing to E_pauli:
     --------------------
        E_kep_pauli       (kJ/mol) = 22.9613
        E_disp_free_pauli (kJ/mol) = -5.5424
  --------------------
  Classical Frozen Decomposition:
  --------------------
     E_cls_elec  (CLS ELEC)  (kJ/mol) = -6.2657
     E_cls_pauli (CLS PAULI) (kJ/mol) = -3.2519
    [E_mod_pauli (MOD PAULI) (kJ/mol) = 9.6174 (CLS PAULI - DISP from orthogonal decomposition) ]
  --------------------
--------------------

Simplified EDA Summary (kJ/mol)
--------------------
 PREPARATION     0.0000
 FROZEN          3.3518      (does not include dispersion)
[PAULI           17.4189]     (if this is negligible, then frozen describes electrostatics)
 DISPERSION      -12.8694
 POLARIZATION    -1.5698
 CHARGE TRANSFER -1.5361
 TOTAL           -12.6235     (PRP + FRZ + DISP + POL + CT)
--------------------

 --------------------------------------------------------------

                    Orbital Energies (a.u.)
 --------------------------------------------------------------

 Alpha MOs
 -- Occupied --
-19.1671 -19.1669 -14.4459 -14.4373 -10.3748 -10.3688 -10.3137 -10.2916
-10.2813 -10.2740  -1.1599  -1.1570  -1.0567  -1.0523  -0.8988  -0.8953
 -0.8381  -0.8239  -0.7123  -0.7067  -0.6323  -0.6263  -0.5964  -0.5866
 -0.5836  -0.5796  -0.5512  -0.5451  -0.5279  -0.5196  -0.5162  -0.5134
 -0.4955  -0.4923  -0.4685  -0.4612  -0.3647  -0.3593  -0.3560  -0.3537
 -- Virtual --
  0.0445   0.0652   0.0704   0.0752   0.0907   0.0929   0.0962   0.1035
  0.1080   0.1094   0.1191   0.1303   0.1339   0.1365   0.1436   0.1491
  0.1555   0.1577   0.1607   0.1682   0.1774   0.1826   0.1867   0.1939
  0.1984   0.2054   0.2137   0.2235   0.2251   0.2273   0.2360   0.2467
  0.2498   0.2512   0.2588   0.2602   0.2680   0.2703   0.2761   0.2816
  0.2841   0.2894   0.2935   0.3059   0.3094   0.3106   0.3157   0.3172
  0.3249   0.3309   0.3341   0.3363   0.3411   0.3473   0.3497   0.3527
  0.3573   0.3634   0.3656   0.3675   0.3725   0.3755   0.3813   0.3835
  0.3890   0.3916   0.3980   0.3994   0.4028   0.4081   0.4116   0.4145
  0.4181   0.4258   0.4315   0.4353   0.4405   0.4477   0.4513   0.4546
  0.4570   0.4633   0.4671   0.4780   0.4798   0.4833   0.4895   0.4926
  0.4969   0.4989   0.5025   0.5065   0.5143   0.5199   0.5269   0.5299
  0.5304   0.5365   0.5400   0.5457   0.5542   0.5555   0.5634   0.5669
  0.5738   0.5817   0.5835   0.5877   0.5962   0.6016   0.6062   0.6138
  0.6206   0.6285   0.6346   0.6444   0.6495   0.6546   0.6633   0.6676
  0.6749   0.6824   0.6866   0.6954   0.7062   0.7125   0.7147   0.7225
  0.7304   0.7337   0.7398   0.7479   0.7513   0.7542   0.7589   0.7696
  0.7720   0.7787   0.7790   0.7858   0.7901   0.7929   0.7985   0.8044
  0.8127   0.8222   0.8235   0.8269   0.8316   0.8384   0.8409   0.8526
  0.8627   0.8643   0.8741   0.8816   0.8888   0.8921   0.8964   0.9008
  0.9177   0.9188   0.9307   0.9396   0.9534   0.9620   0.9693   0.9812
  0.9933   1.0038   1.0174   1.0209   1.0393   1.0479   1.0567   1.0698
  1.0725   1.0859   1.0972   1.1011   1.1126   1.1239   1.1319   1.1481
  1.1635   1.1724   1.1778   1.1996   1.2041   1.2055   1.2177   1.2416
  1.2447   1.2769   1.2838   1.3064   1.3098   1.3189   1.3364   1.3517
  1.3598   1.3637   1.3716   1.3866   1.3951   1.4023   1.4229   1.4377
  1.4574   1.4699   1.4872   1.4935   1.5473   1.5538   1.5950   1.6229
  1.6439   1.6527   1.6987   1.7198   1.7498   1.7604   1.7700   1.7915
  1.8035   1.8154   1.8646   1.8728   1.8775   1.8848   1.8956   1.9086
  1.9108   1.9204   1.9363   1.9382   1.9456   1.9542   1.9568   1.9646
  1.9801   1.9874   1.9964   2.0098   2.0194   2.0294   2.0418   2.0514
  2.0728   2.0872   2.0907   2.1258   2.1401   2.1495   2.1549   2.1572
  2.1931   2.2172   2.2208   2.2280   2.2392   2.2559   2.2743   2.2893
  2.3118   2.3440   2.3512   2.3602   2.3706   2.3958   2.4012   2.4247
  2.4296   2.4465   2.4620   2.4721   2.4931   2.5000   2.5259   2.5315
  2.5534   2.5740   2.5868   2.5955   2.6090   2.6342   2.6404   2.6464
  2.6615   2.6664   2.6900   2.7033   2.7038   2.7195   2.7345   2.7498
  2.7759   2.8096   2.8241   2.8292   2.8384   2.8567   2.8691   2.8736
  2.8871   2.8958   2.9138   2.9340   2.9474   2.9639   2.9744   2.9772
  2.9997   3.0178   3.0715   3.0848   3.1043   3.1381   3.1534   3.1627
  3.1883   3.1998   3.2021   3.2224   3.2295   3.2589   3.2737   3.2831
  3.2995   3.3165   3.3285   3.3323   3.3353   3.3507   3.3544   3.3773
  3.3786   3.3897   3.4015   3.4040   3.4068   3.4279   3.4399   3.4411
  3.4512   3.4699   3.4770   3.4971   3.5027   3.5209   3.5255   3.5459
  3.5554   3.5805   3.5872   3.6179   3.6243   3.6388   3.6502   3.6715
  3.6838   3.6934   3.7136   3.7214   3.7328   3.7475   3.7668   3.7937
  3.8554   3.8722   3.8964   3.9201   3.9439   3.9729   4.0148   4.0185
  4.0458   4.0586   4.0654   4.1067   4.1410   4.1671   4.1714   4.2276
  4.2749   4.2942   4.3349   4.3763   4.4063   4.4392   4.4820   4.5281
  4.5781   4.5949   4.6169   4.6593   4.7010   4.7106   4.7218   4.7298
  4.7595   4.7968   4.8443   4.8538   4.9685   4.9772   4.9915   5.0129
  5.0283   5.0485   5.1769   5.2116   5.2512   5.2542   5.2774   5.2964
  5.3494   5.3579   5.4176   5.4317   5.4503   5.4592   5.5071   5.5268
  5.6375   5.6510   5.6729   5.6876   5.7421   5.7431   5.7871   5.8012
  5.9727   5.9963   6.1518   6.1596   6.2080   6.2613   6.4740   6.5265
  6.6910   6.7005   6.7411   6.7749   6.8283   6.8480   7.0210   7.0270
  7.2653   7.2765   7.3436   7.3574  22.6701  22.6852  22.7227  22.7674
 23.5760  23.6078  32.7214  32.7610  44.4210  44.4445
 --------------------------------------------------------------

          Ground-State Mulliken Net Atomic Charges

     Atom                 Charge (a.u.)
  ----------------------------------------
      1 C                    -0.395163
      2 H                    -0.104376
      3 C                     0.435333
      4 O                    -0.548601
      5 N                    -0.015438
      6 H                     0.201909
      7 C                    -0.753159
      8 H                     0.250053
      9 H                     0.209172
     10 H                     0.178160
     11 H                     0.283678
     12 H                     0.225033
     13 C                    -0.741339
     14 H                     0.210307
     15 C                     0.490818
     16 O                    -0.586950
     17 N                     0.004238
     18 H                     0.209686
     19 C                    -0.670840
     20 H                     0.205455
     21 H                     0.228286
     22 H                     0.184042
     23 H                     0.264358
     24 H                     0.235342
  ----------------------------------------
  Sum of atomic charges =     0.000000

 -----------------------------------------------------------------
                    Cartesian Multipole Moments
 -----------------------------------------------------------------
    Charge (ESU x 10^10)
                 0.0000
    Dipole Moment (Debye)
         X       2.1704      Y       0.8417      Z       1.4250
       Tot       2.7294
    Quadrupole Moments (Debye-Ang)
        XX     -16.8077     XY      90.7696     YY     -10.1644
        XZ      89.9098     YZ      58.9595     ZZ      17.9264
    Octopole Moments (Debye-Ang^2)
       XXX   -1856.1165    XXY      29.0591    XYY    2663.1475
       YYY   -3185.5855    XXZ      93.8863    XYZ    3300.9775
       YYZ     585.8633    XZZ    2472.1495    YZZ     801.5122
       ZZZ   -1752.5899
    Hexadecapole Moments (Debye-Ang^3)
      XXXX  -62257.8255   XXXY  -45988.2248   XXYY    5157.4396
      XYYY   53211.2494   YYYY -236868.9673   XXXZ  -41267.9519
      XXYZ   15955.2679   XYYZ   94390.3118   YYYZ  -67939.7247
      XXZZ    6000.9560   XYZZ   88094.2866   YYZZ  -14166.3966
      XZZZ   45295.3461   YZZZ  -50105.8958   ZZZZ -156337.6385
 -----------------------------------------------------------------
Archival summary:
1\1\compute-0-0.local\SP\ProcedureUnspecified\BasisUnspecified\22614\meili\MonMay1012:21:092021MonMay1012:21:092021\0\\#,ProcedureUnspecified,BasisUnspecified,\\0,1\N\H,1,0.988191\C,1,1.3142,2,115.025\O,3,1.26144,1,118.728,2,172.879,0\C,1,1.48585,2,117.496,3,-173.18,0\H,5,1.06954,1,107.864,2,109.643,0\H,5,1.07038,1,108.791,2,-11.2466,0\H,5,1.11903,1,112.218,2,-131.657,0\C,3,1.52926,1,120.786,2,-10.358,0\H,9,1.06956,3,108.192,1,160.795,0\H,9,1.06998,3,108.931,1,-78.5054,0\H,9,1.0779,3,111.626,1,41.8175,0\H,12,2.17886,9,131.301,3,36.6168,0\C,13,1.08801,12,160.324,9,-138.22,0\H,14,1.06977,13,109.645,12,6.73464,0\H,14,1.07027,13,109.558,12,-113.153,0\C,14,1.48101,13,109.164,12,126.893,0\O,17,1.23764,14,119.921,13,-154.328,0\N,17,1.34857,14,118.719,13,34.6256,0\H,19,1.02023,17,122.194,14,-2.53377,0\C,19,1.4451,17,123.616,14,178.006,0\H,21,1.06985,19,110.521,17,158.029,0\H,21,1.06991,19,111.882,17,-83.1313,0\H,21,1.07564,19,105.277,17,38.6666,0\\\@

 Total job time:  11513.62s(wall), 32515.72s(cpu) 
 Mon May 10 12:21:09 2021

        *************************************************************
        *                                                           *
        *  Thank you very much for using Q-Chem.  Have a nice day.  *
        *                                                           *
        *************************************************************


