                  Welcome to Q-Chem
     A Quantum Leap Into The Future Of Chemistry


 Q-Chem 5.2 (devel), Q-Chem, Inc., Pleasanton, CA (2019)

 Yihan Shao,  Zhengting Gan,  E. Epifanovsky,  A. T. B. Gilbert,  M. Wormit,  
 J. Kussmann,  A. W. Lange,  A. Behn,  Jia Deng,  Xintian Feng,  D. Ghosh,  
 M. Goldey,  P. R. Horn,  L. D. Jacobson,  I. Kaliman,  T. Kus,  A. Landau,  
 Jie Liu,  E. I. Proynov,  R. M. Richard,  R. P. Steele,  E. J. Sundstrom,  
 H. L. Woodcock III,  P. M. Zimmerman,  D. Zuev,  B. Albrecht,  E. Alguire,  
 S. A. Baeppler,  D. Barton,  Z. Benda,  Y. A. Bernard,  E. J. Berquist,  
 K. B. Bravaya,  H. Burton,  D. Casanova,  Chun-Min Chang,  Yunqing Chen,  
 A. Chien,  K. D. Closser,  M. P. Coons,  S. Coriani,  S. Dasgupta,  
 A. L. Dempwolff,  M. Diedenhofen,  Hainam Do,  R. G. Edgar,  Po-Tung Fang,  
 S. Faraji,  S. Fatehi,  Qingguo Feng,  K. D. Fenk,  J. Fosso-Tande,  
 J. Gayvert,  Qinghui Ge,  A. Ghysels,  G. Gidofalvi,  J. Gomes,  
 J. Gonthier,  A. Gunina,  D. Hait,  M. W. D. Hanson-Heine,  
 P. H. P. Harbach,  A. W. Hauser,  M. F. Herbst,  J. E. Herr,  
 E. G. Hohenstein,  Z. C. Holden,  Kerwin Hui,  B. C. Huynh,  T.-C. Jagau,  
 Hyunjun Ji,  B. Kaduk,  K. Khistyaev,  Jaehoon Kim,  P. Klunzinger,  K. Koh,  
 D. Kosenkov,  L. Koulias,  T. Kowalczyk,  C. M. Krauter,  A. Kunitsa,  
 Ka Un Lao,  A. Laurent,  K. V. Lawler,  Joonho Lee,  D. Lefrancois,  
 S. Lehtola,  D. S. Levine,  Yi-Pei Li,  You-Sheng Lin,  Fenglai Liu,  
 E. Livshits,  A. Luenser,  P. Manohar,  E. Mansoor,  S. F. Manzer,  
 Shan-Ping Mao,  Yuezhi Mao,  N. Mardirossian,  A. V. Marenich,  
 T. Markovich,  L. A. Martinez-Martinez,  S. A. Maurer,  N. J. Mayhall,  
 S. C. McKenzie,  J.-M. Mewes,  P. Morgante,  A. F. Morrison,  
 J. W. Mullinax,  K. Nanda,  T. S. Nguyen-Beck,  R. Olivares-Amaya,  
 J. A. Parkhill,  Zheng Pei,  T. M. Perrine,  F. Plasser,  P. Pokhilko,  
 S. Prager,  A. Prociuk,  E. Ramos,  D. R. Rehn,  F. Rob,  M. Scheurer,  
 M. Schneider,  N. Sergueev,  S. M. Sharada,  S. Sharma,  D. W. Small,  
 T. Stauch,  T. Stein,  Yu-Chuan Su,  A. J. W. Thom,  A. Tkatchenko,  
 T. Tsuchimochi,  N. M. Tubman,  L. Vogt,  M. L. Vidal,  O. Vydrov,  
 M. A. Watson,  J. Wenzel,  M. de Wergifosse,  T. A. Wesolowski,  A. White,  
 J. Witte,  A. Yamada,  Jun Yang,  K. Yao,  S. Yeganeh,  S. R. Yost,  
 Zhi-Qiang You,  A. Zech,  Igor Ying Zhang,  Xing Zhang,  Yan Zhao,  
 Ying Zhu,  B. R. Brooks,  G. K. L. Chan,  C. J. Cramer,  M. S. Gordon,  
 W. J. Hehre,  A. Klamt,  M. W. Schmidt,  C. D. Sherrill,  D. G. Truhlar,  
 A. Aspuru-Guzik,  R. Baer,  A. T. Bell,  N. A. Besley,  Jeng-Da Chai,  
 A. E. DePrince, III,  R. A. DiStasio Jr.,  A. Dreuw,  B. D. Dunietz,  
 T. R. Furlani,  Chao-Ping Hsu,  Yousung Jung,  Jing Kong,  D. S. Lambrecht,  
 WanZhen Liang,  C. Ochsenfeld,  V. A. Rassolov,  L. V. Slipchenko,  
 J. E. Subotnik,  T. Van Voorhis,  J. M. Herbert,  A. I. Krylov,  
 P. M. W. Gill,  M. Head-Gordon

 Contributors to earlier versions of Q-Chem not listed above: 
 R. D. Adamson,  B. Austin,  J. Baker,  G. J. O. Beran,  K. Brandhorst,  
 S. T. Brown,  E. F. C. Byrd,  A. K. Chakraborty,  C.-L. Cheng,  
 Siu Hung Chien,  D. M. Chipman,  D. L. Crittenden,  H. Dachsel,  
 R. J. Doerksen,  A. D. Dutoi,  L. Fusti-Molnar,  W. A. Goddard III,  
 A. Golubeva-Zadorozhnaya,  S. R. Gwaltney,  G. Hawkins,  A. Heyden,  
 S. Hirata,  G. Kedziora,  F. J. Keil,  C. Kelley,  Jihan Kim,  R. A. King,  
 R. Z. Khaliullin,  P. P. Korambath,  W. Kurlancheek,  A. M. Lee,  M. S. Lee,  
 S. V. Levchenko,  Ching Yeh Lin,  D. Liotard,  R. C. Lochan,  I. Lotan,  
 P. E. Maslen,  N. Nair,  D. P. O'Neill,  D. Neuhauser,  E. Neuscamman,  
 C. M. Oana,  R. Olson,  B. Peters,  R. Peverati,  P. A. Pieniazek,  
 Y. M. Rhee,  J. Ritchie,  M. A. Rohrdanz,  E. Rosta,  N. J. Russ,  
 H. F. Schaefer III,  N. E. Schultz,  N. Shenvi,  A. C. Simmonett,  A. Sodt,  
 D. Stuck,  K. S. Thanthiriwatte,  V. Vanovschi,  Tao Wang,  A. Warshel,  
 C. F. Williams,  Q. Wu,  X. Xu,  W. Zhang

 Please cite Q-Chem as follows:
 Y. Shao et al., Mol. Phys. 113, 184-215 (2015)
 DOI: 10.1080/00268976.2014.952696

 Q-Chem 5.2.1 for Intel X86 EM64T Linux

 Parts of Q-Chem use Armadillo 8.300.2 (Tropical Shenanigans).
 http://arma.sourceforge.net/

 Q-Chem begins on Mon May 10 09:09:13 2021  

compute-0-14.local
Host: 0

     Scratch files written to /home/meili/scratch/qchem54611//
NAlpha2: 80
NElect   80
Mult     1

 Q-Chem warning in module libgen/rem_setup.C, line 2813:

 Neither GIA nor STOLL is specified by user. Use STOLL as the default


Checking the input file for inconsistencies... 	...done.

--------------------------------------------------------------
User input:
--------------------------------------------------------------
$comment
1vex_ff99sbtip3p_nvt_e5_100ns_m3001_001GLY_002SER_040CYX_041ASN.pdb
$end

$molecule
0 1
--
0 1
C    13.1290000000   30.9670000000   11.4960000000
H    13.4440000000   31.8640000000   11.0410000000
C    12.8200000000   29.8280000000   10.4630000000
O    11.8840000000   29.1170000000   10.7200000000
N    13.5830000000   29.7550000000    9.3660000000
H    14.4020000000   30.3630000000    9.3130000000
C    13.3850000000   28.9010000000    8.2760000000
H    12.3670000000   28.5770000000    8.2200000000
H    13.9020000000   30.6290000000   12.1540000000
H    12.2200000000   31.1770000000   12.0200000000
H    13.6360000000   29.4210000000    7.3750000000
H    14.0090000000   28.0410000000    8.4010000000
--
0 1
C    16.4060000000   27.3910000000   13.6470000000
H    15.8890000000   27.3350000000   12.6940000000
C    15.4010000000   27.5740000000   14.8150000000
O    15.7110000000   28.1680000000   15.8420000000
N    14.2390000000   26.9570000000   14.6130000000
H    14.0880000000   26.5990000000   13.6980000000
C    13.0900000000   27.0030000000   15.6890000000
H    13.2380000000   27.9160000000   16.2270000000
H    17.0790000000   28.2220000000   13.6310000000
H    16.9420000000   26.4770000000   13.7980000000
H    13.1620000000   26.1640000000   16.3490000000
H    12.1210000000   26.9620000000   15.2370000000
$end

$rem
JOBTYPE			EDA
EDA2			1
method			wB97X-V
BASIS			def2-TZVPD
XC_GRID			000099000590
NL_GRID			1
UNRESTRICTED		FALSE
MAX_SCF_CYCLES		200
SYMMETRY		FALSE
SYM_IGNORE		TRUE
MEM_STATIC		2000
BASIS_LIN_DEP_THRESH 	6
THRESH 			14
SCF_CONVERGENCE 	8
SCF_PRINT_FRGM 		TRUE
$end
--------------------------------------------------------------
 ----------------------------------------------------------------
             Standard Nuclear Orientation (Angstroms)
    I     Atom           X                Y                Z
 ----------------------------------------------------------------
    1      C      13.1290000000    30.9670000000    11.4960000000
    2      H      13.4440000000    31.8640000000    11.0410000000
    3      C      12.8200000000    29.8280000000    10.4630000000
    4      O      11.8840000000    29.1170000000    10.7200000000
    5      N      13.5830000000    29.7550000000     9.3660000000
    6      H      14.4020000000    30.3630000000     9.3130000000
    7      C      13.3850000000    28.9010000000     8.2760000000
    8      H      12.3670000000    28.5770000000     8.2200000000
    9      H      13.9020000000    30.6290000000    12.1540000000
   10      H      12.2200000000    31.1770000000    12.0200000000
   11      H      13.6360000000    29.4210000000     7.3750000000
   12      H      14.0090000000    28.0410000000     8.4010000000
   13      C      16.4060000000    27.3910000000    13.6470000000
   14      H      15.8890000000    27.3350000000    12.6940000000
   15      C      15.4010000000    27.5740000000    14.8150000000
   16      O      15.7110000000    28.1680000000    15.8420000000
   17      N      14.2390000000    26.9570000000    14.6130000000
   18      H      14.0880000000    26.5990000000    13.6980000000
   19      C      13.0900000000    27.0030000000    15.6890000000
   20      H      13.2380000000    27.9160000000    16.2270000000
   21      H      17.0790000000    28.2220000000    13.6310000000
   22      H      16.9420000000    26.4770000000    13.7980000000
   23      H      13.1620000000    26.1640000000    16.3490000000
   24      H      12.1210000000    26.9620000000    15.2370000000
 ----------------------------------------------------------------
 Nuclear Repulsion Energy =         500.47240617 hartrees
 There are       40 alpha and       40 beta electrons
 Requested basis set is def2-TZVPD
 There are 202 shells and 502 basis functions

 Total QAlloc Memory Limit   2000 MB
 Mega-Array Size      1956 MB
 MEM_STATIC part      2000 MB
 A cutoff of  1.0D-14 yielded  17095 shell pairs
 There are    104885 function pairs (    129996 Cartesian)
 Smallest overlap matrix eigenvalue = 7.17E-06

 Scale SEOQF with 1.000000e-03/1.000000e-03/1.000000e-02

 Standard Electronic Orientation quadrupole field applied
 Nucleus-field energy     =    -0.0000000868 hartrees

 -----------------------------------------------------------------------
  General SCF calculation program by
  Eric Jon Sundstrom, Paul Horn, Yuezhi Mao, Dmitri Zuev, Alec White,
  David Stuck, Shaama M.S., Shane Yost, Joonho Lee, David Small,
  Daniel Levine, Susi Lehtola, Hugh Burton, Evgeny Epifanovsky,
  Bang C. Huynh
 -----------------------------------------------------------------------
================================================================
                 ALMO-EDA with the EDA2 driver                  
================================================================
 The second-generation ALMO-EDA (for DFT):                      
 P. R. Horn, Y. Mao and M. Head-Gordon, PCCP, 18, 23067 (2016)  
 Decomposition of the frozen energy:                            
 P. R. Horn, Y. Mao and M. Head-Gordon, JCP, 144, 114107 (2016) 
 FERF model for polarization:                                   
 P. R. Horn and M. Head-Gordon, JCP, 143, 114111 (2015)         
Using eda2 option set 1
Option set summary: Frozen orbital wavefunction, initial wavefunction decomposition, and nDQ polarization.
--------------------------------
Printing EDA Options
--------------------------------
eda_child_super_basis      0
fragmo_guess_mode          0
child_mp                   1
child_mp_orders            232
cls_elec                   1
cls_disp                   0
scfmi_mode                 1
scfmi_occs                 0
scfmi_virts                0
frz_relax                  0
frz_relax_method           0
dc_pen_start               0
dc_pen_conv                0
dc_pen_increment           0
dc_pen_steps               0
dc_pen_thresh_factor       0
dc_pen_pre_newton_thresh   0
frz_ortho_decomp           1
frz_ortho_decomp_conv      6
frgm_method                2
scfmi_freeze_ss            0
separate_rehyb             0
plot_diff_den              0
eda_nocv                   0
eda_vct_relax              1
disp_free_x                0
disp_free_c                0
eda_bsse                   0
eda_pct_a                  0
eda_covp                   0
--------------------------------
Attempting to make child job directory: /home/meili/scratch/qchem54611//Frg1/
Attempting to make child job directory: /home/meili/scratch/qchem54611//Frg2/
Creating input file /home/meili/scratch/qchem54611/Frg1.input
using default PutDataFrgm: nothing
calling putenv with: QCSCRATCH=/home/meili/scratch/qchem54611/ 
Spawning Job For Fragment 0
                  Welcome to Q-Chem
     A Quantum Leap Into The Future Of Chemistry


 Q-Chem 5.2 (devel), Q-Chem, Inc., Pleasanton, CA (2019)

 Yihan Shao,  Zhengting Gan,  E. Epifanovsky,  A. T. B. Gilbert,  M. Wormit,  
 J. Kussmann,  A. W. Lange,  A. Behn,  Jia Deng,  Xintian Feng,  D. Ghosh,  
 M. Goldey,  P. R. Horn,  L. D. Jacobson,  I. Kaliman,  T. Kus,  A. Landau,  
 Jie Liu,  E. I. Proynov,  R. M. Richard,  R. P. Steele,  E. J. Sundstrom,  
 H. L. Woodcock III,  P. M. Zimmerman,  D. Zuev,  B. Albrecht,  E. Alguire,  
 S. A. Baeppler,  D. Barton,  Z. Benda,  Y. A. Bernard,  E. J. Berquist,  
 K. B. Bravaya,  H. Burton,  D. Casanova,  Chun-Min Chang,  Yunqing Chen,  
 A. Chien,  K. D. Closser,  M. P. Coons,  S. Coriani,  S. Dasgupta,  
 A. L. Dempwolff,  M. Diedenhofen,  Hainam Do,  R. G. Edgar,  Po-Tung Fang,  
 S. Faraji,  S. Fatehi,  Qingguo Feng,  K. D. Fenk,  J. Fosso-Tande,  
 J. Gayvert,  Qinghui Ge,  A. Ghysels,  G. Gidofalvi,  J. Gomes,  
 J. Gonthier,  A. Gunina,  D. Hait,  M. W. D. Hanson-Heine,  
 P. H. P. Harbach,  A. W. Hauser,  M. F. Herbst,  J. E. Herr,  
 E. G. Hohenstein,  Z. C. Holden,  Kerwin Hui,  B. C. Huynh,  T.-C. Jagau,  
 Hyunjun Ji,  B. Kaduk,  K. Khistyaev,  Jaehoon Kim,  P. Klunzinger,  K. Koh,  
 D. Kosenkov,  L. Koulias,  T. Kowalczyk,  C. M. Krauter,  A. Kunitsa,  
 Ka Un Lao,  A. Laurent,  K. V. Lawler,  Joonho Lee,  D. Lefrancois,  
 S. Lehtola,  D. S. Levine,  Yi-Pei Li,  You-Sheng Lin,  Fenglai Liu,  
 E. Livshits,  A. Luenser,  P. Manohar,  E. Mansoor,  S. F. Manzer,  
 Shan-Ping Mao,  Yuezhi Mao,  N. Mardirossian,  A. V. Marenich,  
 T. Markovich,  L. A. Martinez-Martinez,  S. A. Maurer,  N. J. Mayhall,  
 S. C. McKenzie,  J.-M. Mewes,  P. Morgante,  A. F. Morrison,  
 J. W. Mullinax,  K. Nanda,  T. S. Nguyen-Beck,  R. Olivares-Amaya,  
 J. A. Parkhill,  Zheng Pei,  T. M. Perrine,  F. Plasser,  P. Pokhilko,  
 S. Prager,  A. Prociuk,  E. Ramos,  D. R. Rehn,  F. Rob,  M. Scheurer,  
 M. Schneider,  N. Sergueev,  S. M. Sharada,  S. Sharma,  D. W. Small,  
 T. Stauch,  T. Stein,  Yu-Chuan Su,  A. J. W. Thom,  A. Tkatchenko,  
 T. Tsuchimochi,  N. M. Tubman,  L. Vogt,  M. L. Vidal,  O. Vydrov,  
 M. A. Watson,  J. Wenzel,  M. de Wergifosse,  T. A. Wesolowski,  A. White,  
 J. Witte,  A. Yamada,  Jun Yang,  K. Yao,  S. Yeganeh,  S. R. Yost,  
 Zhi-Qiang You,  A. Zech,  Igor Ying Zhang,  Xing Zhang,  Yan Zhao,  
 Ying Zhu,  B. R. Brooks,  G. K. L. Chan,  C. J. Cramer,  M. S. Gordon,  
 W. J. Hehre,  A. Klamt,  M. W. Schmidt,  C. D. Sherrill,  D. G. Truhlar,  
 A. Aspuru-Guzik,  R. Baer,  A. T. Bell,  N. A. Besley,  Jeng-Da Chai,  
 A. E. DePrince, III,  R. A. DiStasio Jr.,  A. Dreuw,  B. D. Dunietz,  
 T. R. Furlani,  Chao-Ping Hsu,  Yousung Jung,  Jing Kong,  D. S. Lambrecht,  
 WanZhen Liang,  C. Ochsenfeld,  V. A. Rassolov,  L. V. Slipchenko,  
 J. E. Subotnik,  T. Van Voorhis,  J. M. Herbert,  A. I. Krylov,  
 P. M. W. Gill,  M. Head-Gordon

 Contributors to earlier versions of Q-Chem not listed above: 
 R. D. Adamson,  B. Austin,  J. Baker,  G. J. O. Beran,  K. Brandhorst,  
 S. T. Brown,  E. F. C. Byrd,  A. K. Chakraborty,  C.-L. Cheng,  
 Siu Hung Chien,  D. M. Chipman,  D. L. Crittenden,  H. Dachsel,  
 R. J. Doerksen,  A. D. Dutoi,  L. Fusti-Molnar,  W. A. Goddard III,  
 A. Golubeva-Zadorozhnaya,  S. R. Gwaltney,  G. Hawkins,  A. Heyden,  
 S. Hirata,  G. Kedziora,  F. J. Keil,  C. Kelley,  Jihan Kim,  R. A. King,  
 R. Z. Khaliullin,  P. P. Korambath,  W. Kurlancheek,  A. M. Lee,  M. S. Lee,  
 S. V. Levchenko,  Ching Yeh Lin,  D. Liotard,  R. C. Lochan,  I. Lotan,  
 P. E. Maslen,  N. Nair,  D. P. O'Neill,  D. Neuhauser,  E. Neuscamman,  
 C. M. Oana,  R. Olson,  B. Peters,  R. Peverati,  P. A. Pieniazek,  
 Y. M. Rhee,  J. Ritchie,  M. A. Rohrdanz,  E. Rosta,  N. J. Russ,  
 H. F. Schaefer III,  N. E. Schultz,  N. Shenvi,  A. C. Simmonett,  A. Sodt,  
 D. Stuck,  K. S. Thanthiriwatte,  V. Vanovschi,  Tao Wang,  A. Warshel,  
 C. F. Williams,  Q. Wu,  X. Xu,  W. Zhang

 Please cite Q-Chem as follows:
 Y. Shao et al., Mol. Phys. 113, 184-215 (2015)
 DOI: 10.1080/00268976.2014.952696

 Q-Chem 5.2.1 for Intel X86 EM64T Linux

 Parts of Q-Chem use Armadillo 8.300.2 (Tropical Shenanigans).
 http://arma.sourceforge.net/

 Q-Chem begins on Mon May 10 09:10:30 2021  

compute-0-14.local
Host: 0

     Scratch files written to /home/meili/scratch/qchem54611//Frg1//
NAlpha2: 40
NElect   40
Mult     1

Checking the input file for inconsistencies... 	...done.

--------------------------------------------------------------
User input:
--------------------------------------------------------------
$molecule
0 1
 6	13.1290000000	30.9670000000	11.4960000000
 1	13.4440000000	31.8640000000	11.0410000000
 6	12.8200000000	29.8280000000	10.4630000000
 8	11.8840000000	29.1170000000	10.7200000000
 7	13.5830000000	29.7550000000	9.3660000000
 1	14.4020000000	30.3630000000	9.3130000000
 6	13.3850000000	28.9010000000	8.2760000000
 1	12.3670000000	28.5770000000	8.2200000000
 1	13.9020000000	30.6290000000	12.1540000000
 1	12.2200000000	31.1770000000	12.0200000000
 1	13.6360000000	29.4210000000	7.3750000000
 1	14.0090000000	28.0410000000	8.4010000000
$end
$rem
EDA2		1
METHOD		WB97X-V
BASIS		DEF2-TZVPD
XC_GRID		000099000590
NL_GRID		1
UNRESTRICTED		FALSE
MAX_SCF_CYCLES		200
SYMMETRY		FALSE
SYM_IGNORE		TRUE
BASIS_LIN_DEP_THRESH		6
THRESH		14
SCF_CONVERGENCE		8
SCF_PRINT_FRGM		TRUE
!required keywords
JOBTYPE		SP
SYM_IGNORE		TRUE
SUBSYSTEM		TRUE
GEN_SCFMAN		TRUE
CHILD_INSTRUCTION		2
SYM_IGNORE		TRUE
SCFMI		0
RI_K 0		
PARI_K 0		
MIN_PARI_K 0		
IARI_K 0		
OCC_RI_K 0		
PURECART		1111
MEM_STATIC		2000
MEM_TOTAL		2000
GUI		0
CHILD_MP		1
CHILD_MP_ORDERS		232
FRZ_RELAX		0
FRZ_RELAX_METHOD		0
EDA_CLS_ELEC		1
EDA_CLS_DISP		0
FRZ_ORTHO_DECOMP		1
EDA2		FALSE
FRGM_METHOD		FALSE
CIS_N_ROOTS  0
LOCAL_CIS    0
CIS_RLX_DNS  1
$end
--------------------------------------------------------------
 ----------------------------------------------------------------
             Standard Nuclear Orientation (Angstroms)
    I     Atom           X                Y                Z
 ----------------------------------------------------------------
    1      C      13.1290000000    30.9670000000    11.4960000000
    2      H      13.4440000000    31.8640000000    11.0410000000
    3      C      12.8200000000    29.8280000000    10.4630000000
    4      O      11.8840000000    29.1170000000    10.7200000000
    5      N      13.5830000000    29.7550000000     9.3660000000
    6      H      14.4020000000    30.3630000000     9.3130000000
    7      C      13.3850000000    28.9010000000     8.2760000000
    8      H      12.3670000000    28.5770000000     8.2200000000
    9      H      13.9020000000    30.6290000000    12.1540000000
   10      H      12.2200000000    31.1770000000    12.0200000000
   11      H      13.6360000000    29.4210000000     7.3750000000
   12      H      14.0090000000    28.0410000000     8.4010000000
 ----------------------------------------------------------------
 Nuclear Repulsion Energy =         181.14276616 hartrees
 There are       20 alpha and       20 beta electrons
 Requested basis set is def2-TZVPD
 There are 101 shells and 251 basis functions

 Total QAlloc Memory Limit   2000 MB
 Mega-Array Size      1956 MB
 MEM_STATIC part      2000 MB

                       Distance Matrix (Angstroms)
             C (  1)   H (  2)   C (  3)   O (  4)   N (  5)   H (  6)
   H (  2)  1.053973
   C (  3)  1.568404  2.206526
   O (  4)  2.361080  3.175319  1.203190
   N (  5)  2.492380  2.696818  1.338248  2.264279
   H (  6)  2.598237  2.481280  2.027671  3.142052  1.021388
   C (  7)  3.834357  4.053156  2.441623  2.876246  1.398792  2.060850
   H (  8)  4.126127  4.463445  2.607922  2.602862  2.044421  2.919875
   H (  9)  1.069924  1.724459  2.161436  2.900832  2.939146  2.896901
   H ( 10)  1.070027  1.711311  2.145705  2.458962  3.305082  3.570934
   H ( 11)  4.430554  4.409611  3.219821  3.788264  2.019516  2.286911
   H ( 12)  4.349126  4.680187  2.976396  3.324329  2.012585  2.525446
             C (  7)   H (  8)   H (  9)   H ( 10)   H ( 11)
   H (  8)  1.069783
   H (  9)  4.276933  4.695028
   H ( 10)  4.533755  4.606692  1.774087
   H ( 11)  1.070141  1.742619  4.936483  5.163779
   H ( 12)  1.069860  1.736727  4.560066  5.111964  1.759604

 A cutoff of  1.0D-14 yielded   5024 shell pairs
 There are     31634 function pairs (     39791 Cartesian)
 Smallest overlap matrix eigenvalue = 8.94E-06

 Scale SEOQF with 1.000000e-02/1.000000e-03/1.000000e-02

 Standard Electronic Orientation quadrupole field applied
 Nucleus-field energy     =     0.0000000057 hartrees
 Guess from superposition of atomic densities
 Warning:  Energy on first SCF cycle will be non-variational
 SAD guess density has 40.000000 electrons

 -----------------------------------------------------------------------
  General SCF calculation program by
  Eric Jon Sundstrom, Paul Horn, Yuezhi Mao, Dmitri Zuev, Alec White,
  David Stuck, Shaama M.S., Shane Yost, Joonho Lee, David Small,
  Daniel Levine, Susi Lehtola, Hugh Burton, Evgeny Epifanovsky,
  Bang C. Huynh
 -----------------------------------------------------------------------
 Exchange:     0.1670 Hartree-Fock + 1.0000 wB97X-V + LR-HF
 Correlation:  1.0000 wB97X-V
 Using Euler-Maclaurin-Lebedev (99,590) quadrature formula
 Nonlocal Correlation:  VV10 with C = 0.0100 and b = 6.00 and scale = 1.00000
 Grid used for NLC:  SG-1 standard quadrature
Energy prior to optimization (guess energy) = -248.419154338757
Begin Timing: Total SCF Calculation
begin iterations for algorithm: DIIS         
the SCF tolerance is set to 1.00e-08
    1    -248.4191543388      4.22e-03     00000 
    2    -248.3743243276      5.52e-03     00000 
    3    -248.5348385625      5.24e-04     00000 
    4    -248.5365046638      2.15e-04     00000 
    5    -248.5368186662      5.15e-05     00000 
    6    -248.5368424798      1.84e-05     00000 
    7    -248.5368467675      4.96e-06     00000 
    8    -248.5368473013      1.58e-06     00000 
    9    -248.5368473394      5.77e-07     00000 
   10    -248.5368473434      1.05e-07     00000 
   11    -248.5368473436      2.58e-08     00000 
   12    -248.5368473436      1.03e-08     00000 
   13    -248.5368473436      2.73e-09     00000 Convergence criterion met
Timing for Total SCF: 247.00s (wall), 1488.54s (cpu)
Multipole orders to be included
        2
        3
computing dipole RHS
computing quadrupole RHS
total number of RHS in solve_reponses: 8
RHS batch sizes
        8
Beginning Block Conjugate Gradient Iterations. Batch Number: 0
computing hessian-vector products by finite difference
              1      4.67e-01     00000 Conjugate Gradient Iteration
computing hessian-vector products by finite difference
              2      1.45e-01     00000 Conjugate Gradient Iteration
computing hessian-vector products by finite difference
              3      3.43e-02     00000 Conjugate Gradient Iteration
computing hessian-vector products by finite difference
              4      7.95e-03     00000 Conjugate Gradient Iteration
computing hessian-vector products by finite difference
              5      1.49e-03     00000 Conjugate Gradient Iteration
computing hessian-vector products by finite difference
              6      3.52e-04     00000 Conjugate Gradient Iteration
computing hessian-vector products by finite difference
              7      5.68e-05     00000 Conjugate Gradient Iteration
computing hessian-vector products by finite difference
              8      7.59e-06     00000 Conjugate Gradient Iteration
computing hessian-vector products by finite difference
              9      1.31e-06     00000 Conjugate Gradient Iteration
computing hessian-vector products by finite difference
             10      1.81e-07     00000 Conjugate Gradient Iteration
computing hessian-vector products by finite difference
             11      2.85e-08     00000 Conjugate Gradient Iteration
computing hessian-vector products by finite difference
             12      4.51e-09     00000 CG Converged
batch 0 complete
Done Calculating Responses
TESTING ORTHOGONALIZATION OF MULTIPOLE BASIS
Multipole virts passed orthogonality test
Virts Per Order
           60
          100

 --------------------------------------------------------------

                    Orbital Energies (a.u.)
 --------------------------------------------------------------

 Alpha MOs
 -- Occupied --
-19.1670 -14.4370 -10.3660 -10.2926 -10.2607  -1.1723  -1.0701  -0.8823
 -0.8253  -0.7094  -0.6264  -0.5901  -0.5804  -0.5435  -0.5206  -0.5014
 -0.4988  -0.4700  -0.3595  -0.3524
 -- Virtual --
  0.0540   0.0790   0.0932   0.1081   0.1121   0.1248   0.1341   0.1416
  0.1479   0.1636   0.1669   0.1877   0.1889   0.1981   0.2073   0.2297
  0.2358   0.2480   0.2545   0.2668   0.2731   0.2880   0.2927   0.2940
  0.2975   0.3086   0.3228   0.3309   0.3470   0.3499   0.3563   0.3625
  0.3713   0.3782   0.3825   0.3857   0.3915   0.4068   0.4097   0.4165
  0.4284   0.4396   0.4458   0.4607   0.4630   0.4726   0.4795   0.4839
  0.4990   0.5065   0.5157   0.5189   0.5256   0.5399   0.5472   0.5526
  0.5652   0.5805   0.5934   0.6163   0.6183   0.6341   0.6444   0.6724
  0.6770   0.6988   0.7111   0.7281   0.7337   0.7498   0.7581   0.7661
  0.7726   0.7973   0.8058   0.8117   0.8182   0.8259   0.8355   0.8480
  0.8580   0.8757   0.8871   0.9050   0.9179   0.9589   0.9748   1.0146
  1.0171   1.0417   1.0626   1.0879   1.1141   1.1371   1.1783   1.1995
  1.2401   1.2582   1.2670   1.2849   1.3133   1.3406   1.3630   1.3719
  1.4180   1.4330   1.5330   1.5382   1.6296   1.6971   1.7359   1.7473
  1.7604   1.8265   1.8403   1.8763   1.8822   1.9013   1.9163   1.9364
  1.9443   1.9585   1.9997   2.0247   2.0338   2.0612   2.1022   2.1210
  2.1682   2.1978   2.2184   2.2398   2.2786   2.3229   2.3459   2.3793
  2.3985   2.4369   2.4658   2.4799   2.5407   2.5842   2.5929   2.6022
  2.6174   2.6413   2.6819   2.7181   2.7712   2.7854   2.8163   2.8525
  2.8677   2.8950   2.9203   2.9544   2.9705   3.0336   3.0672   3.1374
  3.1726   3.1994   3.2178   3.2590   3.2745   3.2934   3.3322   3.3436
  3.3588   3.3722   3.4019   3.4254   3.4477   3.4813   3.5184   3.5425
  3.5849   3.6043   3.6188   3.6430   3.6561   3.7129   3.7359   3.7713
  3.8188   3.8938   3.9581   3.9832   4.0094   4.0688   4.1453   4.2307
  4.3059   4.3580   4.4066   4.4865   4.5920   4.6002   4.6756   4.7350
  4.7638   4.7966   4.9356   5.0174   5.0394   5.2130   5.2403   5.3023
  5.3178   5.4253   5.4571   5.4987   5.5681   5.7259   5.7657   5.8475
  6.0138   6.1434   6.3332   6.6183   6.6832   6.7842   6.8981   7.0158
  7.2838   7.3739  22.6557  22.8139  23.6392  32.7308  44.3619
 --------------------------------------------------------------

          Ground-State Mulliken Net Atomic Charges

     Atom                 Charge (a.u.)
  ----------------------------------------
      1 C                    -0.752230
      2 H                     0.256463
      3 C                     0.453882
      4 O                    -0.509147
      5 N                    -0.061245
      6 H                     0.202382
      7 C                    -0.756441
      8 H                     0.283554
      9 H                     0.200681
     10 H                     0.191700
     11 H                     0.253502
     12 H                     0.236899
  ----------------------------------------
  Sum of atomic charges =     0.000000

 -----------------------------------------------------------------
                    Cartesian Multipole Moments
 -----------------------------------------------------------------
    Charge (ESU x 10^10)
                -0.0000
    Dipole Moment (Debye)
         X       3.1412      Y       1.8056      Z      -1.7558
       Tot       4.0262
    Quadrupole Moments (Debye-Ang)
        XX      49.3764     XY     115.6994     YY      76.3196
        XZ       9.4485     YZ     -31.8055     ZZ     -64.1720
    Octopole Moments (Debye-Ang^2)
       XXX     337.9736    XXY    1746.1461    XYY    3700.9364
       YYY    2018.2664    XXZ     214.8649    XYZ     531.2561
       YYZ    -651.9705    XZZ    -500.8317    YZZ   -1680.2328
       ZZZ   -1404.8436
    Hexadecapole Moments (Debye-Ang^3)
      XXXX   -5002.8715   XXXY   13541.4414   XXYY   54927.7234
      XYYY  105814.8992   YYYY   24893.8284   XXXZ    -185.8206
      XXYZ    9460.3977   XYYZ   19195.4294   YYYZ  -20030.2756
      XXZZ   -5569.8690   XYZZ  -12115.1308   YYZZ  -46420.4554
      XZZZ  -14769.1307   YZZZ  -39320.1660   ZZZZ  -25034.7907
 -----------------------------------------------------------------
Archival summary:
1\1\compute-0-14.local\SP\ProcedureUnspecified\BasisUnspecified\1137\meili\MonMay1010:25:232021MonMay1010:25:232021\0\\#,ProcedureUnspecified,BasisUnspecified,\\0,1\N\H,1,1.02139\C,1,1.33825,2,117.855\O,3,1.20319,1,125.902,2,-174.313,0\C,1,1.39879,2,115.88,3,-178.904,0\H,5,1.06978,1,111.125,2,-158.96,0\H,5,1.06986,1,108.491,2,81.8097,0\H,5,1.07014,1,109.039,2,-38.7371,0\C,3,1.5684,1,117.852,2,7.85401,0\H,9,1.05397,3,113.117,1,35.5896,0\H,9,1.06992,3,108.541,1,-84.9645,0\H,9,1.07003,3,107.319,1,153.808,0\\\@

 Total job time:  4493.01s(wall), 26949.27s(cpu) 
 Mon May 10 10:25:23 2021

        *************************************************************
        *                                                           *
        *  Thank you very much for using Q-Chem.  Have a nice day.  *
        *                                                           *
        *************************************************************


Done Job For Fragment 0
calling putenv with: QCSCRATCH=/home/meili/scratch 
calling putenv with: QCTHREADS=8 
Creating input file /home/meili/scratch/qchem54611/Frg2.input
using default PutDataFrgm: nothing
calling putenv with: QCSCRATCH=/home/meili/scratch/qchem54611/ 
Spawning Job For Fragment 1
                  Welcome to Q-Chem
     A Quantum Leap Into The Future Of Chemistry


 Q-Chem 5.2 (devel), Q-Chem, Inc., Pleasanton, CA (2019)

 Yihan Shao,  Zhengting Gan,  E. Epifanovsky,  A. T. B. Gilbert,  M. Wormit,  
 J. Kussmann,  A. W. Lange,  A. Behn,  Jia Deng,  Xintian Feng,  D. Ghosh,  
 M. Goldey,  P. R. Horn,  L. D. Jacobson,  I. Kaliman,  T. Kus,  A. Landau,  
 Jie Liu,  E. I. Proynov,  R. M. Richard,  R. P. Steele,  E. J. Sundstrom,  
 H. L. Woodcock III,  P. M. Zimmerman,  D. Zuev,  B. Albrecht,  E. Alguire,  
 S. A. Baeppler,  D. Barton,  Z. Benda,  Y. A. Bernard,  E. J. Berquist,  
 K. B. Bravaya,  H. Burton,  D. Casanova,  Chun-Min Chang,  Yunqing Chen,  
 A. Chien,  K. D. Closser,  M. P. Coons,  S. Coriani,  S. Dasgupta,  
 A. L. Dempwolff,  M. Diedenhofen,  Hainam Do,  R. G. Edgar,  Po-Tung Fang,  
 S. Faraji,  S. Fatehi,  Qingguo Feng,  K. D. Fenk,  J. Fosso-Tande,  
 J. Gayvert,  Qinghui Ge,  A. Ghysels,  G. Gidofalvi,  J. Gomes,  
 J. Gonthier,  A. Gunina,  D. Hait,  M. W. D. Hanson-Heine,  
 P. H. P. Harbach,  A. W. Hauser,  M. F. Herbst,  J. E. Herr,  
 E. G. Hohenstein,  Z. C. Holden,  Kerwin Hui,  B. C. Huynh,  T.-C. Jagau,  
 Hyunjun Ji,  B. Kaduk,  K. Khistyaev,  Jaehoon Kim,  P. Klunzinger,  K. Koh,  
 D. Kosenkov,  L. Koulias,  T. Kowalczyk,  C. M. Krauter,  A. Kunitsa,  
 Ka Un Lao,  A. Laurent,  K. V. Lawler,  Joonho Lee,  D. Lefrancois,  
 S. Lehtola,  D. S. Levine,  Yi-Pei Li,  You-Sheng Lin,  Fenglai Liu,  
 E. Livshits,  A. Luenser,  P. Manohar,  E. Mansoor,  S. F. Manzer,  
 Shan-Ping Mao,  Yuezhi Mao,  N. Mardirossian,  A. V. Marenich,  
 T. Markovich,  L. A. Martinez-Martinez,  S. A. Maurer,  N. J. Mayhall,  
 S. C. McKenzie,  J.-M. Mewes,  P. Morgante,  A. F. Morrison,  
 J. W. Mullinax,  K. Nanda,  T. S. Nguyen-Beck,  R. Olivares-Amaya,  
 J. A. Parkhill,  Zheng Pei,  T. M. Perrine,  F. Plasser,  P. Pokhilko,  
 S. Prager,  A. Prociuk,  E. Ramos,  D. R. Rehn,  F. Rob,  M. Scheurer,  
 M. Schneider,  N. Sergueev,  S. M. Sharada,  S. Sharma,  D. W. Small,  
 T. Stauch,  T. Stein,  Yu-Chuan Su,  A. J. W. Thom,  A. Tkatchenko,  
 T. Tsuchimochi,  N. M. Tubman,  L. Vogt,  M. L. Vidal,  O. Vydrov,  
 M. A. Watson,  J. Wenzel,  M. de Wergifosse,  T. A. Wesolowski,  A. White,  
 J. Witte,  A. Yamada,  Jun Yang,  K. Yao,  S. Yeganeh,  S. R. Yost,  
 Zhi-Qiang You,  A. Zech,  Igor Ying Zhang,  Xing Zhang,  Yan Zhao,  
 Ying Zhu,  B. R. Brooks,  G. K. L. Chan,  C. J. Cramer,  M. S. Gordon,  
 W. J. Hehre,  A. Klamt,  M. W. Schmidt,  C. D. Sherrill,  D. G. Truhlar,  
 A. Aspuru-Guzik,  R. Baer,  A. T. Bell,  N. A. Besley,  Jeng-Da Chai,  
 A. E. DePrince, III,  R. A. DiStasio Jr.,  A. Dreuw,  B. D. Dunietz,  
 T. R. Furlani,  Chao-Ping Hsu,  Yousung Jung,  Jing Kong,  D. S. Lambrecht,  
 WanZhen Liang,  C. Ochsenfeld,  V. A. Rassolov,  L. V. Slipchenko,  
 J. E. Subotnik,  T. Van Voorhis,  J. M. Herbert,  A. I. Krylov,  
 P. M. W. Gill,  M. Head-Gordon

 Contributors to earlier versions of Q-Chem not listed above: 
 R. D. Adamson,  B. Austin,  J. Baker,  G. J. O. Beran,  K. Brandhorst,  
 S. T. Brown,  E. F. C. Byrd,  A. K. Chakraborty,  C.-L. Cheng,  
 Siu Hung Chien,  D. M. Chipman,  D. L. Crittenden,  H. Dachsel,  
 R. J. Doerksen,  A. D. Dutoi,  L. Fusti-Molnar,  W. A. Goddard III,  
 A. Golubeva-Zadorozhnaya,  S. R. Gwaltney,  G. Hawkins,  A. Heyden,  
 S. Hirata,  G. Kedziora,  F. J. Keil,  C. Kelley,  Jihan Kim,  R. A. King,  
 R. Z. Khaliullin,  P. P. Korambath,  W. Kurlancheek,  A. M. Lee,  M. S. Lee,  
 S. V. Levchenko,  Ching Yeh Lin,  D. Liotard,  R. C. Lochan,  I. Lotan,  
 P. E. Maslen,  N. Nair,  D. P. O'Neill,  D. Neuhauser,  E. Neuscamman,  
 C. M. Oana,  R. Olson,  B. Peters,  R. Peverati,  P. A. Pieniazek,  
 Y. M. Rhee,  J. Ritchie,  M. A. Rohrdanz,  E. Rosta,  N. J. Russ,  
 H. F. Schaefer III,  N. E. Schultz,  N. Shenvi,  A. C. Simmonett,  A. Sodt,  
 D. Stuck,  K. S. Thanthiriwatte,  V. Vanovschi,  Tao Wang,  A. Warshel,  
 C. F. Williams,  Q. Wu,  X. Xu,  W. Zhang

 Please cite Q-Chem as follows:
 Y. Shao et al., Mol. Phys. 113, 184-215 (2015)
 DOI: 10.1080/00268976.2014.952696

 Q-Chem 5.2.1 for Intel X86 EM64T Linux

 Parts of Q-Chem use Armadillo 8.300.2 (Tropical Shenanigans).
 http://arma.sourceforge.net/

 Q-Chem begins on Mon May 10 10:25:24 2021  

compute-0-14.local
Host: 0

     Scratch files written to /home/meili/scratch/qchem54611//Frg2//
NAlpha2: 40
NElect   40
Mult     1

Checking the input file for inconsistencies... 	...done.

--------------------------------------------------------------
User input:
--------------------------------------------------------------
$molecule
0 1
 6	16.4060000000	27.3910000000	13.6470000000
 1	15.8890000000	27.3350000000	12.6940000000
 6	15.4010000000	27.5740000000	14.8150000000
 8	15.7110000000	28.1680000000	15.8420000000
 7	14.2390000000	26.9570000000	14.6130000000
 1	14.0880000000	26.5990000000	13.6980000000
 6	13.0900000000	27.0030000000	15.6890000000
 1	13.2380000000	27.9160000000	16.2270000000
 1	17.0790000000	28.2220000000	13.6310000000
 1	16.9420000000	26.4770000000	13.7980000000
 1	13.1620000000	26.1640000000	16.3490000000
 1	12.1210000000	26.9620000000	15.2370000000
$end
$rem
EDA2		1
METHOD		WB97X-V
BASIS		DEF2-TZVPD
XC_GRID		000099000590
NL_GRID		1
UNRESTRICTED		FALSE
MAX_SCF_CYCLES		200
SYMMETRY		FALSE
SYM_IGNORE		TRUE
BASIS_LIN_DEP_THRESH		6
THRESH		14
SCF_CONVERGENCE		8
SCF_PRINT_FRGM		TRUE
!required keywords
JOBTYPE		SP
SYM_IGNORE		TRUE
SUBSYSTEM		TRUE
GEN_SCFMAN		TRUE
CHILD_INSTRUCTION		2
SYM_IGNORE		TRUE
SCFMI		0
RI_K 0		
PARI_K 0		
MIN_PARI_K 0		
IARI_K 0		
OCC_RI_K 0		
PURECART		1111
MEM_STATIC		2000
MEM_TOTAL		2000
GUI		0
CHILD_MP		1
CHILD_MP_ORDERS		232
FRZ_RELAX		0
FRZ_RELAX_METHOD		0
EDA_CLS_ELEC		1
EDA_CLS_DISP		0
FRZ_ORTHO_DECOMP		1
EDA2		FALSE
FRGM_METHOD		FALSE
CIS_N_ROOTS  0
LOCAL_CIS    0
CIS_RLX_DNS  1
$end
--------------------------------------------------------------
 ----------------------------------------------------------------
             Standard Nuclear Orientation (Angstroms)
    I     Atom           X                Y                Z
 ----------------------------------------------------------------
    1      C      16.4060000000    27.3910000000    13.6470000000
    2      H      15.8890000000    27.3350000000    12.6940000000
    3      C      15.4010000000    27.5740000000    14.8150000000
    4      O      15.7110000000    28.1680000000    15.8420000000
    5      N      14.2390000000    26.9570000000    14.6130000000
    6      H      14.0880000000    26.5990000000    13.6980000000
    7      C      13.0900000000    27.0030000000    15.6890000000
    8      H      13.2380000000    27.9160000000    16.2270000000
    9      H      17.0790000000    28.2220000000    13.6310000000
   10      H      16.9420000000    26.4770000000    13.7980000000
   11      H      13.1620000000    26.1640000000    16.3490000000
   12      H      12.1210000000    26.9620000000    15.2370000000
 ----------------------------------------------------------------
 Nuclear Repulsion Energy =         178.28708895 hartrees
 There are       20 alpha and       20 beta electrons
 Requested basis set is def2-TZVPD
 There are 101 shells and 251 basis functions

 Total QAlloc Memory Limit   2000 MB
 Mega-Array Size      1956 MB
 MEM_STATIC part      2000 MB

                       Distance Matrix (Angstroms)
             C (  1)   H (  2)   C (  3)   O (  4)   N (  5)   H (  6)
   H (  2)  1.085649
   C (  3)  1.551689  2.189499
   O (  4)  2.429975  3.261208  1.226240
   N (  5)  2.411929  2.558895  1.331066  2.267983
   H (  6)  2.450100  2.189364  1.980475  3.113298  0.994077
   C (  7)  3.913587  4.112742  2.535870  2.872329  1.574831  2.263471
   H (  8)  4.119253  4.455048  2.605624  2.515444  2.127599  2.975371
   H (  9)  1.069461  1.755232  2.153473  2.600550  3.260391  3.403630
   H ( 10)  1.070277  1.750368  2.147645  2.924513  2.863710  2.858356
   H ( 11)  4.396575  4.708163  3.058493  3.281839  2.191455  2.841567
   H ( 12)  4.590574  4.561119  3.363187  3.835174  2.208014  2.523763
             C (  7)   H (  8)   H (  9)   H ( 10)   H ( 11)
   H (  8)  1.070008
   H (  9)  4.651177  4.646088
   H ( 10)  4.323247  4.657293  1.758318
   H ( 11)  1.069909  1.757886  5.192858  4.570992
   H ( 12)  1.070021  1.771413  5.361772  5.054502  1.719601

 A cutoff of  1.0D-14 yielded   5018 shell pairs
 There are     31588 function pairs (     39730 Cartesian)
 Smallest overlap matrix eigenvalue = 8.81E-06

 Scale SEOQF with 1.000000e-03/1.000000e-03/1.000000e-02

 Standard Electronic Orientation quadrupole field applied
 Nucleus-field energy     =    -0.0000000707 hartrees
 Guess from superposition of atomic densities
 Warning:  Energy on first SCF cycle will be non-variational
 SAD guess density has 40.000000 electrons

 -----------------------------------------------------------------------
  General SCF calculation program by
  Eric Jon Sundstrom, Paul Horn, Yuezhi Mao, Dmitri Zuev, Alec White,
  David Stuck, Shaama M.S., Shane Yost, Joonho Lee, David Small,
  Daniel Levine, Susi Lehtola, Hugh Burton, Evgeny Epifanovsky,
  Bang C. Huynh
 -----------------------------------------------------------------------
 Exchange:     0.1670 Hartree-Fock + 1.0000 wB97X-V + LR-HF
 Correlation:  1.0000 wB97X-V
 Using Euler-Maclaurin-Lebedev (99,590) quadrature formula
 Nonlocal Correlation:  VV10 with C = 0.0100 and b = 6.00 and scale = 1.00000
 Grid used for NLC:  SG-1 standard quadrature
Energy prior to optimization (guess energy) = -248.419644343552
Begin Timing: Total SCF Calculation
begin iterations for algorithm: DIIS         
the SCF tolerance is set to 1.00e-08
    1    -248.4196443436      4.18e-03     00000 
    2    -248.3629189337      5.66e-03     00000 
    3    -248.5339929228      5.12e-04     00000 
    4    -248.5355750570      2.23e-04     00000 
    5    -248.5359093382      5.54e-05     00000 
    6    -248.5359365124      1.94e-05     00000 
    7    -248.5359412912      5.33e-06     00000 
    8    -248.5359419043      1.71e-06     00000 
    9    -248.5359419487      6.08e-07     00000 
   10    -248.5359419533      1.10e-07     00000 
   11    -248.5359419536      1.94e-08     00000 
   12    -248.5359419536      4.80e-09     00000 Convergence criterion met
Timing for Total SCF: 232.00s (wall), 1385.47s (cpu)
Multipole orders to be included
        2
        3
computing dipole RHS
computing quadrupole RHS
total number of RHS in solve_reponses: 8
RHS batch sizes
        8
Beginning Block Conjugate Gradient Iterations. Batch Number: 0
computing hessian-vector products by finite difference
              1      4.57e-01     00000 Conjugate Gradient Iteration
computing hessian-vector products by finite difference
              2      1.46e-01     00000 Conjugate Gradient Iteration
computing hessian-vector products by finite difference
              3      3.62e-02     00000 Conjugate Gradient Iteration
computing hessian-vector products by finite difference
              4      8.79e-03     00000 Conjugate Gradient Iteration
computing hessian-vector products by finite difference
              5      1.72e-03     00000 Conjugate Gradient Iteration
computing hessian-vector products by finite difference
              6      3.35e-04     00000 Conjugate Gradient Iteration
computing hessian-vector products by finite difference
              7      5.21e-05     00000 Conjugate Gradient Iteration
computing hessian-vector products by finite difference
              8      1.01e-05     00000 Conjugate Gradient Iteration
computing hessian-vector products by finite difference
              9      1.65e-06     00000 Conjugate Gradient Iteration
computing hessian-vector products by finite difference
             10      2.22e-07     00000 Conjugate Gradient Iteration
computing hessian-vector products by finite difference
             11      3.38e-08     00000 Conjugate Gradient Iteration
computing hessian-vector products by finite difference
             12      3.84e-09     00000 CG Converged
batch 0 complete
Done Calculating Responses
TESTING ORTHOGONALIZATION OF MULTIPOLE BASIS
Multipole virts passed orthogonality test
Virts Per Order
           60
          100

 --------------------------------------------------------------

                    Orbital Energies (a.u.)
 --------------------------------------------------------------

 Alpha MOs
 -- Occupied --
-19.1654 -14.4392 -10.3656 -10.3094 -10.2671  -1.1573  -1.0452  -0.8790
 -0.8264  -0.7006  -0.6166  -0.5758  -0.5708  -0.5383  -0.5258  -0.5052
 -0.4920  -0.4688  -0.3636  -0.3521
 -- Virtual --
  0.0555   0.0761   0.0955   0.1077   0.1101   0.1279   0.1359   0.1389
  0.1498   0.1615   0.1673   0.1868   0.1906   0.1972   0.2039   0.2189
  0.2339   0.2393   0.2496   0.2624   0.2722   0.2771   0.2871   0.2894
  0.2988   0.3116   0.3178   0.3292   0.3424   0.3527   0.3571   0.3592
  0.3699   0.3775   0.3832   0.3845   0.3871   0.3986   0.4055   0.4124
  0.4294   0.4369   0.4490   0.4550   0.4616   0.4713   0.4803   0.4819
  0.4909   0.5003   0.5068   0.5181   0.5221   0.5403   0.5452   0.5523
  0.5667   0.5764   0.5993   0.6054   0.6208   0.6339   0.6519   0.6689
  0.6785   0.7036   0.7096   0.7285   0.7388   0.7450   0.7571   0.7640
  0.7809   0.7934   0.7969   0.8015   0.8205   0.8243   0.8345   0.8361
  0.8571   0.8741   0.8774   0.8971   0.9198   0.9477   0.9735   1.0173
  1.0265   1.0423   1.0619   1.0833   1.1087   1.1286   1.1507   1.1575
  1.2148   1.2504   1.2671   1.2754   1.3095   1.3377   1.3505   1.3690
  1.3931   1.4265   1.5159   1.5252   1.6056   1.6751   1.7301   1.7404
  1.7676   1.8167   1.8459   1.8492   1.8688   1.8803   1.9064   1.9196
  1.9338   1.9479   1.9862   2.0061   2.0332   2.0766   2.0983   2.1150
  2.1454   2.1887   2.1967   2.2514   2.2594   2.3033   2.3401   2.3662
  2.3855   2.4047   2.4390   2.4767   2.5153   2.5213   2.5696   2.5981
  2.6214   2.6304   2.6417   2.6894   2.7281   2.7704   2.8207   2.8291
  2.8558   2.8597   2.9150   2.9467   2.9634   3.0124   3.0481   3.1273
  3.1345   3.1619   3.2239   3.2294   3.2649   3.2779   3.3027   3.3232
  3.3256   3.3421   3.3716   3.4027   3.4202   3.4497   3.4726   3.5131
  3.5366   3.5764   3.5989   3.6258   3.6361   3.6862   3.7029   3.7271
  3.7744   3.8761   3.8919   3.9867   4.0117   4.0541   4.0793   4.1286
  4.2498   4.3844   4.3945   4.4798   4.5618   4.6060   4.6492   4.6990
  4.7357   4.8198   4.8674   4.9194   5.0010   5.1312   5.1909   5.2291
  5.3118   5.4107   5.4225   5.4553   5.5883   5.6145   5.6999   5.8089
  5.9402   6.1203   6.2883   6.5572   6.6787   6.7726   6.8629   7.0087
  7.2562   7.3550  22.5785  22.6206  23.6066  32.6206  44.3566
 --------------------------------------------------------------

          Ground-State Mulliken Net Atomic Charges

     Atom                 Charge (a.u.)
  ----------------------------------------
      1 C                    -0.748971
      2 H                     0.250311
      3 C                     0.494174
      4 O                    -0.540684
      5 N                    -0.092446
      6 H                     0.181590
      7 C                    -0.664821
      8 H                     0.259879
      9 H                     0.201347
     10 H                     0.189850
     11 H                     0.219408
     12 H                     0.250363
  ----------------------------------------
  Sum of atomic charges =     0.000000

 -----------------------------------------------------------------
                    Cartesian Multipole Moments
 -----------------------------------------------------------------
    Charge (ESU x 10^10)
                 0.0000
    Dipole Moment (Debye)
         X      -2.2705      Y      -2.0368      Z      -2.6842
       Tot       4.0631
    Quadrupole Moments (Debye-Ang)
        XX     -95.8043     XY     -92.9651     YY    -143.8826
        XZ     -77.2403     YZ    -105.2935     ZZ    -111.0576
    Octopole Moments (Debye-Ang^2)
       XXX   -2779.7887    XXY   -3092.0622    XYY   -3872.8373
       YYY   -7239.1511    XXZ   -2125.6873    XYZ   -2598.0325
       YYZ   -4236.3634    XZZ   -2266.5542    YZZ   -3539.9229
       ZZZ   -3178.1888
    Hexadecapole Moments (Debye-Ang^3)
      XXXX  -68432.5954   XXXY  -83327.4087   XXYY -104816.2960
      XYYY -155694.9451   YYYY -312957.4891   XXXZ  -52539.9351
      XXYZ  -65595.4517   XYYZ  -91571.6381   YYYZ -166296.5828
      XXZZ  -49240.5706   XYZZ  -69684.9569   YYZZ -117838.3622
      XZZZ  -57344.3087   YZZZ  -94899.1038   ZZZZ  -77190.5007
 -----------------------------------------------------------------
Archival summary:
1\1\compute-0-14.local\SP\ProcedureUnspecified\BasisUnspecified\1137\meili\MonMay1011:41:322021MonMay1011:41:322021\0\\#,ProcedureUnspecified,BasisUnspecified,\\0,1\C\O,1,1.22624\N,1,1.33107,2,124.913\H,3,0.994077,1,116.055,2,173.79,0\C,1,1.55169,2,121.589,3,-175.449,0\H,5,1.06946,1,109.099,2,-30.3894,0\H,5,1.07028,1,108.595,2,90.1331,0\H,5,1.08565,1,111.002,2,-150.6,0\C,3,1.57483,1,121.312,2,3.35361,0\H,9,1.06991,3,110.455,1,-92.1128,0\H,9,1.07001,3,105.518,1,27.2841,0\H,9,1.07002,3,111.776,1,148.94,0\\\@

 Total job time:  4568.15s(wall), 27228.02s(cpu) 
 Mon May 10 11:41:32 2021

        *************************************************************
        *                                                           *
        *  Thank you very much for using Q-Chem.  Have a nice day.  *
        *                                                           *
        *************************************************************


Done Job For Fragment 1
calling putenv with: QCSCRATCH=/home/meili/scratch 
calling putenv with: QCTHREADS=8 
Doing General SCFMI
 Exchange:     0.1670 Hartree-Fock + 1.0000 wB97X-V + LR-HF
 Correlation:  1.0000 wB97X-V
 Using Euler-Maclaurin-Lebedev (99,590) quadrature formula
 Nonlocal Correlation:  VV10 with C = 0.0100 and b = 6.00 and scale = 1.00000
 Grid used for NLC:  SG-1 standard quadrature
performing fock build before subrot guess so that all methods have access
Printing subrot_rss_gen Method Specification:
Occupied Subspace Method is 0
Virtual Subspace Method is 0
Energy of the unrelaxed supersystem initial determinant -497.074853299214
write pseudocanon occs and virts to disk
write pseudocanon orbital energies to disk
Tolerance of ortho_decomp_scf: 1.00e-06
GDM subspace size: 20
Beginning the Orthogonal Decomposition of the Initial Supersystem Wavefunction
    1    -497.0726700468      1.72e-03     ortho_decomp Preconditoned Steepest Descent
    2    -497.0726792315      3.58e-05     ortho_decomp BFGS Step
    3    -497.0726792471      1.22e-06     ortho_decomp BFGS Step
    4    -497.0726792471      3.24e-08     ortho_decomp 00000 Convergence criterion met
 Hartree-Fock
 Hartree-Fock
 Hartree-Fock
Doing General SCFMI
 Exchange:     0.1670 Hartree-Fock + 1.0000 wB97X-V + LR-HF
 Correlation:  1.0000 wB97X-V
 Using Euler-Maclaurin-Lebedev (99,590) quadrature formula
 Nonlocal Correlation:  VV10 with C = 0.0100 and b = 6.00 and scale = 1.00000
 Grid used for NLC:  SG-1 standard quadrature
performing fock build at end of subrot_r(subrot) constructor so that all methods have access
<S^2> of initial wavefunction before polarization iterations 0.0000000000
Beginning iterations for the determination of the polarized wavefunction
Energy prior to optimization (guess energy) = -497.074853299213
Begin Timing: Total SCF Calculation
begin iterations for algorithm: DIIS         
the SCF tolerance is set to 1.00e-08
    1    -497.0748532992      3.59e-05     00000 
    2    -497.0749486618      1.62e-05     00000 
    3    -497.0749565821      9.96e-06     00000 
    4    -497.0749593742      3.65e-06     00000 
    5    -497.0749598182      1.00e-06     00000 
    6    -497.0749598620      3.86e-07     00000 
    7    -497.0749598693      1.41e-07     00000 
    8    -497.0749598702      5.29e-08     00000 
    9    -497.0749598703      2.24e-08     00000 
   10    -497.0749598703      8.28e-09     00000 Convergence criterion met
write pseudocanon occs and virts to disk
write pseudocanon orbital energies to disk
Timing for Total SCF: 1117.00s (wall), 6965.93s (cpu)
<S^2> of polarized wavefunction after polarization iterations 0.0000000000
relaxing scfmi constraint to allow all rotations in the entire AO span
Doing General SCFMI
 Exchange:     0.1670 Hartree-Fock + 1.0000 wB97X-V + LR-HF
 Correlation:  1.0000 wB97X-V
 Using Euler-Maclaurin-Lebedev (99,590) quadrature formula
 Nonlocal Correlation:  VV10 with C = 0.0100 and b = 6.00 and scale = 1.00000
 Grid used for NLC:  SG-1 standard quadrature
performing fock build at end of subrot_r(subrot) constructor so that all methods have access
<S^2> of polarized wavefunction before ct-allowed iterations 0.0000000000
Beginning iterations for the determination of the CT-Allowed wavefunction
Energy prior to optimization (guess energy) = -497.074959870349
Begin Timing: Total SCF Calculation
begin iterations for algorithm: DIIS         
the SCF tolerance is set to 1.00e-08
    1    -497.0749598703      3.39e-05     00000 
    2    -497.0750570443      2.51e-06     00000 
    3    -497.0750594343      4.25e-07     00000 
    4    -497.0750595201      1.91e-07     00000 
    5    -497.0750595244      5.68e-08     00000 
    6    -497.0750595252      3.07e-08     00000 
    7    -497.0750595253      6.69e-09     00000 Convergence criterion met
write pseudocanon occs and virts to disk
write pseudocanon orbital energies to disk
Timing for Total SCF: 757.00s (wall), 4733.35s (cpu)
<S^2> of ct_allowed wavefunction after ct-allowed iterations 0.0000000000

================================
        Results of EDA2         
================================
Basic EDA Quantities
--------------------
Fragment Energies (Ha):
1 -248.5368473436
2 -248.5359419536
--------------------
  E_prp (kJ/mol) = 0.0000
  E_frz (kJ/mol) = -5.4191
  E_pol (kJ/mol) = -0.2798
  E_vct (kJ/mol) = -0.2616
  E_int (kJ/mol) = -5.9606
--------------------


Initial Wavefunction Decomposition
--------------------
  --------------------
  Orthogonal Fragment Subspace Decomposition:
  --------------------
     E_elec   (ELEC)   (kJ/mol) = -3.4902
     E_pauli  (PAULI)  (kJ/mol) = 0.1964
     E_disp   (DISP)   (kJ/mol) = -2.1253
     --------------------
     Terms summing to E_pauli:
     --------------------
        E_kep_pauli       (kJ/mol) = 0.2889
        E_disp_free_pauli (kJ/mol) = -0.0926
  --------------------
  Classical Frozen Decomposition:
  --------------------
     E_cls_elec  (CLS ELEC)  (kJ/mol) = -3.3510
     E_cls_pauli (CLS PAULI) (kJ/mol) = -2.0681
    [E_mod_pauli (MOD PAULI) (kJ/mol) = 0.0572 (CLS PAULI - DISP from orthogonal decomposition) ]
  --------------------
--------------------

Simplified EDA Summary (kJ/mol)
--------------------
 PREPARATION     0.0000
 FROZEN          -3.2938      (does not include dispersion)
[PAULI           0.1964]     (if this is negligible, then frozen describes electrostatics)
 DISPERSION      -2.1253
 POLARIZATION    -0.2798
 CHARGE TRANSFER -0.2616
 TOTAL           -5.9606     (PRP + FRZ + DISP + POL + CT)
--------------------

 --------------------------------------------------------------

                    Orbital Energies (a.u.)
 --------------------------------------------------------------

 Alpha MOs
 -- Occupied --
-19.1729 -19.1631 -14.4422 -14.4352 -10.3713 -10.3633 -10.3042 -10.2977
-10.2667 -10.2639  -1.1781  -1.1549  -1.0754  -1.0414  -0.8866  -0.8767
 -0.8295  -0.8229  -0.7145  -0.6964  -0.6310  -0.6136  -0.5953  -0.5855
 -0.5730  -0.5685  -0.5475  -0.5352  -0.5253  -0.5212  -0.5051  -0.5041
 -0.5034  -0.4896  -0.4749  -0.4666  -0.3651  -0.3601  -0.3579  -0.3501
 -- Virtual --
  0.0428   0.0650   0.0734   0.0761   0.0888   0.0959   0.1028   0.1072
  0.1140   0.1152   0.1233   0.1288   0.1321   0.1372   0.1386   0.1461
  0.1493   0.1596   0.1650   0.1655   0.1734   0.1767   0.1857   0.1883
  0.1893   0.1967   0.2062   0.2110   0.2213   0.2254   0.2296   0.2341
  0.2404   0.2429   0.2491   0.2525   0.2575   0.2600   0.2624   0.2694
  0.2728   0.2787   0.2896   0.2931   0.2961   0.3014   0.3032   0.3069
  0.3126   0.3212   0.3261   0.3264   0.3335   0.3379   0.3410   0.3451
  0.3502   0.3550   0.3573   0.3583   0.3648   0.3657   0.3683   0.3762
  0.3772   0.3783   0.3824   0.3858   0.3896   0.3919   0.3947   0.4007
  0.4024   0.4052   0.4129   0.4158   0.4225   0.4274   0.4308   0.4340
  0.4427   0.4436   0.4486   0.4558   0.4602   0.4634   0.4677   0.4744
  0.4794   0.4831   0.4899   0.4944   0.4953   0.5005   0.5037   0.5053
  0.5124   0.5165   0.5184   0.5239   0.5254   0.5291   0.5321   0.5410
  0.5445   0.5488   0.5492   0.5531   0.5572   0.5700   0.5714   0.5785
  0.5830   0.5922   0.5981   0.6040   0.6151   0.6244   0.6338   0.6392
  0.6411   0.6503   0.6539   0.6706   0.6795   0.6859   0.6866   0.6970
  0.7026   0.7088   0.7142   0.7197   0.7305   0.7361   0.7432   0.7494
  0.7560   0.7569   0.7625   0.7667   0.7704   0.7772   0.7835   0.7954
  0.7987   0.8026   0.8060   0.8093   0.8161   0.8194   0.8260   0.8280
  0.8331   0.8382   0.8410   0.8492   0.8588   0.8608   0.8793   0.8828
  0.8865   0.8925   0.8981   0.9070   0.9168   0.9221   0.9300   0.9474
  0.9568   0.9588   0.9639   0.9834   0.9906   1.0034   1.0213   1.0284
  1.0398   1.0586   1.0640   1.0713   1.0792   1.0920   1.0957   1.1150
  1.1184   1.1258   1.1404   1.1557   1.1659   1.1879   1.2016   1.2075
  1.2314   1.2541   1.2643   1.2738   1.2785   1.2844   1.2928   1.2994
  1.3277   1.3372   1.3468   1.3512   1.3705   1.3764   1.3816   1.3890
  1.4299   1.4420   1.4444   1.4536   1.5303   1.5326   1.5454   1.5492
  1.6190   1.6359   1.6857   1.7012   1.7338   1.7461   1.7544   1.7669
  1.7744   1.7875   1.8287   1.8372   1.8537   1.8634   1.8701   1.8808
  1.8887   1.8920   1.9013   1.9062   1.9178   1.9278   1.9387   1.9433
  1.9473   1.9654   1.9741   1.9855   1.9996   2.0121   2.0222   2.0318
  2.0395   2.0491   2.0695   2.0920   2.1033   2.1184   2.1231   2.1438
  2.1729   2.1906   2.2005   2.2063   2.2209   2.2241   2.2448   2.2682
  2.2778   2.2841   2.3158   2.3245   2.3528   2.3570   2.3791   2.3916
  2.4019   2.4077   2.4152   2.4511   2.4518   2.4775   2.4802   2.5003
  2.5271   2.5339   2.5439   2.5812   2.5891   2.5977   2.6085   2.6172
  2.6315   2.6382   2.6503   2.6534   2.6728   2.6955   2.7144   2.7189
  2.7359   2.7748   2.7869   2.7979   2.8216   2.8321   2.8450   2.8557
  2.8669   2.8699   2.8857   2.9047   2.9241   2.9302   2.9513   2.9535
  2.9704   2.9763   3.0400   3.0449   3.0666   3.0808   3.1348   3.1439
  3.1452   3.1704   3.1862   3.2043   3.2207   3.2362   3.2412   3.2628
  3.2778   3.2810   3.2892   3.2986   3.3137   3.3319   3.3370   3.3449
  3.3479   3.3539   3.3629   3.3756   3.3850   3.4019   3.4109   3.4241
  3.4262   3.4516   3.4567   3.4842   3.4932   3.5219   3.5239   3.5446
  3.5479   3.5825   3.5931   3.6048   3.6059   3.6219   3.6417   3.6488
  3.6556   3.6915   3.6977   3.7130   3.7214   3.7369   3.7420   3.7704
  3.7842   3.8193   3.8835   3.8949   3.9036   3.9608   3.9832   3.9951
  4.0231   4.0274   4.0612   4.0684   4.0898   4.1359   4.1452   4.2396
  4.2578   4.3062   4.3612   4.3943   4.4053   4.4090   4.4846   4.4919
  4.5778   4.5971   4.6113   4.6213   4.6622   4.6754   4.7071   4.7334
  4.7468   4.7623   4.8001   4.8296   4.8748   4.9339   4.9397   5.0144
  5.0240   5.0442   5.1406   5.2034   5.2190   5.2365   5.2397   5.2991
  5.3157   5.3168   5.4187   5.4219   5.4299   5.4575   5.4635   5.5019
  5.5652   5.5967   5.6215   5.7102   5.7224   5.7659   5.8135   5.8441
  5.9478   6.0107   6.1319   6.1402   6.2929   6.3325   6.5646   6.6160
  6.6814   6.6874   6.7786   6.7865   6.8681   6.8957   7.0138   7.0197
  7.2603   7.2802   7.3592   7.3716  22.5878  22.6479  22.6731  22.8129
 23.6153  23.6409  32.6408  32.7385  44.3840  44.4058
 --------------------------------------------------------------

          Ground-State Mulliken Net Atomic Charges

     Atom                 Charge (a.u.)
  ----------------------------------------
      1 C                    -0.701900
      2 H                     0.271983
      3 C                     0.441717
      4 O                    -0.523879
      5 N                    -0.060186
      6 H                     0.206072
      7 C                    -0.761064
      8 H                     0.282743
      9 H                     0.173083
     10 H                     0.179395
     11 H                     0.255368
     12 H                     0.234630
     13 C                    -0.737221
     14 H                     0.209722
     15 C                     0.514492
     16 O                    -0.549226
     17 N                    -0.078270
     18 H                     0.182336
     19 C                    -0.678547
     20 H                     0.257485
     21 H                     0.175341
     22 H                     0.223625
     23 H                     0.229338
     24 H                     0.252963
  ----------------------------------------
  Sum of atomic charges =     0.000000

 -----------------------------------------------------------------
                    Cartesian Multipole Moments
 -----------------------------------------------------------------
    Charge (ESU x 10^10)
                -0.0000
    Dipole Moment (Debye)
         X       0.7399      Y      -0.1737      Z      -4.4771
       Tot       4.5411
    Quadrupole Moments (Debye-Ang)
        XX     -50.3266     XY      19.8186     YY     -63.8868
        XZ     -70.2149     YZ    -137.7208     ZZ    -176.1225
    Octopole Moments (Debye-Ang^2)
       XXX   -2529.7408    XXY   -1445.4984    XYY    -226.5293
       YYY   -5045.4804    XXZ   -1974.5065    XYZ   -2129.4034
       YYZ   -4888.9562    XZZ   -2807.8249    YZZ   -5242.9602
       ZZZ   -4601.5166
    Hexadecapole Moments (Debye-Ang^3)
      XXXX  -75212.8609   XXXY  -72127.0557   XXYY  -52327.5115
      XYYY  -50460.7228   YYYY -280665.3185   XXXZ  -54092.6914
      XXYZ  -57855.1926   XYYZ  -73916.1047   YYYZ -185712.5498
      XXZZ  -55808.5892   XYZZ  -82908.3010   YYZZ -164778.0578
      XZZZ  -72784.0406   YZZZ -134740.9728   ZZZZ -102598.7456
 -----------------------------------------------------------------
Archival summary:
1\1\compute-0-14.local\SP\ProcedureUnspecified\BasisUnspecified\22614\meili\MonMay1012:38:062021MonMay1012:38:062021\0\\#,ProcedureUnspecified,BasisUnspecified,\\0,1\O\C,1,1.20319\N,2,1.33825,1,125.902\H,3,1.02139,2,117.855,1,-174.313,0\C,3,1.39879,2,126.254,1,4.46463,0\H,5,1.06978,3,111.125,2,22.2412,0\H,5,1.06986,3,108.491,2,-96.9889,0\H,5,1.07014,3,109.039,2,142.464,0\C,2,1.5684,1,116.214,3,177.865,0\H,9,1.05397,2,113.117,1,-142.454,0\H,9,1.06992,2,108.541,1,96.9918,0\H,9,1.07003,2,107.319,1,-24.2359,0\H,11,3.88461,9,136.296,2,-4.15556,0\C,13,1.08565,11,108.776,9,-166.072,0\H,14,1.06946,13,109.064,11,-60.2373,0\H,14,1.07028,13,108.559,11,179.282,0\C,14,1.55169,13,111.002,11,59.9941,0\O,17,1.22624,14,121.589,13,-150.6,0\N,17,1.33107,14,113.361,13,33.4646,0\H,19,0.994077,17,116.055,14,-10.4326,0\C,19,1.57483,17,121.312,14,179.131,0\H,21,1.06991,19,110.455,17,-92.1128,0\H,21,1.07001,19,105.518,17,27.2841,0\H,21,1.07002,19,111.776,17,148.94,0\\\@

 Total job time:  12532.50s(wall), 21126.04s(cpu) 
 Mon May 10 12:38:06 2021

        *************************************************************
        *                                                           *
        *  Thank you very much for using Q-Chem.  Have a nice day.  *
        *                                                           *
        *************************************************************


