                  Welcome to Q-Chem
     A Quantum Leap Into The Future Of Chemistry


 Q-Chem 5.2 (devel), Q-Chem, Inc., Pleasanton, CA (2019)

 Yihan Shao,  Zhengting Gan,  E. Epifanovsky,  A. T. B. Gilbert,  M. Wormit,  
 J. Kussmann,  A. W. Lange,  A. Behn,  Jia Deng,  Xintian Feng,  D. Ghosh,  
 M. Goldey,  P. R. Horn,  L. D. Jacobson,  I. Kaliman,  T. Kus,  A. Landau,  
 Jie Liu,  E. I. Proynov,  R. M. Richard,  R. P. Steele,  E. J. Sundstrom,  
 H. L. Woodcock III,  P. M. Zimmerman,  D. Zuev,  B. Albrecht,  E. Alguire,  
 S. A. Baeppler,  D. Barton,  Z. Benda,  Y. A. Bernard,  E. J. Berquist,  
 K. B. Bravaya,  H. Burton,  D. Casanova,  Chun-Min Chang,  Yunqing Chen,  
 A. Chien,  K. D. Closser,  M. P. Coons,  S. Coriani,  S. Dasgupta,  
 A. L. Dempwolff,  M. Diedenhofen,  Hainam Do,  R. G. Edgar,  Po-Tung Fang,  
 S. Faraji,  S. Fatehi,  Qingguo Feng,  K. D. Fenk,  J. Fosso-Tande,  
 J. Gayvert,  Qinghui Ge,  A. Ghysels,  G. Gidofalvi,  J. Gomes,  
 J. Gonthier,  A. Gunina,  D. Hait,  M. W. D. Hanson-Heine,  
 P. H. P. Harbach,  A. W. Hauser,  M. F. Herbst,  J. E. Herr,  
 E. G. Hohenstein,  Z. C. Holden,  Kerwin Hui,  B. C. Huynh,  T.-C. Jagau,  
 Hyunjun Ji,  B. Kaduk,  K. Khistyaev,  Jaehoon Kim,  P. Klunzinger,  K. Koh,  
 D. Kosenkov,  L. Koulias,  T. Kowalczyk,  C. M. Krauter,  A. Kunitsa,  
 Ka Un Lao,  A. Laurent,  K. V. Lawler,  Joonho Lee,  D. Lefrancois,  
 S. Lehtola,  D. S. Levine,  Yi-Pei Li,  You-Sheng Lin,  Fenglai Liu,  
 E. Livshits,  A. Luenser,  P. Manohar,  E. Mansoor,  S. F. Manzer,  
 Shan-Ping Mao,  Yuezhi Mao,  N. Mardirossian,  A. V. Marenich,  
 T. Markovich,  L. A. Martinez-Martinez,  S. A. Maurer,  N. J. Mayhall,  
 S. C. McKenzie,  J.-M. Mewes,  P. Morgante,  A. F. Morrison,  
 J. W. Mullinax,  K. Nanda,  T. S. Nguyen-Beck,  R. Olivares-Amaya,  
 J. A. Parkhill,  Zheng Pei,  T. M. Perrine,  F. Plasser,  P. Pokhilko,  
 S. Prager,  A. Prociuk,  E. Ramos,  D. R. Rehn,  F. Rob,  M. Scheurer,  
 M. Schneider,  N. Sergueev,  S. M. Sharada,  S. Sharma,  D. W. Small,  
 T. Stauch,  T. Stein,  Yu-Chuan Su,  A. J. W. Thom,  A. Tkatchenko,  
 T. Tsuchimochi,  N. M. Tubman,  L. Vogt,  M. L. Vidal,  O. Vydrov,  
 M. A. Watson,  J. Wenzel,  M. de Wergifosse,  T. A. Wesolowski,  A. White,  
 J. Witte,  A. Yamada,  Jun Yang,  K. Yao,  S. Yeganeh,  S. R. Yost,  
 Zhi-Qiang You,  A. Zech,  Igor Ying Zhang,  Xing Zhang,  Yan Zhao,  
 Ying Zhu,  B. R. Brooks,  G. K. L. Chan,  C. J. Cramer,  M. S. Gordon,  
 W. J. Hehre,  A. Klamt,  M. W. Schmidt,  C. D. Sherrill,  D. G. Truhlar,  
 A. Aspuru-Guzik,  R. Baer,  A. T. Bell,  N. A. Besley,  Jeng-Da Chai,  
 A. E. DePrince, III,  R. A. DiStasio Jr.,  A. Dreuw,  B. D. Dunietz,  
 T. R. Furlani,  Chao-Ping Hsu,  Yousung Jung,  Jing Kong,  D. S. Lambrecht,  
 WanZhen Liang,  C. Ochsenfeld,  V. A. Rassolov,  L. V. Slipchenko,  
 J. E. Subotnik,  T. Van Voorhis,  J. M. Herbert,  A. I. Krylov,  
 P. M. W. Gill,  M. Head-Gordon

 Contributors to earlier versions of Q-Chem not listed above: 
 R. D. Adamson,  B. Austin,  J. Baker,  G. J. O. Beran,  K. Brandhorst,  
 S. T. Brown,  E. F. C. Byrd,  A. K. Chakraborty,  C.-L. Cheng,  
 Siu Hung Chien,  D. M. Chipman,  D. L. Crittenden,  H. Dachsel,  
 R. J. Doerksen,  A. D. Dutoi,  L. Fusti-Molnar,  W. A. Goddard III,  
 A. Golubeva-Zadorozhnaya,  S. R. Gwaltney,  G. Hawkins,  A. Heyden,  
 S. Hirata,  G. Kedziora,  F. J. Keil,  C. Kelley,  Jihan Kim,  R. A. King,  
 R. Z. Khaliullin,  P. P. Korambath,  W. Kurlancheek,  A. M. Lee,  M. S. Lee,  
 S. V. Levchenko,  Ching Yeh Lin,  D. Liotard,  R. C. Lochan,  I. Lotan,  
 P. E. Maslen,  N. Nair,  D. P. O'Neill,  D. Neuhauser,  E. Neuscamman,  
 C. M. Oana,  R. Olson,  B. Peters,  R. Peverati,  P. A. Pieniazek,  
 Y. M. Rhee,  J. Ritchie,  M. A. Rohrdanz,  E. Rosta,  N. J. Russ,  
 H. F. Schaefer III,  N. E. Schultz,  N. Shenvi,  A. C. Simmonett,  A. Sodt,  
 D. Stuck,  K. S. Thanthiriwatte,  V. Vanovschi,  Tao Wang,  A. Warshel,  
 C. F. Williams,  Q. Wu,  X. Xu,  W. Zhang

 Please cite Q-Chem as follows:
 Y. Shao et al., Mol. Phys. 113, 184-215 (2015)
 DOI: 10.1080/00268976.2014.952696

 Q-Chem 5.2.1 for Intel X86 EM64T Linux

 Parts of Q-Chem use Armadillo 8.300.2 (Tropical Shenanigans).
 http://arma.sourceforge.net/

 Q-Chem begins on Mon May 10 09:09:13 2021  

compute-0-7.local
Host: 0

     Scratch files written to /home/meili/scratch/qchem56298//
NAlpha2: 80
NElect   80
Mult     1

 Q-Chem warning in module libgen/rem_setup.C, line 2813:

 Neither GIA nor STOLL is specified by user. Use STOLL as the default


Checking the input file for inconsistencies... 	...done.

--------------------------------------------------------------
User input:
--------------------------------------------------------------
$comment
1vex_ff99sbtip3p_nvt_e8_100ns_m0481_005CYX_006LEU_033SER_034LEU.pdb
$end

$molecule
0 1
--
0 1
C    11.1560000000   28.5300000000   26.8500000000
H    12.1070000000   29.0320000000   26.8050000000
C    11.2400000000   27.2540000000   26.0990000000
O    10.4190000000   26.8860000000   25.2770000000
N    12.3020000000   26.4760000000   26.3790000000
H    12.9300000000   26.9250000000   27.0860000000
C    12.6230000000   25.1420000000   25.7030000000
H    11.8040000000   24.9180000000   25.0270000000
H    10.9060000000   28.3280000000   27.8710000000
H    10.4010000000   29.1520000000   26.4170000000
H    13.5390000000   25.2200000000   25.1550000000
H    12.7370000000   24.3660000000   26.4310000000
--
0 1
C    14.6440000000   30.2710000000   24.8980000000
H    13.7140000000   30.2140000000   25.4330000000
C    14.5720000000   29.3180000000   23.7070000000
O    15.5990000000   28.7960000000   23.2740000000
N    13.4120000000   29.1500000000   23.1230000000
H    12.6030000000   29.5950000000   23.5000000000
C    13.0570000000   28.2350000000   22.0770000000
H    13.2500000000   27.2970000000   22.4080000000
H    14.8010000000   31.2710000000   24.5520000000
H    15.4550000000   29.9980000000   25.5400000000
H    12.0170000000   28.3330000000   21.8450000000
H    13.6200000000   28.4420000000   21.1910000000
$end

$rem
JOBTYPE			EDA
EDA2			1
method			wB97X-V
BASIS			def2-TZVPD
XC_GRID			000099000590
NL_GRID			1
UNRESTRICTED		FALSE
MAX_SCF_CYCLES		200
SYMMETRY		FALSE
SYM_IGNORE		TRUE
MEM_STATIC		2000
BASIS_LIN_DEP_THRESH 	6
THRESH 			14
SCF_CONVERGENCE 	8
SCF_PRINT_FRGM 		TRUE
$end
--------------------------------------------------------------
 ----------------------------------------------------------------
             Standard Nuclear Orientation (Angstroms)
    I     Atom           X                Y                Z
 ----------------------------------------------------------------
    1      C      11.1560000000    28.5300000000    26.8500000000
    2      H      12.1070000000    29.0320000000    26.8050000000
    3      C      11.2400000000    27.2540000000    26.0990000000
    4      O      10.4190000000    26.8860000000    25.2770000000
    5      N      12.3020000000    26.4760000000    26.3790000000
    6      H      12.9300000000    26.9250000000    27.0860000000
    7      C      12.6230000000    25.1420000000    25.7030000000
    8      H      11.8040000000    24.9180000000    25.0270000000
    9      H      10.9060000000    28.3280000000    27.8710000000
   10      H      10.4010000000    29.1520000000    26.4170000000
   11      H      13.5390000000    25.2200000000    25.1550000000
   12      H      12.7370000000    24.3660000000    26.4310000000
   13      C      14.6440000000    30.2710000000    24.8980000000
   14      H      13.7140000000    30.2140000000    25.4330000000
   15      C      14.5720000000    29.3180000000    23.7070000000
   16      O      15.5990000000    28.7960000000    23.2740000000
   17      N      13.4120000000    29.1500000000    23.1230000000
   18      H      12.6030000000    29.5950000000    23.5000000000
   19      C      13.0570000000    28.2350000000    22.0770000000
   20      H      13.2500000000    27.2970000000    22.4080000000
   21      H      14.8010000000    31.2710000000    24.5520000000
   22      H      15.4550000000    29.9980000000    25.5400000000
   23      H      12.0170000000    28.3330000000    21.8450000000
   24      H      13.6200000000    28.4420000000    21.1910000000
 ----------------------------------------------------------------
 Nuclear Repulsion Energy =         535.92572678 hartrees
 There are       40 alpha and       40 beta electrons
 Requested basis set is def2-TZVPD
 There are 202 shells and 502 basis functions

 Total QAlloc Memory Limit   2000 MB
 Mega-Array Size      1956 MB
 MEM_STATIC part      2000 MB
 A cutoff of  1.0D-14 yielded  18252 shell pairs
 There are    112734 function pairs (    140295 Cartesian)
 Smallest overlap matrix eigenvalue = 4.48E-06

 Scale SEOQF with 1.000000e-02/1.000000e-03/1.000000e-03

 Standard Electronic Orientation quadrupole field applied
 Nucleus-field energy     =     0.0000000405 hartrees

 -----------------------------------------------------------------------
  General SCF calculation program by
  Eric Jon Sundstrom, Paul Horn, Yuezhi Mao, Dmitri Zuev, Alec White,
  David Stuck, Shaama M.S., Shane Yost, Joonho Lee, David Small,
  Daniel Levine, Susi Lehtola, Hugh Burton, Evgeny Epifanovsky,
  Bang C. Huynh
 -----------------------------------------------------------------------
================================================================
                 ALMO-EDA with the EDA2 driver                  
================================================================
 The second-generation ALMO-EDA (for DFT):                      
 P. R. Horn, Y. Mao and M. Head-Gordon, PCCP, 18, 23067 (2016)  
 Decomposition of the frozen energy:                            
 P. R. Horn, Y. Mao and M. Head-Gordon, JCP, 144, 114107 (2016) 
 FERF model for polarization:                                   
 P. R. Horn and M. Head-Gordon, JCP, 143, 114111 (2015)         
Using eda2 option set 1
Option set summary: Frozen orbital wavefunction, initial wavefunction decomposition, and nDQ polarization.
--------------------------------
Printing EDA Options
--------------------------------
eda_child_super_basis      0
fragmo_guess_mode          0
child_mp                   1
child_mp_orders            232
cls_elec                   1
cls_disp                   0
scfmi_mode                 1
scfmi_occs                 0
scfmi_virts                0
frz_relax                  0
frz_relax_method           0
dc_pen_start               0
dc_pen_conv                0
dc_pen_increment           0
dc_pen_steps               0
dc_pen_thresh_factor       0
dc_pen_pre_newton_thresh   0
frz_ortho_decomp           1
frz_ortho_decomp_conv      6
frgm_method                2
scfmi_freeze_ss            0
separate_rehyb             0
plot_diff_den              0
eda_nocv                   0
eda_vct_relax              1
disp_free_x                0
disp_free_c                0
eda_bsse                   0
eda_pct_a                  0
eda_covp                   0
--------------------------------
Attempting to make child job directory: /home/meili/scratch/qchem56298//Frg1/
Attempting to make child job directory: /home/meili/scratch/qchem56298//Frg2/
Creating input file /home/meili/scratch/qchem56298/Frg1.input
using default PutDataFrgm: nothing
calling putenv with: QCSCRATCH=/home/meili/scratch/qchem56298/ 
Spawning Job For Fragment 0
                  Welcome to Q-Chem
     A Quantum Leap Into The Future Of Chemistry


 Q-Chem 5.2 (devel), Q-Chem, Inc., Pleasanton, CA (2019)

 Yihan Shao,  Zhengting Gan,  E. Epifanovsky,  A. T. B. Gilbert,  M. Wormit,  
 J. Kussmann,  A. W. Lange,  A. Behn,  Jia Deng,  Xintian Feng,  D. Ghosh,  
 M. Goldey,  P. R. Horn,  L. D. Jacobson,  I. Kaliman,  T. Kus,  A. Landau,  
 Jie Liu,  E. I. Proynov,  R. M. Richard,  R. P. Steele,  E. J. Sundstrom,  
 H. L. Woodcock III,  P. M. Zimmerman,  D. Zuev,  B. Albrecht,  E. Alguire,  
 S. A. Baeppler,  D. Barton,  Z. Benda,  Y. A. Bernard,  E. J. Berquist,  
 K. B. Bravaya,  H. Burton,  D. Casanova,  Chun-Min Chang,  Yunqing Chen,  
 A. Chien,  K. D. Closser,  M. P. Coons,  S. Coriani,  S. Dasgupta,  
 A. L. Dempwolff,  M. Diedenhofen,  Hainam Do,  R. G. Edgar,  Po-Tung Fang,  
 S. Faraji,  S. Fatehi,  Qingguo Feng,  K. D. Fenk,  J. Fosso-Tande,  
 J. Gayvert,  Qinghui Ge,  A. Ghysels,  G. Gidofalvi,  J. Gomes,  
 J. Gonthier,  A. Gunina,  D. Hait,  M. W. D. Hanson-Heine,  
 P. H. P. Harbach,  A. W. Hauser,  M. F. Herbst,  J. E. Herr,  
 E. G. Hohenstein,  Z. C. Holden,  Kerwin Hui,  B. C. Huynh,  T.-C. Jagau,  
 Hyunjun Ji,  B. Kaduk,  K. Khistyaev,  Jaehoon Kim,  P. Klunzinger,  K. Koh,  
 D. Kosenkov,  L. Koulias,  T. Kowalczyk,  C. M. Krauter,  A. Kunitsa,  
 Ka Un Lao,  A. Laurent,  K. V. Lawler,  Joonho Lee,  D. Lefrancois,  
 S. Lehtola,  D. S. Levine,  Yi-Pei Li,  You-Sheng Lin,  Fenglai Liu,  
 E. Livshits,  A. Luenser,  P. Manohar,  E. Mansoor,  S. F. Manzer,  
 Shan-Ping Mao,  Yuezhi Mao,  N. Mardirossian,  A. V. Marenich,  
 T. Markovich,  L. A. Martinez-Martinez,  S. A. Maurer,  N. J. Mayhall,  
 S. C. McKenzie,  J.-M. Mewes,  P. Morgante,  A. F. Morrison,  
 J. W. Mullinax,  K. Nanda,  T. S. Nguyen-Beck,  R. Olivares-Amaya,  
 J. A. Parkhill,  Zheng Pei,  T. M. Perrine,  F. Plasser,  P. Pokhilko,  
 S. Prager,  A. Prociuk,  E. Ramos,  D. R. Rehn,  F. Rob,  M. Scheurer,  
 M. Schneider,  N. Sergueev,  S. M. Sharada,  S. Sharma,  D. W. Small,  
 T. Stauch,  T. Stein,  Yu-Chuan Su,  A. J. W. Thom,  A. Tkatchenko,  
 T. Tsuchimochi,  N. M. Tubman,  L. Vogt,  M. L. Vidal,  O. Vydrov,  
 M. A. Watson,  J. Wenzel,  M. de Wergifosse,  T. A. Wesolowski,  A. White,  
 J. Witte,  A. Yamada,  Jun Yang,  K. Yao,  S. Yeganeh,  S. R. Yost,  
 Zhi-Qiang You,  A. Zech,  Igor Ying Zhang,  Xing Zhang,  Yan Zhao,  
 Ying Zhu,  B. R. Brooks,  G. K. L. Chan,  C. J. Cramer,  M. S. Gordon,  
 W. J. Hehre,  A. Klamt,  M. W. Schmidt,  C. D. Sherrill,  D. G. Truhlar,  
 A. Aspuru-Guzik,  R. Baer,  A. T. Bell,  N. A. Besley,  Jeng-Da Chai,  
 A. E. DePrince, III,  R. A. DiStasio Jr.,  A. Dreuw,  B. D. Dunietz,  
 T. R. Furlani,  Chao-Ping Hsu,  Yousung Jung,  Jing Kong,  D. S. Lambrecht,  
 WanZhen Liang,  C. Ochsenfeld,  V. A. Rassolov,  L. V. Slipchenko,  
 J. E. Subotnik,  T. Van Voorhis,  J. M. Herbert,  A. I. Krylov,  
 P. M. W. Gill,  M. Head-Gordon

 Contributors to earlier versions of Q-Chem not listed above: 
 R. D. Adamson,  B. Austin,  J. Baker,  G. J. O. Beran,  K. Brandhorst,  
 S. T. Brown,  E. F. C. Byrd,  A. K. Chakraborty,  C.-L. Cheng,  
 Siu Hung Chien,  D. M. Chipman,  D. L. Crittenden,  H. Dachsel,  
 R. J. Doerksen,  A. D. Dutoi,  L. Fusti-Molnar,  W. A. Goddard III,  
 A. Golubeva-Zadorozhnaya,  S. R. Gwaltney,  G. Hawkins,  A. Heyden,  
 S. Hirata,  G. Kedziora,  F. J. Keil,  C. Kelley,  Jihan Kim,  R. A. King,  
 R. Z. Khaliullin,  P. P. Korambath,  W. Kurlancheek,  A. M. Lee,  M. S. Lee,  
 S. V. Levchenko,  Ching Yeh Lin,  D. Liotard,  R. C. Lochan,  I. Lotan,  
 P. E. Maslen,  N. Nair,  D. P. O'Neill,  D. Neuhauser,  E. Neuscamman,  
 C. M. Oana,  R. Olson,  B. Peters,  R. Peverati,  P. A. Pieniazek,  
 Y. M. Rhee,  J. Ritchie,  M. A. Rohrdanz,  E. Rosta,  N. J. Russ,  
 H. F. Schaefer III,  N. E. Schultz,  N. Shenvi,  A. C. Simmonett,  A. Sodt,  
 D. Stuck,  K. S. Thanthiriwatte,  V. Vanovschi,  Tao Wang,  A. Warshel,  
 C. F. Williams,  Q. Wu,  X. Xu,  W. Zhang

 Please cite Q-Chem as follows:
 Y. Shao et al., Mol. Phys. 113, 184-215 (2015)
 DOI: 10.1080/00268976.2014.952696

 Q-Chem 5.2.1 for Intel X86 EM64T Linux

 Parts of Q-Chem use Armadillo 8.300.2 (Tropical Shenanigans).
 http://arma.sourceforge.net/

 Q-Chem begins on Mon May 10 09:10:43 2021  

compute-0-7.local
Host: 0

     Scratch files written to /home/meili/scratch/qchem56298//Frg1//
NAlpha2: 40
NElect   40
Mult     1

Checking the input file for inconsistencies... 	...done.

--------------------------------------------------------------
User input:
--------------------------------------------------------------
$molecule
0 1
 6	11.1560000000	28.5300000000	26.8500000000
 1	12.1070000000	29.0320000000	26.8050000000
 6	11.2400000000	27.2540000000	26.0990000000
 8	10.4190000000	26.8860000000	25.2770000000
 7	12.3020000000	26.4760000000	26.3790000000
 1	12.9300000000	26.9250000000	27.0860000000
 6	12.6230000000	25.1420000000	25.7030000000
 1	11.8040000000	24.9180000000	25.0270000000
 1	10.9060000000	28.3280000000	27.8710000000
 1	10.4010000000	29.1520000000	26.4170000000
 1	13.5390000000	25.2200000000	25.1550000000
 1	12.7370000000	24.3660000000	26.4310000000
$end
$rem
EDA2		1
METHOD		WB97X-V
BASIS		DEF2-TZVPD
XC_GRID		000099000590
NL_GRID		1
UNRESTRICTED		FALSE
MAX_SCF_CYCLES		200
SYMMETRY		FALSE
SYM_IGNORE		TRUE
BASIS_LIN_DEP_THRESH		6
THRESH		14
SCF_CONVERGENCE		8
SCF_PRINT_FRGM		TRUE
!required keywords
JOBTYPE		SP
SYM_IGNORE		TRUE
SUBSYSTEM		TRUE
GEN_SCFMAN		TRUE
CHILD_INSTRUCTION		2
SYM_IGNORE		TRUE
SCFMI		0
RI_K 0		
PARI_K 0		
MIN_PARI_K 0		
IARI_K 0		
OCC_RI_K 0		
PURECART		1111
MEM_STATIC		2000
MEM_TOTAL		2000
GUI		0
CHILD_MP		1
CHILD_MP_ORDERS		232
FRZ_RELAX		0
FRZ_RELAX_METHOD		0
EDA_CLS_ELEC		1
EDA_CLS_DISP		0
FRZ_ORTHO_DECOMP		1
EDA2		FALSE
FRGM_METHOD		FALSE
CIS_N_ROOTS  0
LOCAL_CIS    0
CIS_RLX_DNS  1
$end
--------------------------------------------------------------
 ----------------------------------------------------------------
             Standard Nuclear Orientation (Angstroms)
    I     Atom           X                Y                Z
 ----------------------------------------------------------------
    1      C      11.1560000000    28.5300000000    26.8500000000
    2      H      12.1070000000    29.0320000000    26.8050000000
    3      C      11.2400000000    27.2540000000    26.0990000000
    4      O      10.4190000000    26.8860000000    25.2770000000
    5      N      12.3020000000    26.4760000000    26.3790000000
    6      H      12.9300000000    26.9250000000    27.0860000000
    7      C      12.6230000000    25.1420000000    25.7030000000
    8      H      11.8040000000    24.9180000000    25.0270000000
    9      H      10.9060000000    28.3280000000    27.8710000000
   10      H      10.4010000000    29.1520000000    26.4170000000
   11      H      13.5390000000    25.2200000000    25.1550000000
   12      H      12.7370000000    24.3660000000    26.4310000000
 ----------------------------------------------------------------
 Nuclear Repulsion Energy =         179.98412721 hartrees
 There are       20 alpha and       20 beta electrons
 Requested basis set is def2-TZVPD
 There are 101 shells and 251 basis functions

 Total QAlloc Memory Limit   2000 MB
 Mega-Array Size      1956 MB
 MEM_STATIC part      2000 MB

                       Distance Matrix (Angstroms)
             C (  1)   H (  2)   C (  3)   O (  4)   N (  5)   H (  6)
   H (  2)  1.076304
   C (  3)  1.482981  2.100335
   O (  4)  2.391701  3.128809  1.218667
   N (  5)  2.398765  2.598584  1.345930  2.219953
   H (  6)  2.403913  2.279416  1.984568  3.095016  1.046821
   C (  7)  3.866037  4.075875  2.555396  2.842645  1.529566  2.277285
   H (  8)  4.097533  4.492003  2.631383  2.419452  2.122091  3.087945
   H (  9)  1.070395  1.753389  2.098813  3.007552  2.757677  2.584804
   H ( 10)  1.069765  1.753676  2.099393  2.536667  3.282715  3.435539
   H ( 11)  4.416765  4.393685  3.211494  3.539045  2.146132  2.647011
   H ( 12)  4.473703  4.723170  3.269828  3.613204  2.155001  2.648538
             C (  7)   H (  8)   H (  9)   H ( 10)   H ( 11)
   H (  8)  1.085317
   H (  9)  4.218875  4.530214
   H ( 10)  4.639739  4.671966  1.745886
   H ( 11)  1.070254  1.765733  4.895815  5.186551
   H ( 12)  1.070120  1.773812  4.596042  5.325682  1.732252

 A cutoff of  1.0D-14 yielded   5024 shell pairs
 There are     31612 function pairs (     39762 Cartesian)
 Smallest overlap matrix eigenvalue = 6.05E-06

 Scale SEOQF with 1.000000e-02/1.000000e-03/1.000000e-03

 Standard Electronic Orientation quadrupole field applied
 Nucleus-field energy     =     0.0000000108 hartrees
 Guess from superposition of atomic densities
 Warning:  Energy on first SCF cycle will be non-variational
 SAD guess density has 40.000000 electrons

 -----------------------------------------------------------------------
  General SCF calculation program by
  Eric Jon Sundstrom, Paul Horn, Yuezhi Mao, Dmitri Zuev, Alec White,
  David Stuck, Shaama M.S., Shane Yost, Joonho Lee, David Small,
  Daniel Levine, Susi Lehtola, Hugh Burton, Evgeny Epifanovsky,
  Bang C. Huynh
 -----------------------------------------------------------------------
 Exchange:     0.1670 Hartree-Fock + 1.0000 wB97X-V + LR-HF
 Correlation:  1.0000 wB97X-V
 Using Euler-Maclaurin-Lebedev (99,590) quadrature formula
 Nonlocal Correlation:  VV10 with C = 0.0100 and b = 6.00 and scale = 1.00000
 Grid used for NLC:  SG-1 standard quadrature
Energy prior to optimization (guess energy) = -248.419120864107
Begin Timing: Total SCF Calculation
begin iterations for algorithm: DIIS         
the SCF tolerance is set to 1.00e-08
    1    -248.4191208641      4.21e-03     00000 
    2    -248.3646895162      5.66e-03     00000 
    3    -248.5357030635      5.02e-04     00000 
    4    -248.5372442556      2.24e-04     00000 
    5    -248.5375807184      5.73e-05     00000 
    6    -248.5376098620      2.03e-05     00000 
    7    -248.5376151941      5.51e-06     00000 
    8    -248.5376158751      1.54e-06     00000 
    9    -248.5376159175      5.54e-07     00000 
   10    -248.5376159210      1.10e-07     00000 
   11    -248.5376159212      2.46e-08     00000 
   12    -248.5376159212      1.02e-08     00000 
   13    -248.5376159212      2.10e-09     00000 Convergence criterion met
Timing for Total SCF: 270.00s (wall), 1621.81s (cpu)
Multipole orders to be included
        2
        3
computing dipole RHS
computing quadrupole RHS
total number of RHS in solve_reponses: 8
RHS batch sizes
        8
Beginning Block Conjugate Gradient Iterations. Batch Number: 0
computing hessian-vector products by finite difference
              1      4.80e-01     00000 Conjugate Gradient Iteration
computing hessian-vector products by finite difference
              2      1.56e-01     00000 Conjugate Gradient Iteration
computing hessian-vector products by finite difference
              3      3.92e-02     00000 Conjugate Gradient Iteration
computing hessian-vector products by finite difference
              4      9.64e-03     00000 Conjugate Gradient Iteration
computing hessian-vector products by finite difference
              5      1.88e-03     00000 Conjugate Gradient Iteration
computing hessian-vector products by finite difference
              6      3.55e-04     00000 Conjugate Gradient Iteration
computing hessian-vector products by finite difference
              7      5.29e-05     00000 Conjugate Gradient Iteration
computing hessian-vector products by finite difference
              8      7.99e-06     00000 Conjugate Gradient Iteration
computing hessian-vector products by finite difference
              9      1.29e-06     00000 Conjugate Gradient Iteration
computing hessian-vector products by finite difference
             10      1.91e-07     00000 Conjugate Gradient Iteration
computing hessian-vector products by finite difference
             11      2.85e-08     00000 Conjugate Gradient Iteration
computing hessian-vector products by finite difference
             12      3.14e-09     00000 CG Converged
batch 0 complete
Done Calculating Responses
TESTING ORTHOGONALIZATION OF MULTIPOLE BASIS
Multipole virts passed orthogonality test
Virts Per Order
           60
          100

 --------------------------------------------------------------

                    Orbital Energies (a.u.)
 --------------------------------------------------------------

 Alpha MOs
 -- Occupied --
-19.1608 -14.4351 -10.3600 -10.3045 -10.2669  -1.1610  -1.0360  -0.8927
 -0.8253  -0.6800  -0.6206  -0.5808  -0.5783  -0.5426  -0.5208  -0.5066
 -0.4930  -0.4668  -0.3552  -0.3523
 -- Virtual --
  0.0552   0.0769   0.0965   0.1051   0.1080   0.1271   0.1360   0.1399
  0.1489   0.1622   0.1653   0.1817   0.1888   0.2038   0.2170   0.2270
  0.2331   0.2369   0.2502   0.2647   0.2680   0.2705   0.2928   0.2963
  0.3085   0.3152   0.3178   0.3310   0.3426   0.3519   0.3551   0.3664
  0.3689   0.3701   0.3816   0.3863   0.3929   0.3981   0.4097   0.4104
  0.4288   0.4434   0.4515   0.4637   0.4714   0.4781   0.4834   0.4883
  0.4959   0.5040   0.5147   0.5171   0.5315   0.5392   0.5471   0.5587
  0.5687   0.5722   0.5950   0.6020   0.6158   0.6305   0.6517   0.6570
  0.6642   0.6966   0.7023   0.7160   0.7462   0.7482   0.7571   0.7605
  0.7671   0.7921   0.8072   0.8129   0.8206   0.8251   0.8309   0.8521
  0.8649   0.8743   0.8916   0.9126   0.9426   0.9627   0.9694   1.0037
  1.0295   1.0457   1.0580   1.0920   1.1291   1.1529   1.1880   1.2086
  1.2278   1.2430   1.2547   1.2689   1.3039   1.3534   1.3668   1.3716
  1.4093   1.4685   1.5250   1.5349   1.6128   1.6652   1.7244   1.7375
  1.7838   1.8291   1.8438   1.8536   1.8721   1.8822   1.9105   1.9171
  1.9367   1.9501   1.9860   2.0135   2.0264   2.0554   2.1047   2.1217
  2.1435   2.2073   2.2293   2.2783   2.2866   2.3355   2.3567   2.3687
  2.3764   2.4530   2.4662   2.4946   2.5216   2.5619   2.5669   2.5915
  2.6195   2.6481   2.6577   2.7008   2.7086   2.7910   2.8190   2.8360
  2.8546   2.8803   2.9118   2.9382   2.9823   3.0149   3.0580   3.1087
  3.1861   3.1972   3.2324   3.2510   3.2614   3.2982   3.3138   3.3232
  3.3419   3.3651   3.3994   3.4128   3.4557   3.4862   3.5045   3.5395
  3.5633   3.5893   3.6012   3.6310   3.6597   3.6783   3.7076   3.7385
  3.7691   3.8886   3.9193   3.9930   4.0695   4.0948   4.1363   4.1780
  4.2806   4.3992   4.4200   4.4990   4.5297   4.6295   4.6861   4.6954
  4.7382   4.8728   4.9008   4.9220   5.0226   5.1713   5.2216   5.2263
  5.2889   5.4040   5.4244   5.4956   5.5817   5.6568   5.7599   5.8068
  5.9978   6.0765   6.3167   6.5626   6.6711   6.8071   6.9035   7.0166
  7.2926   7.3660  22.6046  22.7098  23.6646  32.6805  44.3694
 --------------------------------------------------------------

          Ground-State Mulliken Net Atomic Charges

     Atom                 Charge (a.u.)
  ----------------------------------------
      1 C                    -0.818437
      2 H                     0.253692
      3 C                     0.599845
      4 O                    -0.550505
      5 N                    -0.121601
      6 H                     0.173731
      7 C                    -0.677290
      8 H                     0.287871
      9 H                     0.221039
     10 H                     0.186507
     11 H                     0.224295
     12 H                     0.220853
  ----------------------------------------
  Sum of atomic charges =     0.000000

 -----------------------------------------------------------------
                    Cartesian Multipole Moments
 -----------------------------------------------------------------
    Charge (ESU x 10^10)
                -0.0000
    Dipole Moment (Debye)
         X       3.1743      Y       0.2150      Z       2.3251
       Tot       3.9406
    Quadrupole Moments (Debye-Ang)
        XX      41.0417     XY      86.0762     YY     -15.4972
        XZ     107.7530     YZ      69.6886     ZZ      89.6189
    Octopole Moments (Debye-Ang^2)
       XXX     153.9166    XXY    1092.3172    XYY    2020.9211
       YYY   -1715.9827    XXZ    1340.9165    XYZ    2934.6186
       YYZ    1359.2353    XZZ    3096.9953    YZZ    2638.2628
       ZZZ    2268.5769
    Hexadecapole Moments (Debye-Ang^3)
      XXXX   -6353.9385   XXXY    3853.6551   XXYY   25369.8200
      XYYY   38093.0042   YYYY -100929.6732   XXXZ    6971.2847
      XXYZ   35966.4783   XYYZ   71726.0636   YYYZ    3655.0734
      XXZZ   37787.0820   XYZZ   84756.6678   YYZZ   58518.2408
      XZZZ   78752.7404   YZZZ   68018.6511   ZZZZ   35790.5611
 -----------------------------------------------------------------
Archival summary:
1\1\compute-0-7.local\SP\ProcedureUnspecified\BasisUnspecified\1137\meili\MonMay1010:29:002021MonMay1010:29:002021\0\\#,ProcedureUnspecified,BasisUnspecified,\\0,1\C\O,1,1.21867\N,1,1.34593,2,119.824\H,3,1.04682,1,111.465,2,178.877,0\C,1,1.48298,2,124.28,3,-179.507,0\H,5,1.06977,1,109.59,2,-11.8947,0\H,5,1.07039,1,109.505,2,108.023,0\H,5,1.0763,1,109.274,2,-132.007,0\C,3,1.52957,1,125.295,2,2.46692,0\H,9,1.07012,3,110.74,1,-125.214,0\H,9,1.07025,3,110.02,1,115.395,0\H,9,1.08532,3,107.272,1,-4.23907,0\\\@

 Total job time:  4696.17s(wall), 28690.55s(cpu) 
 Mon May 10 10:29:00 2021

        *************************************************************
        *                                                           *
        *  Thank you very much for using Q-Chem.  Have a nice day.  *
        *                                                           *
        *************************************************************


Done Job For Fragment 0
calling putenv with: QCSCRATCH=/home/meili/scratch 
calling putenv with: QCTHREADS=8 
Creating input file /home/meili/scratch/qchem56298/Frg2.input
using default PutDataFrgm: nothing
calling putenv with: QCSCRATCH=/home/meili/scratch/qchem56298/ 
Spawning Job For Fragment 1
                  Welcome to Q-Chem
     A Quantum Leap Into The Future Of Chemistry


 Q-Chem 5.2 (devel), Q-Chem, Inc., Pleasanton, CA (2019)

 Yihan Shao,  Zhengting Gan,  E. Epifanovsky,  A. T. B. Gilbert,  M. Wormit,  
 J. Kussmann,  A. W. Lange,  A. Behn,  Jia Deng,  Xintian Feng,  D. Ghosh,  
 M. Goldey,  P. R. Horn,  L. D. Jacobson,  I. Kaliman,  T. Kus,  A. Landau,  
 Jie Liu,  E. I. Proynov,  R. M. Richard,  R. P. Steele,  E. J. Sundstrom,  
 H. L. Woodcock III,  P. M. Zimmerman,  D. Zuev,  B. Albrecht,  E. Alguire,  
 S. A. Baeppler,  D. Barton,  Z. Benda,  Y. A. Bernard,  E. J. Berquist,  
 K. B. Bravaya,  H. Burton,  D. Casanova,  Chun-Min Chang,  Yunqing Chen,  
 A. Chien,  K. D. Closser,  M. P. Coons,  S. Coriani,  S. Dasgupta,  
 A. L. Dempwolff,  M. Diedenhofen,  Hainam Do,  R. G. Edgar,  Po-Tung Fang,  
 S. Faraji,  S. Fatehi,  Qingguo Feng,  K. D. Fenk,  J. Fosso-Tande,  
 J. Gayvert,  Qinghui Ge,  A. Ghysels,  G. Gidofalvi,  J. Gomes,  
 J. Gonthier,  A. Gunina,  D. Hait,  M. W. D. Hanson-Heine,  
 P. H. P. Harbach,  A. W. Hauser,  M. F. Herbst,  J. E. Herr,  
 E. G. Hohenstein,  Z. C. Holden,  Kerwin Hui,  B. C. Huynh,  T.-C. Jagau,  
 Hyunjun Ji,  B. Kaduk,  K. Khistyaev,  Jaehoon Kim,  P. Klunzinger,  K. Koh,  
 D. Kosenkov,  L. Koulias,  T. Kowalczyk,  C. M. Krauter,  A. Kunitsa,  
 Ka Un Lao,  A. Laurent,  K. V. Lawler,  Joonho Lee,  D. Lefrancois,  
 S. Lehtola,  D. S. Levine,  Yi-Pei Li,  You-Sheng Lin,  Fenglai Liu,  
 E. Livshits,  A. Luenser,  P. Manohar,  E. Mansoor,  S. F. Manzer,  
 Shan-Ping Mao,  Yuezhi Mao,  N. Mardirossian,  A. V. Marenich,  
 T. Markovich,  L. A. Martinez-Martinez,  S. A. Maurer,  N. J. Mayhall,  
 S. C. McKenzie,  J.-M. Mewes,  P. Morgante,  A. F. Morrison,  
 J. W. Mullinax,  K. Nanda,  T. S. Nguyen-Beck,  R. Olivares-Amaya,  
 J. A. Parkhill,  Zheng Pei,  T. M. Perrine,  F. Plasser,  P. Pokhilko,  
 S. Prager,  A. Prociuk,  E. Ramos,  D. R. Rehn,  F. Rob,  M. Scheurer,  
 M. Schneider,  N. Sergueev,  S. M. Sharada,  S. Sharma,  D. W. Small,  
 T. Stauch,  T. Stein,  Yu-Chuan Su,  A. J. W. Thom,  A. Tkatchenko,  
 T. Tsuchimochi,  N. M. Tubman,  L. Vogt,  M. L. Vidal,  O. Vydrov,  
 M. A. Watson,  J. Wenzel,  M. de Wergifosse,  T. A. Wesolowski,  A. White,  
 J. Witte,  A. Yamada,  Jun Yang,  K. Yao,  S. Yeganeh,  S. R. Yost,  
 Zhi-Qiang You,  A. Zech,  Igor Ying Zhang,  Xing Zhang,  Yan Zhao,  
 Ying Zhu,  B. R. Brooks,  G. K. L. Chan,  C. J. Cramer,  M. S. Gordon,  
 W. J. Hehre,  A. Klamt,  M. W. Schmidt,  C. D. Sherrill,  D. G. Truhlar,  
 A. Aspuru-Guzik,  R. Baer,  A. T. Bell,  N. A. Besley,  Jeng-Da Chai,  
 A. E. DePrince, III,  R. A. DiStasio Jr.,  A. Dreuw,  B. D. Dunietz,  
 T. R. Furlani,  Chao-Ping Hsu,  Yousung Jung,  Jing Kong,  D. S. Lambrecht,  
 WanZhen Liang,  C. Ochsenfeld,  V. A. Rassolov,  L. V. Slipchenko,  
 J. E. Subotnik,  T. Van Voorhis,  J. M. Herbert,  A. I. Krylov,  
 P. M. W. Gill,  M. Head-Gordon

 Contributors to earlier versions of Q-Chem not listed above: 
 R. D. Adamson,  B. Austin,  J. Baker,  G. J. O. Beran,  K. Brandhorst,  
 S. T. Brown,  E. F. C. Byrd,  A. K. Chakraborty,  C.-L. Cheng,  
 Siu Hung Chien,  D. M. Chipman,  D. L. Crittenden,  H. Dachsel,  
 R. J. Doerksen,  A. D. Dutoi,  L. Fusti-Molnar,  W. A. Goddard III,  
 A. Golubeva-Zadorozhnaya,  S. R. Gwaltney,  G. Hawkins,  A. Heyden,  
 S. Hirata,  G. Kedziora,  F. J. Keil,  C. Kelley,  Jihan Kim,  R. A. King,  
 R. Z. Khaliullin,  P. P. Korambath,  W. Kurlancheek,  A. M. Lee,  M. S. Lee,  
 S. V. Levchenko,  Ching Yeh Lin,  D. Liotard,  R. C. Lochan,  I. Lotan,  
 P. E. Maslen,  N. Nair,  D. P. O'Neill,  D. Neuhauser,  E. Neuscamman,  
 C. M. Oana,  R. Olson,  B. Peters,  R. Peverati,  P. A. Pieniazek,  
 Y. M. Rhee,  J. Ritchie,  M. A. Rohrdanz,  E. Rosta,  N. J. Russ,  
 H. F. Schaefer III,  N. E. Schultz,  N. Shenvi,  A. C. Simmonett,  A. Sodt,  
 D. Stuck,  K. S. Thanthiriwatte,  V. Vanovschi,  Tao Wang,  A. Warshel,  
 C. F. Williams,  Q. Wu,  X. Xu,  W. Zhang

 Please cite Q-Chem as follows:
 Y. Shao et al., Mol. Phys. 113, 184-215 (2015)
 DOI: 10.1080/00268976.2014.952696

 Q-Chem 5.2.1 for Intel X86 EM64T Linux

 Parts of Q-Chem use Armadillo 8.300.2 (Tropical Shenanigans).
 http://arma.sourceforge.net/

 Q-Chem begins on Mon May 10 10:29:00 2021  

compute-0-7.local
Host: 0

     Scratch files written to /home/meili/scratch/qchem56298//Frg2//
NAlpha2: 40
NElect   40
Mult     1

Checking the input file for inconsistencies... 	...done.

--------------------------------------------------------------
User input:
--------------------------------------------------------------
$molecule
0 1
 6	14.6440000000	30.2710000000	24.8980000000
 1	13.7140000000	30.2140000000	25.4330000000
 6	14.5720000000	29.3180000000	23.7070000000
 8	15.5990000000	28.7960000000	23.2740000000
 7	13.4120000000	29.1500000000	23.1230000000
 1	12.6030000000	29.5950000000	23.5000000000
 6	13.0570000000	28.2350000000	22.0770000000
 1	13.2500000000	27.2970000000	22.4080000000
 1	14.8010000000	31.2710000000	24.5520000000
 1	15.4550000000	29.9980000000	25.5400000000
 1	12.0170000000	28.3330000000	21.8450000000
 1	13.6200000000	28.4420000000	21.1910000000
$end
$rem
EDA2		1
METHOD		WB97X-V
BASIS		DEF2-TZVPD
XC_GRID		000099000590
NL_GRID		1
UNRESTRICTED		FALSE
MAX_SCF_CYCLES		200
SYMMETRY		FALSE
SYM_IGNORE		TRUE
BASIS_LIN_DEP_THRESH		6
THRESH		14
SCF_CONVERGENCE		8
SCF_PRINT_FRGM		TRUE
!required keywords
JOBTYPE		SP
SYM_IGNORE		TRUE
SUBSYSTEM		TRUE
GEN_SCFMAN		TRUE
CHILD_INSTRUCTION		2
SYM_IGNORE		TRUE
SCFMI		0
RI_K 0		
PARI_K 0		
MIN_PARI_K 0		
IARI_K 0		
OCC_RI_K 0		
PURECART		1111
MEM_STATIC		2000
MEM_TOTAL		2000
GUI		0
CHILD_MP		1
CHILD_MP_ORDERS		232
FRZ_RELAX		0
FRZ_RELAX_METHOD		0
EDA_CLS_ELEC		1
EDA_CLS_DISP		0
FRZ_ORTHO_DECOMP		1
EDA2		FALSE
FRGM_METHOD		FALSE
CIS_N_ROOTS  0
LOCAL_CIS    0
CIS_RLX_DNS  1
$end
--------------------------------------------------------------
 ----------------------------------------------------------------
             Standard Nuclear Orientation (Angstroms)
    I     Atom           X                Y                Z
 ----------------------------------------------------------------
    1      C      14.6440000000    30.2710000000    24.8980000000
    2      H      13.7140000000    30.2140000000    25.4330000000
    3      C      14.5720000000    29.3180000000    23.7070000000
    4      O      15.5990000000    28.7960000000    23.2740000000
    5      N      13.4120000000    29.1500000000    23.1230000000
    6      H      12.6030000000    29.5950000000    23.5000000000
    7      C      13.0570000000    28.2350000000    22.0770000000
    8      H      13.2500000000    27.2970000000    22.4080000000
    9      H      14.8010000000    31.2710000000    24.5520000000
   10      H      15.4550000000    29.9980000000    25.5400000000
   11      H      12.0170000000    28.3330000000    21.8450000000
   12      H      13.6200000000    28.4420000000    21.1910000000
 ----------------------------------------------------------------
 Nuclear Repulsion Energy =         181.58712154 hartrees
 There are       20 alpha and       20 beta electrons
 Requested basis set is def2-TZVPD
 There are 101 shells and 251 basis functions

 Total QAlloc Memory Limit   2000 MB
 Mega-Array Size      1956 MB
 MEM_STATIC part      2000 MB

                       Distance Matrix (Angstroms)
             C (  1)   H (  2)   C (  3)   O (  4)   N (  5)   H (  6)
   H (  2)  1.074418
   C (  3)  1.527047  2.125572
   O (  4)  2.392703  3.197691  1.230732
   N (  5)  2.434151  2.561133  1.309534  2.220605
   H (  6)  2.564578  2.313865  1.999135  3.108938  0.997314
   C (  7)  3.823860  3.951054  2.474877  2.865187  1.434352  2.020061
   H (  8)  4.121652  4.227861  2.742175  2.918006  1.992756  2.625238
   H (  9)  1.069750  1.753562  2.140251  2.897536  2.910327  2.957513
   H ( 10)  1.069773  1.757608  2.145222  2.569104  3.276407  3.529577
   H ( 11)  4.469651  4.392233  3.311389  3.884216  2.060776  2.162190
   H ( 12)  4.258599  4.598194  2.829123  2.894935  2.068128  2.774019
             C (  7)   H (  8)   H (  9)   H ( 10)   H ( 11)
   H (  8)  1.013239
   H (  9)  4.287710  4.774412
   H ( 10)  4.566283  4.686881  1.739077
   H ( 11)  1.070060  1.706035  4.869327  5.314611
   H ( 12)  1.069960  1.711436  4.549101  4.970127  1.734706

 A cutoff of  1.0D-14 yielded   5027 shell pairs
 There are     31619 function pairs (     39771 Cartesian)
 Smallest overlap matrix eigenvalue = 8.07E-06

 Scale SEOQF with 1.000000e-02/1.000000e-03/1.000000e-03

 Standard Electronic Orientation quadrupole field applied
 Nucleus-field energy     =     0.0000000297 hartrees
 Guess from superposition of atomic densities
 Warning:  Energy on first SCF cycle will be non-variational
 SAD guess density has 40.000000 electrons

 -----------------------------------------------------------------------
  General SCF calculation program by
  Eric Jon Sundstrom, Paul Horn, Yuezhi Mao, Dmitri Zuev, Alec White,
  David Stuck, Shaama M.S., Shane Yost, Joonho Lee, David Small,
  Daniel Levine, Susi Lehtola, Hugh Burton, Evgeny Epifanovsky,
  Bang C. Huynh
 -----------------------------------------------------------------------
 Exchange:     0.1670 Hartree-Fock + 1.0000 wB97X-V + LR-HF
 Correlation:  1.0000 wB97X-V
 Using Euler-Maclaurin-Lebedev (99,590) quadrature formula
 Nonlocal Correlation:  VV10 with C = 0.0100 and b = 6.00 and scale = 1.00000
 Grid used for NLC:  SG-1 standard quadrature
Energy prior to optimization (guess energy) = -248.410302124162
Begin Timing: Total SCF Calculation
begin iterations for algorithm: DIIS         
the SCF tolerance is set to 1.00e-08
    1    -248.4103021242      4.31e-03     00000 
    2    -248.3510351839      5.82e-03     00000 
    3    -248.5323486223      5.32e-04     00000 
    4    -248.5340634708      2.19e-04     00000 
    5    -248.5343850816      5.25e-05     00000 
    6    -248.5344094208      1.90e-05     00000 
    7    -248.5344138179      5.15e-06     00000 
    8    -248.5344143872      1.54e-06     00000 
    9    -248.5344144270      5.54e-07     00000 
   10    -248.5344144306      1.11e-07     00000 
   11    -248.5344144308      2.12e-08     00000 
   12    -248.5344144308      8.33e-09     00000 Convergence criterion met
Timing for Total SCF: 266.00s (wall), 1538.50s (cpu)
Multipole orders to be included
        2
        3
computing dipole RHS
computing quadrupole RHS
total number of RHS in solve_reponses: 8
RHS batch sizes
        8
Beginning Block Conjugate Gradient Iterations. Batch Number: 0
computing hessian-vector products by finite difference
              1      5.04e-01     00000 Conjugate Gradient Iteration
computing hessian-vector products by finite difference
              2      1.73e-01     00000 Conjugate Gradient Iteration
computing hessian-vector products by finite difference
              3      4.54e-02     00000 Conjugate Gradient Iteration
computing hessian-vector products by finite difference
              4      1.08e-02     00000 Conjugate Gradient Iteration
computing hessian-vector products by finite difference
              5      1.91e-03     00000 Conjugate Gradient Iteration
computing hessian-vector products by finite difference
              6      3.68e-04     00000 Conjugate Gradient Iteration
computing hessian-vector products by finite difference
              7      5.14e-05     00000 Conjugate Gradient Iteration
computing hessian-vector products by finite difference
              8      8.68e-06     00000 Conjugate Gradient Iteration
computing hessian-vector products by finite difference
              9      1.40e-06     00000 Conjugate Gradient Iteration
computing hessian-vector products by finite difference
             10      3.32e-07     00000 Conjugate Gradient Iteration
computing hessian-vector products by finite difference
             11      7.17e-08     00000 Conjugate Gradient Iteration
computing hessian-vector products by finite difference
             12      1.36e-08     00000 Conjugate Gradient Iteration
computing hessian-vector products by finite difference
             13      2.99e-09     00000 CG Converged
batch 0 complete
Done Calculating Responses
TESTING ORTHOGONALIZATION OF MULTIPOLE BASIS
Multipole virts passed orthogonality test
Virts Per Order
           60
          100

 --------------------------------------------------------------

                    Orbital Energies (a.u.)
 --------------------------------------------------------------

 Alpha MOs
 -- Occupied --
-19.1596 -14.4362 -10.3627 -10.2923 -10.2661  -1.1614  -1.0641  -0.8925
 -0.8325  -0.7158  -0.6282  -0.5933  -0.5768  -0.5458  -0.5228  -0.5125
 -0.4902  -0.4654  -0.3595  -0.3490
 -- Virtual --
  0.0532   0.0781   0.0925   0.1075   0.1093   0.1241   0.1355   0.1411
  0.1561   0.1663   0.1686   0.1785   0.1884   0.1993   0.2060   0.2242
  0.2385   0.2459   0.2552   0.2696   0.2779   0.2825   0.2892   0.2947
  0.3043   0.3088   0.3197   0.3338   0.3455   0.3530   0.3593   0.3638
  0.3697   0.3766   0.3803   0.3916   0.3955   0.4049   0.4134   0.4179
  0.4283   0.4391   0.4560   0.4587   0.4623   0.4700   0.4777   0.4873
  0.4955   0.5011   0.5122   0.5238   0.5285   0.5368   0.5395   0.5565
  0.5597   0.5871   0.6072   0.6206   0.6276   0.6539   0.6547   0.6747
  0.6878   0.6930   0.7022   0.7233   0.7393   0.7425   0.7510   0.7790
  0.7863   0.7873   0.7932   0.8160   0.8231   0.8370   0.8502   0.8551
  0.8610   0.8777   0.8827   0.8943   0.9444   0.9555   0.9822   1.0169
  1.0359   1.0565   1.0643   1.0791   1.1182   1.1306   1.1709   1.1908
  1.2378   1.2606   1.2821   1.3014   1.3230   1.3335   1.3620   1.3889
  1.4085   1.4463   1.5248   1.5396   1.6389   1.7021   1.7353   1.7449
  1.7670   1.8277   1.8401   1.8595   1.8701   1.9073   1.9265   1.9384
  1.9609   1.9689   1.9832   2.0118   2.0312   2.0552   2.1067   2.1484
  2.1734   2.1823   2.2343   2.2669   2.2851   2.3272   2.3476   2.3839
  2.4273   2.4363   2.4727   2.5206   2.5344   2.5890   2.5942   2.6049
  2.6282   2.6474   2.6558   2.7230   2.7726   2.8159   2.8371   2.8570
  2.8754   2.9063   2.9474   2.9509   2.9705   3.0641   3.0895   3.1159
  3.1588   3.1952   3.2311   3.2540   3.2917   3.3061   3.3209   3.3355
  3.3553   3.3945   3.4148   3.4381   3.4786   3.4879   3.5179   3.5225
  3.5603   3.5796   3.6170   3.6377   3.6825   3.7014   3.7216   3.7604
  3.8542   3.9277   3.9344   4.0242   4.0488   4.0814   4.1822   4.2167
  4.3097   4.3540   4.4139   4.5434   4.5627   4.6811   4.7012   4.7167
  4.7776   4.8337   4.9572   4.9923   5.0461   5.2107   5.2468   5.2839
  5.3410   5.4251   5.4394   5.4879   5.6677   5.7482   5.7909   5.8372
  6.0325   6.1813   6.2794   6.5528   6.6871   6.7941   6.8820   7.0160
  7.2838   7.3646  22.6556  22.8649  23.6902  32.7478  44.3615
 --------------------------------------------------------------

          Ground-State Mulliken Net Atomic Charges

     Atom                 Charge (a.u.)
  ----------------------------------------
      1 C                    -0.700627
      2 H                     0.241633
      3 C                     0.478778
      4 O                    -0.549502
      5 N                    -0.078814
      6 H                     0.208395
      7 C                    -0.709656
      8 H                     0.239629
      9 H                     0.187669
     10 H                     0.196068
     11 H                     0.257388
     12 H                     0.229039
  ----------------------------------------
  Sum of atomic charges =     0.000000

 -----------------------------------------------------------------
                    Cartesian Multipole Moments
 -----------------------------------------------------------------
    Charge (ESU x 10^10)
                 0.0000
    Dipole Moment (Debye)
         X      -4.1574      Y       1.1188      Z       0.5960
       Tot       4.3463
    Quadrupole Moments (Debye-Ang)
        XX    -150.8318     XY    -103.1849     YY      35.0960
        XZ     -86.6771     YZ      45.1018     ZZ      -0.9253
    Octopole Moments (Debye-Ang^2)
       XXX   -3924.5851    XXY   -4108.7715    XYY   -2910.9792
       YYY     215.5426    XXZ   -3348.7808    XYZ   -2084.4644
       YYZ    1417.0841    XZZ   -2188.9725    YZZ     656.5934
       ZZZ   -1047.6930
    Hexadecapole Moments (Debye-Ang^3)
      XXXX  -88261.2379   XXXY -109845.8324   XXYY -117514.5996
      XYYY  -94551.8282   YYYY  -43098.2939   XXXZ  -88893.3035
      XXYZ  -90617.0547   XYYZ  -57914.4792   YYYZ   23604.9254
      XXZZ  -80005.3730   XYZZ  -52999.7371   YYZZ   22459.8373
      XZZZ  -64650.6426   YZZZ  -13836.6756   ZZZZ  -64711.1408
 -----------------------------------------------------------------
Archival summary:
1\1\compute-0-7.local\SP\ProcedureUnspecified\BasisUnspecified\1137\meili\MonMay1011:55:062021MonMay1011:55:062021\0\\#,ProcedureUnspecified,BasisUnspecified,\\0,1\N\H,1,0.997314\C,1,1.30953,2,119.52\O,3,1.23073,1,121.861,2,-179.551,0\C,1,1.43435,2,111.072,3,171.68,0\H,5,1.01324,1,107.769,2,-112.103,0\H,5,1.06996,1,110.501,2,127.132,0\H,5,1.07006,1,109.891,2,7.66259,0\C,3,1.52705,1,118.012,2,-3.91098,0\H,9,1.06975,3,109.758,1,-86.3376,0\H,9,1.06977,3,110.154,1,153.953,0\H,9,1.07442,3,108.327,1,33.4615,0\\\@

 Total job time:  5165.79s(wall), 30468.77s(cpu) 
 Mon May 10 11:55:06 2021

        *************************************************************
        *                                                           *
        *  Thank you very much for using Q-Chem.  Have a nice day.  *
        *                                                           *
        *************************************************************


Done Job For Fragment 1
calling putenv with: QCSCRATCH=/home/meili/scratch 
calling putenv with: QCTHREADS=8 
Doing General SCFMI
 Exchange:     0.1670 Hartree-Fock + 1.0000 wB97X-V + LR-HF
 Correlation:  1.0000 wB97X-V
 Using Euler-Maclaurin-Lebedev (99,590) quadrature formula
 Nonlocal Correlation:  VV10 with C = 0.0100 and b = 6.00 and scale = 1.00000
 Grid used for NLC:  SG-1 standard quadrature
performing fock build before subrot guess so that all methods have access
Printing subrot_rss_gen Method Specification:
Occupied Subspace Method is 0
Virtual Subspace Method is 0
Energy of the unrelaxed supersystem initial determinant -497.075725138573
write pseudocanon occs and virts to disk
write pseudocanon orbital energies to disk
Tolerance of ortho_decomp_scf: 1.00e-06
GDM subspace size: 20
Beginning the Orthogonal Decomposition of the Initial Supersystem Wavefunction
    1    -497.0686167145      8.77e-03     ortho_decomp Preconditoned Steepest Descent
    2    -497.0688719914      2.24e-04     ortho_decomp BFGS Step
    3    -497.0688726361      1.08e-05     ortho_decomp BFGS Step
    4    -497.0688726366      3.90e-07     ortho_decomp 00000 Convergence criterion met
 Hartree-Fock
 Hartree-Fock
 Hartree-Fock
Doing General SCFMI
 Exchange:     0.1670 Hartree-Fock + 1.0000 wB97X-V + LR-HF
 Correlation:  1.0000 wB97X-V
 Using Euler-Maclaurin-Lebedev (99,590) quadrature formula
 Nonlocal Correlation:  VV10 with C = 0.0100 and b = 6.00 and scale = 1.00000
 Grid used for NLC:  SG-1 standard quadrature
performing fock build at end of subrot_r(subrot) constructor so that all methods have access
<S^2> of initial wavefunction before polarization iterations 0.0000000000
Beginning iterations for the determination of the polarized wavefunction
Energy prior to optimization (guess energy) = -497.075725138573
Begin Timing: Total SCF Calculation
begin iterations for algorithm: DIIS         
the SCF tolerance is set to 1.00e-08
    1    -497.0757251386      6.81e-05     00000 
    2    -497.0760880432      2.65e-05     00000 
    3    -497.0761187403      1.30e-05     00000 
    4    -497.0761259892      6.65e-06     00000 
    5    -497.0761275363      2.25e-06     00000 
    6    -497.0761277830      1.05e-06     00000 
    7    -497.0761278323      2.94e-07     00000 
    8    -497.0761278371      9.24e-08     00000 
    9    -497.0761278375      2.72e-08     00000 
   10    -497.0761278376      8.66e-09     00000 Convergence criterion met
write pseudocanon occs and virts to disk
write pseudocanon orbital energies to disk
Timing for Total SCF: 1372.00s (wall), 8712.55s (cpu)
<S^2> of polarized wavefunction after polarization iterations 0.0000000000
relaxing scfmi constraint to allow all rotations in the entire AO span
Doing General SCFMI
 Exchange:     0.1670 Hartree-Fock + 1.0000 wB97X-V + LR-HF
 Correlation:  1.0000 wB97X-V
 Using Euler-Maclaurin-Lebedev (99,590) quadrature formula
 Nonlocal Correlation:  VV10 with C = 0.0100 and b = 6.00 and scale = 1.00000
 Grid used for NLC:  SG-1 standard quadrature
performing fock build at end of subrot_r(subrot) constructor so that all methods have access
<S^2> of polarized wavefunction before ct-allowed iterations 0.0000000000
Beginning iterations for the determination of the CT-Allowed wavefunction
Energy prior to optimization (guess energy) = -497.076127837566
Begin Timing: Total SCF Calculation
begin iterations for algorithm: DIIS         
the SCF tolerance is set to 1.00e-08
    1    -497.0761278376      5.61e-05     00000 
    2    -497.0764365950      4.74e-06     00000 
    3    -497.0764436272      6.96e-07     00000 
    4    -497.0764438151      2.82e-07     00000 
    5    -497.0764438241      9.33e-08     00000 
    6    -497.0764438256      3.82e-08     00000 
    7    -497.0764438258      1.07e-08     00000 
    8    -497.0764438258      4.95e-09     00000 Convergence criterion met
write pseudocanon occs and virts to disk
write pseudocanon orbital energies to disk
Timing for Total SCF: 1054.00s (wall), 6832.18s (cpu)
<S^2> of ct_allowed wavefunction after ct-allowed iterations 0.0000000000

================================
        Results of EDA2         
================================
Basic EDA Quantities
--------------------
Fragment Energies (Ha):
1 -248.5376159212
2 -248.5344144308
--------------------
  E_prp (kJ/mol) = 0.0000
  E_frz (kJ/mol) = -9.7008
  E_pol (kJ/mol) = -1.0573
  E_vct (kJ/mol) = -0.8296
  E_int (kJ/mol) = -11.5877
--------------------


Initial Wavefunction Decomposition
--------------------
  --------------------
  Orthogonal Fragment Subspace Decomposition:
  --------------------
     E_elec   (ELEC)   (kJ/mol) = -7.3967
     E_pauli  (PAULI)  (kJ/mol) = 6.1011
     E_disp   (DISP)   (kJ/mol) = -8.4051
     --------------------
     Terms summing to E_pauli:
     --------------------
        E_kep_pauli       (kJ/mol) = 8.2907
        E_disp_free_pauli (kJ/mol) = -2.1896
  --------------------
  Classical Frozen Decomposition:
  --------------------
     E_cls_elec  (CLS ELEC)  (kJ/mol) = -4.3663
     E_cls_pauli (CLS PAULI) (kJ/mol) = -5.3344
    [E_mod_pauli (MOD PAULI) (kJ/mol) = 3.0706 (CLS PAULI - DISP from orthogonal decomposition) ]
  --------------------
--------------------

Simplified EDA Summary (kJ/mol)
--------------------
 PREPARATION     0.0000
 FROZEN          -1.2957      (does not include dispersion)
[PAULI           6.1011]     (if this is negligible, then frozen describes electrostatics)
 DISPERSION      -8.4051
 POLARIZATION    -1.0573
 CHARGE TRANSFER -0.8296
 TOTAL           -11.5877     (PRP + FRZ + DISP + POL + CT)
--------------------

 --------------------------------------------------------------

                    Orbital Energies (a.u.)
 --------------------------------------------------------------

 Alpha MOs
 -- Occupied --
-19.1698 -19.1608 -14.4417 -14.4351 -10.3686 -10.3638 -10.3082 -10.2877
-10.2771 -10.2706  -1.1697  -1.1620  -1.0631  -1.0429  -0.9013  -0.8934
 -0.8323  -0.8310  -0.7141  -0.6866  -0.6281  -0.6273  -0.5950  -0.5872
 -0.5865  -0.5779  -0.5501  -0.5454  -0.5272  -0.5197  -0.5162  -0.5145
 -0.5002  -0.4902  -0.4753  -0.4663  -0.3625  -0.3612  -0.3587  -0.3506
 -- Virtual --
  0.0439   0.0669   0.0696   0.0765   0.0916   0.0954   0.0977   0.1042
  0.1107   0.1152   0.1188   0.1271   0.1368   0.1393   0.1442   0.1501
  0.1531   0.1594   0.1607   0.1650   0.1777   0.1830   0.1838   0.1931
  0.1983   0.2054   0.2159   0.2196   0.2220   0.2308   0.2365   0.2381
  0.2452   0.2499   0.2529   0.2593   0.2640   0.2732   0.2790   0.2837
  0.2851   0.2950   0.2977   0.2993   0.3091   0.3121   0.3142   0.3168
  0.3217   0.3257   0.3350   0.3402   0.3417   0.3449   0.3461   0.3485
  0.3566   0.3619   0.3626   0.3661   0.3706   0.3730   0.3765   0.3832
  0.3837   0.3904   0.3940   0.3969   0.4034   0.4090   0.4132   0.4162
  0.4196   0.4274   0.4332   0.4407   0.4449   0.4453   0.4529   0.4547
  0.4596   0.4670   0.4710   0.4711   0.4767   0.4803   0.4860   0.4874
  0.4932   0.4976   0.5059   0.5090   0.5150   0.5175   0.5199   0.5252
  0.5270   0.5297   0.5401   0.5408   0.5457   0.5484   0.5584   0.5630
  0.5716   0.5750   0.5847   0.5868   0.5935   0.5950   0.6068   0.6083
  0.6188   0.6264   0.6334   0.6376   0.6459   0.6494   0.6560   0.6623
  0.6708   0.6804   0.6845   0.6902   0.6951   0.7036   0.7055   0.7182
  0.7218   0.7294   0.7352   0.7373   0.7464   0.7513   0.7595   0.7636
  0.7678   0.7735   0.7780   0.7838   0.7902   0.7945   0.7975   0.8006
  0.8066   0.8137   0.8209   0.8280   0.8357   0.8456   0.8507   0.8537
  0.8632   0.8730   0.8788   0.8836   0.8871   0.8926   0.9007   0.9048
  0.9062   0.9152   0.9242   0.9308   0.9447   0.9474   0.9630   0.9632
  0.9793   0.9884   1.0081   1.0206   1.0253   1.0370   1.0476   1.0604
  1.0658   1.0822   1.0978   1.1059   1.1063   1.1149   1.1271   1.1428
  1.1585   1.1681   1.1784   1.1873   1.2005   1.2180   1.2280   1.2356
  1.2615   1.2727   1.2757   1.2898   1.2993   1.3065   1.3295   1.3303
  1.3568   1.3630   1.3744   1.3859   1.3896   1.3997   1.4075   1.4403
  1.4543   1.4661   1.4822   1.4901   1.5331   1.5453   1.5652   1.6031
  1.6312   1.6643   1.6809   1.7194   1.7465   1.7782   1.7907   1.7945
  1.8144   1.8304   1.8507   1.8581   1.8663   1.8774   1.8846   1.8954
  1.8986   1.9191   1.9285   1.9310   1.9385   1.9464   1.9512   1.9656
  1.9703   1.9771   1.9824   1.9966   2.0076   2.0210   2.0327   2.0441
  2.0591   2.0662   2.0956   2.1016   2.1231   2.1345   2.1412   2.1731
  2.1897   2.1984   2.2190   2.2417   2.2440   2.2642   2.2921   2.3049
  2.3132   2.3158   2.3461   2.3545   2.3751   2.3841   2.3890   2.3991
  2.4149   2.4525   2.4726   2.4782   2.4865   2.5119   2.5235   2.5405
  2.5598   2.5662   2.5796   2.5978   2.6164   2.6245   2.6287   2.6467
  2.6614   2.6742   2.6823   2.6882   2.6990   2.7038   2.7183   2.7482
  2.7597   2.8005   2.8178   2.8341   2.8504   2.8546   2.8628   2.8779
  2.8903   2.9005   2.9197   2.9262   2.9412   2.9519   2.9617   2.9801
  2.9856   2.9962   3.0510   3.0921   3.1025   3.1218   3.1434   3.1490
  3.1954   3.1972   3.2110   3.2301   3.2500   3.2611   3.2650   3.2807
  3.2926   3.3013   3.3227   3.3241   3.3341   3.3431   3.3603   3.3645
  3.3722   3.3816   3.3955   3.4092   3.4108   3.4308   3.4390   3.4532
  3.4664   3.4929   3.4938   3.5111   3.5160   3.5339   3.5454   3.5610
  3.5716   3.5839   3.5968   3.5993   3.6162   3.6301   3.6624   3.6881
  3.6888   3.7042   3.7090   3.7157   3.7242   3.7477   3.7599   3.7848
  3.7864   3.8704   3.8975   3.9256   3.9489   3.9554   3.9999   4.0415
  4.0565   4.0750   4.1021   4.1043   4.1416   4.1853   4.1995   4.2333
  4.2837   4.3153   4.3688   4.4007   4.4366   4.4555   4.5112   4.5354
  4.5587   4.6015   4.6574   4.6876   4.6997   4.7012   4.7159   4.7281
  4.7484   4.8017   4.8538   4.8716   4.9060   4.9282   4.9797   5.0159
  5.0349   5.0697   5.1742   5.2233   5.2318   5.2417   5.2528   5.2948
  5.2987   5.3448   5.4044   5.4314   5.4411   5.4479   5.4970   5.5046
  5.5816   5.6581   5.6802   5.7561   5.7633   5.8008   5.8028   5.8401
  5.9998   6.0443   6.0811   6.2017   6.2823   6.3164   6.5573   6.5639
  6.6830   6.6956   6.7982   6.8107   6.8850   6.9022   7.0237   7.0353
  7.2870   7.2905   7.3632   7.3694  22.6158  22.6902  22.7419  22.8895
 23.6700  23.7008  32.7045  32.7899  44.4066  44.4599
 --------------------------------------------------------------

          Ground-State Mulliken Net Atomic Charges

     Atom                 Charge (a.u.)
  ----------------------------------------
      1 C                    -0.673480
      2 H                     0.065020
      3 C                     0.634408
      4 O                    -0.567741
      5 N                    -0.097504
      6 H                     0.185837
      7 C                    -0.677970
      8 H                     0.279034
      9 H                     0.266030
     10 H                     0.144485
     11 H                     0.228045
     12 H                     0.224480
     13 C                    -0.501391
     14 H                     0.013165
     15 C                     0.466838
     16 O                    -0.558294
     17 N                    -0.022355
     18 H                     0.200947
     19 C                    -0.690915
     20 H                     0.219716
     21 H                     0.200185
     22 H                     0.176402
     23 H                     0.264372
     24 H                     0.220686
  ----------------------------------------
  Sum of atomic charges =     0.000000

 -----------------------------------------------------------------
                    Cartesian Multipole Moments
 -----------------------------------------------------------------
    Charge (ESU x 10^10)
                -0.0000
    Dipole Moment (Debye)
         X      -1.0498      Y       1.1259      Z       2.8976
       Tot       3.2812
    Quadrupole Moments (Debye-Ang)
        XX    -111.7784     XY     -21.7339     YY       8.3117
        XZ      19.1401     YZ     108.5688     ZZ      88.0751
    Octopole Moments (Debye-Ang^2)
       XXX   -3814.8967    XXY   -3109.0355    XYY   -1091.8458
       YYY   -1961.1169    XXZ   -2060.2270    XYZ     722.2429
       YYZ    2455.1862    XZZ     858.9460    YZZ    3128.8708
       ZZZ    1218.7729
    Hexadecapole Moments (Debye-Ang^3)
      XXXX  -95488.1708   XXXY -107729.2423   XXYY  -95702.9404
      XYYY  -64015.3593   YYYY -160776.5489   XXXZ  -83047.9546
      XXYZ  -57102.8277   XYYZ    8288.6994   YYYZ   14363.5342
      XXZZ  -43530.2598   XYZZ   28415.2872   YYZZ   72391.9708
      XZZZ   13012.5723   YZZZ   50158.6719   ZZZZ  -28272.9945
 -----------------------------------------------------------------
Archival summary:
1\1\compute-0-7.local\SP\ProcedureUnspecified\BasisUnspecified\22614\meili\MonMay1013:08:192021MonMay1013:08:192021\0\\#,ProcedureUnspecified,BasisUnspecified,\\0,1\N\H,1,0.997314\C,1,1.30953,2,119.52\O,3,1.23073,1,121.861,2,-179.551,0\C,1,1.43435,2,111.072,3,171.68,0\H,5,1.01324,1,107.769,2,-112.103,0\H,5,1.06996,1,110.501,2,127.132,0\H,5,1.07006,1,109.891,2,7.66259,0\C,3,1.52705,1,118.012,2,-3.91098,0\H,9,1.06975,3,109.758,1,-86.3376,0\H,9,1.06977,3,110.154,1,153.953,0\H,9,1.07442,3,108.327,1,33.4615,0\H,12,2.42115,9,151.956,3,67.3977,0\C,13,1.0763,12,146.914,9,-106.035,0\H,14,1.06977,13,109.602,12,-50.6777,0\H,14,1.07039,13,109.528,12,-170.617,0\C,14,1.48298,13,109.274,12,69.4268,0\O,17,1.21867,14,124.28,13,-132.007,0\N,17,1.34593,14,115.894,13,48.4684,0\H,19,1.04682,17,111.465,14,-1.57577,0\C,19,1.52957,17,125.295,14,-177.986,0\H,21,1.07012,19,110.74,17,-125.214,0\H,21,1.07025,19,110.02,17,115.395,0\H,21,1.08532,19,107.272,17,-4.23907,0\\\@

 Total job time:  14345.64s(wall), 28027.16s(cpu) 
 Mon May 10 13:08:19 2021

        *************************************************************
        *                                                           *
        *  Thank you very much for using Q-Chem.  Have a nice day.  *
        *                                                           *
        *************************************************************


