                  Welcome to Q-Chem
     A Quantum Leap Into The Future Of Chemistry


 Q-Chem 5.2 (devel), Q-Chem, Inc., Pleasanton, CA (2019)

 Yihan Shao,  Zhengting Gan,  E. Epifanovsky,  A. T. B. Gilbert,  M. Wormit,  
 J. Kussmann,  A. W. Lange,  A. Behn,  Jia Deng,  Xintian Feng,  D. Ghosh,  
 M. Goldey,  P. R. Horn,  L. D. Jacobson,  I. Kaliman,  T. Kus,  A. Landau,  
 Jie Liu,  E. I. Proynov,  R. M. Richard,  R. P. Steele,  E. J. Sundstrom,  
 H. L. Woodcock III,  P. M. Zimmerman,  D. Zuev,  B. Albrecht,  E. Alguire,  
 S. A. Baeppler,  D. Barton,  Z. Benda,  Y. A. Bernard,  E. J. Berquist,  
 K. B. Bravaya,  H. Burton,  D. Casanova,  Chun-Min Chang,  Yunqing Chen,  
 A. Chien,  K. D. Closser,  M. P. Coons,  S. Coriani,  S. Dasgupta,  
 A. L. Dempwolff,  M. Diedenhofen,  Hainam Do,  R. G. Edgar,  Po-Tung Fang,  
 S. Faraji,  S. Fatehi,  Qingguo Feng,  K. D. Fenk,  J. Fosso-Tande,  
 J. Gayvert,  Qinghui Ge,  A. Ghysels,  G. Gidofalvi,  J. Gomes,  
 J. Gonthier,  A. Gunina,  D. Hait,  M. W. D. Hanson-Heine,  
 P. H. P. Harbach,  A. W. Hauser,  M. F. Herbst,  J. E. Herr,  
 E. G. Hohenstein,  Z. C. Holden,  Kerwin Hui,  B. C. Huynh,  T.-C. Jagau,  
 Hyunjun Ji,  B. Kaduk,  K. Khistyaev,  Jaehoon Kim,  P. Klunzinger,  K. Koh,  
 D. Kosenkov,  L. Koulias,  T. Kowalczyk,  C. M. Krauter,  A. Kunitsa,  
 Ka Un Lao,  A. Laurent,  K. V. Lawler,  Joonho Lee,  D. Lefrancois,  
 S. Lehtola,  D. S. Levine,  Yi-Pei Li,  You-Sheng Lin,  Fenglai Liu,  
 E. Livshits,  A. Luenser,  P. Manohar,  E. Mansoor,  S. F. Manzer,  
 Shan-Ping Mao,  Yuezhi Mao,  N. Mardirossian,  A. V. Marenich,  
 T. Markovich,  L. A. Martinez-Martinez,  S. A. Maurer,  N. J. Mayhall,  
 S. C. McKenzie,  J.-M. Mewes,  P. Morgante,  A. F. Morrison,  
 J. W. Mullinax,  K. Nanda,  T. S. Nguyen-Beck,  R. Olivares-Amaya,  
 J. A. Parkhill,  Zheng Pei,  T. M. Perrine,  F. Plasser,  P. Pokhilko,  
 S. Prager,  A. Prociuk,  E. Ramos,  D. R. Rehn,  F. Rob,  M. Scheurer,  
 M. Schneider,  N. Sergueev,  S. M. Sharada,  S. Sharma,  D. W. Small,  
 T. Stauch,  T. Stein,  Yu-Chuan Su,  A. J. W. Thom,  A. Tkatchenko,  
 T. Tsuchimochi,  N. M. Tubman,  L. Vogt,  M. L. Vidal,  O. Vydrov,  
 M. A. Watson,  J. Wenzel,  M. de Wergifosse,  T. A. Wesolowski,  A. White,  
 J. Witte,  A. Yamada,  Jun Yang,  K. Yao,  S. Yeganeh,  S. R. Yost,  
 Zhi-Qiang You,  A. Zech,  Igor Ying Zhang,  Xing Zhang,  Yan Zhao,  
 Ying Zhu,  B. R. Brooks,  G. K. L. Chan,  C. J. Cramer,  M. S. Gordon,  
 W. J. Hehre,  A. Klamt,  M. W. Schmidt,  C. D. Sherrill,  D. G. Truhlar,  
 A. Aspuru-Guzik,  R. Baer,  A. T. Bell,  N. A. Besley,  Jeng-Da Chai,  
 A. E. DePrince, III,  R. A. DiStasio Jr.,  A. Dreuw,  B. D. Dunietz,  
 T. R. Furlani,  Chao-Ping Hsu,  Yousung Jung,  Jing Kong,  D. S. Lambrecht,  
 WanZhen Liang,  C. Ochsenfeld,  V. A. Rassolov,  L. V. Slipchenko,  
 J. E. Subotnik,  T. Van Voorhis,  J. M. Herbert,  A. I. Krylov,  
 P. M. W. Gill,  M. Head-Gordon

 Contributors to earlier versions of Q-Chem not listed above: 
 R. D. Adamson,  B. Austin,  J. Baker,  G. J. O. Beran,  K. Brandhorst,  
 S. T. Brown,  E. F. C. Byrd,  A. K. Chakraborty,  C.-L. Cheng,  
 Siu Hung Chien,  D. M. Chipman,  D. L. Crittenden,  H. Dachsel,  
 R. J. Doerksen,  A. D. Dutoi,  L. Fusti-Molnar,  W. A. Goddard III,  
 A. Golubeva-Zadorozhnaya,  S. R. Gwaltney,  G. Hawkins,  A. Heyden,  
 S. Hirata,  G. Kedziora,  F. J. Keil,  C. Kelley,  Jihan Kim,  R. A. King,  
 R. Z. Khaliullin,  P. P. Korambath,  W. Kurlancheek,  A. M. Lee,  M. S. Lee,  
 S. V. Levchenko,  Ching Yeh Lin,  D. Liotard,  R. C. Lochan,  I. Lotan,  
 P. E. Maslen,  N. Nair,  D. P. O'Neill,  D. Neuhauser,  E. Neuscamman,  
 C. M. Oana,  R. Olson,  B. Peters,  R. Peverati,  P. A. Pieniazek,  
 Y. M. Rhee,  J. Ritchie,  M. A. Rohrdanz,  E. Rosta,  N. J. Russ,  
 H. F. Schaefer III,  N. E. Schultz,  N. Shenvi,  A. C. Simmonett,  A. Sodt,  
 D. Stuck,  K. S. Thanthiriwatte,  V. Vanovschi,  Tao Wang,  A. Warshel,  
 C. F. Williams,  Q. Wu,  X. Xu,  W. Zhang

 Please cite Q-Chem as follows:
 Y. Shao et al., Mol. Phys. 113, 184-215 (2015)
 DOI: 10.1080/00268976.2014.952696

 Q-Chem 5.2.1 for Intel X86 EM64T Linux

 Parts of Q-Chem use Armadillo 8.300.2 (Tropical Shenanigans).
 http://arma.sourceforge.net/

 Q-Chem begins on Mon May 10 09:09:13 2021  

compute-0-13.local
Host: 0

     Scratch files written to /home/meili/scratch/qchem46074//
NAlpha2: 80
NElect   80
Mult     1

 Q-Chem warning in module libgen/rem_setup.C, line 2813:

 Neither GIA nor STOLL is specified by user. Use STOLL as the default


Checking the input file for inconsistencies... 	...done.

--------------------------------------------------------------
User input:
--------------------------------------------------------------
$comment
1vex_ff99sbtip3p_nvt_e8_100ns_m6593_005CYX_006LEU_033SER_034LEU.pdb
$end

$molecule
0 1
--
0 1
C    16.4410000000   27.1420000000   18.6690000000
H    17.5080000000   27.4040000000   18.7630000000
C    16.3160000000   25.8010000000   17.8620000000
O    15.4430000000   25.6360000000   16.9710000000
N    17.1840000000   24.8350000000   18.1260000000
H    17.8900000000   25.1680000000   18.7370000000
C    17.1750000000   23.4060000000   17.7950000000
H    16.4430000000   23.3660000000   16.9570000000
H    16.0150000000   27.0170000000   19.6420000000
H    15.9200000000   27.9230000000   18.1570000000
H    18.1430000000   23.0740000000   17.4820000000
H    16.9200000000   22.7740000000   18.6200000000
--
0 1
C    20.4910000000   27.7710000000   17.9710000000
H    19.4510000000   27.9460000000   18.1670000000
C    20.3920000000   26.7490000000   16.8130000000
O    21.0410000000   25.6920000000   16.8930000000
N    19.6070000000   27.0230000000   15.7970000000
H    19.0760000000   27.8260000000   15.9190000000
C    19.5270000000   26.1610000000   14.5960000000
H    19.3370000000   25.1170000000   14.8990000000
H    20.9920000000   28.6660000000   17.6660000000
H    21.0530000000   27.4340000000   18.8160000000
H    18.7300000000   26.5000000000   13.9680000000
H    20.4520000000   26.2120000000   14.0610000000
$end

$rem
JOBTYPE			EDA
EDA2			1
method			wB97X-V
BASIS			def2-TZVPD
XC_GRID			000099000590
NL_GRID			1
UNRESTRICTED		FALSE
MAX_SCF_CYCLES		200
SYMMETRY		FALSE
SYM_IGNORE		TRUE
MEM_STATIC		2000
BASIS_LIN_DEP_THRESH 	6
THRESH 			14
SCF_CONVERGENCE 	8
SCF_PRINT_FRGM 		TRUE
$end
--------------------------------------------------------------
 ----------------------------------------------------------------
             Standard Nuclear Orientation (Angstroms)
    I     Atom           X                Y                Z
 ----------------------------------------------------------------
    1      C      16.4410000000    27.1420000000    18.6690000000
    2      H      17.5080000000    27.4040000000    18.7630000000
    3      C      16.3160000000    25.8010000000    17.8620000000
    4      O      15.4430000000    25.6360000000    16.9710000000
    5      N      17.1840000000    24.8350000000    18.1260000000
    6      H      17.8900000000    25.1680000000    18.7370000000
    7      C      17.1750000000    23.4060000000    17.7950000000
    8      H      16.4430000000    23.3660000000    16.9570000000
    9      H      16.0150000000    27.0170000000    19.6420000000
   10      H      15.9200000000    27.9230000000    18.1570000000
   11      H      18.1430000000    23.0740000000    17.4820000000
   12      H      16.9200000000    22.7740000000    18.6200000000
   13      C      20.4910000000    27.7710000000    17.9710000000
   14      H      19.4510000000    27.9460000000    18.1670000000
   15      C      20.3920000000    26.7490000000    16.8130000000
   16      O      21.0410000000    25.6920000000    16.8930000000
   17      N      19.6070000000    27.0230000000    15.7970000000
   18      H      19.0760000000    27.8260000000    15.9190000000
   19      C      19.5270000000    26.1610000000    14.5960000000
   20      H      19.3370000000    25.1170000000    14.8990000000
   21      H      20.9920000000    28.6660000000    17.6660000000
   22      H      21.0530000000    27.4340000000    18.8160000000
   23      H      18.7300000000    26.5000000000    13.9680000000
   24      H      20.4520000000    26.2120000000    14.0610000000
 ----------------------------------------------------------------
 Nuclear Repulsion Energy =         540.11882789 hartrees
 There are       40 alpha and       40 beta electrons
 Requested basis set is def2-TZVPD
 There are 202 shells and 502 basis functions

 Total QAlloc Memory Limit   2000 MB
 Mega-Array Size      1956 MB
 MEM_STATIC part      2000 MB
 A cutoff of  1.0D-14 yielded  18399 shell pairs
 There are    114269 function pairs (    142558 Cartesian)
 Smallest overlap matrix eigenvalue = 2.97E-06

 Scale SEOQF with 1.000000e-03/1.000000e-03/1.000000e-03

 Standard Electronic Orientation quadrupole field applied
 Nucleus-field energy     =     0.0000000232 hartrees

 -----------------------------------------------------------------------
  General SCF calculation program by
  Eric Jon Sundstrom, Paul Horn, Yuezhi Mao, Dmitri Zuev, Alec White,
  David Stuck, Shaama M.S., Shane Yost, Joonho Lee, David Small,
  Daniel Levine, Susi Lehtola, Hugh Burton, Evgeny Epifanovsky,
  Bang C. Huynh
 -----------------------------------------------------------------------
================================================================
                 ALMO-EDA with the EDA2 driver                  
================================================================
 The second-generation ALMO-EDA (for DFT):                      
 P. R. Horn, Y. Mao and M. Head-Gordon, PCCP, 18, 23067 (2016)  
 Decomposition of the frozen energy:                            
 P. R. Horn, Y. Mao and M. Head-Gordon, JCP, 144, 114107 (2016) 
 FERF model for polarization:                                   
 P. R. Horn and M. Head-Gordon, JCP, 143, 114111 (2015)         
Using eda2 option set 1
Option set summary: Frozen orbital wavefunction, initial wavefunction decomposition, and nDQ polarization.
--------------------------------
Printing EDA Options
--------------------------------
eda_child_super_basis      0
fragmo_guess_mode          0
child_mp                   1
child_mp_orders            232
cls_elec                   1
cls_disp                   0
scfmi_mode                 1
scfmi_occs                 0
scfmi_virts                0
frz_relax                  0
frz_relax_method           0
dc_pen_start               0
dc_pen_conv                0
dc_pen_increment           0
dc_pen_steps               0
dc_pen_thresh_factor       0
dc_pen_pre_newton_thresh   0
frz_ortho_decomp           1
frz_ortho_decomp_conv      6
frgm_method                2
scfmi_freeze_ss            0
separate_rehyb             0
plot_diff_den              0
eda_nocv                   0
eda_vct_relax              1
disp_free_x                0
disp_free_c                0
eda_bsse                   0
eda_pct_a                  0
eda_covp                   0
--------------------------------
Attempting to make child job directory: /home/meili/scratch/qchem46074//Frg1/
Attempting to make child job directory: /home/meili/scratch/qchem46074//Frg2/
Creating input file /home/meili/scratch/qchem46074/Frg1.input
using default PutDataFrgm: nothing
calling putenv with: QCSCRATCH=/home/meili/scratch/qchem46074/ 
Spawning Job For Fragment 0
                  Welcome to Q-Chem
     A Quantum Leap Into The Future Of Chemistry


 Q-Chem 5.2 (devel), Q-Chem, Inc., Pleasanton, CA (2019)

 Yihan Shao,  Zhengting Gan,  E. Epifanovsky,  A. T. B. Gilbert,  M. Wormit,  
 J. Kussmann,  A. W. Lange,  A. Behn,  Jia Deng,  Xintian Feng,  D. Ghosh,  
 M. Goldey,  P. R. Horn,  L. D. Jacobson,  I. Kaliman,  T. Kus,  A. Landau,  
 Jie Liu,  E. I. Proynov,  R. M. Richard,  R. P. Steele,  E. J. Sundstrom,  
 H. L. Woodcock III,  P. M. Zimmerman,  D. Zuev,  B. Albrecht,  E. Alguire,  
 S. A. Baeppler,  D. Barton,  Z. Benda,  Y. A. Bernard,  E. J. Berquist,  
 K. B. Bravaya,  H. Burton,  D. Casanova,  Chun-Min Chang,  Yunqing Chen,  
 A. Chien,  K. D. Closser,  M. P. Coons,  S. Coriani,  S. Dasgupta,  
 A. L. Dempwolff,  M. Diedenhofen,  Hainam Do,  R. G. Edgar,  Po-Tung Fang,  
 S. Faraji,  S. Fatehi,  Qingguo Feng,  K. D. Fenk,  J. Fosso-Tande,  
 J. Gayvert,  Qinghui Ge,  A. Ghysels,  G. Gidofalvi,  J. Gomes,  
 J. Gonthier,  A. Gunina,  D. Hait,  M. W. D. Hanson-Heine,  
 P. H. P. Harbach,  A. W. Hauser,  M. F. Herbst,  J. E. Herr,  
 E. G. Hohenstein,  Z. C. Holden,  Kerwin Hui,  B. C. Huynh,  T.-C. Jagau,  
 Hyunjun Ji,  B. Kaduk,  K. Khistyaev,  Jaehoon Kim,  P. Klunzinger,  K. Koh,  
 D. Kosenkov,  L. Koulias,  T. Kowalczyk,  C. M. Krauter,  A. Kunitsa,  
 Ka Un Lao,  A. Laurent,  K. V. Lawler,  Joonho Lee,  D. Lefrancois,  
 S. Lehtola,  D. S. Levine,  Yi-Pei Li,  You-Sheng Lin,  Fenglai Liu,  
 E. Livshits,  A. Luenser,  P. Manohar,  E. Mansoor,  S. F. Manzer,  
 Shan-Ping Mao,  Yuezhi Mao,  N. Mardirossian,  A. V. Marenich,  
 T. Markovich,  L. A. Martinez-Martinez,  S. A. Maurer,  N. J. Mayhall,  
 S. C. McKenzie,  J.-M. Mewes,  P. Morgante,  A. F. Morrison,  
 J. W. Mullinax,  K. Nanda,  T. S. Nguyen-Beck,  R. Olivares-Amaya,  
 J. A. Parkhill,  Zheng Pei,  T. M. Perrine,  F. Plasser,  P. Pokhilko,  
 S. Prager,  A. Prociuk,  E. Ramos,  D. R. Rehn,  F. Rob,  M. Scheurer,  
 M. Schneider,  N. Sergueev,  S. M. Sharada,  S. Sharma,  D. W. Small,  
 T. Stauch,  T. Stein,  Yu-Chuan Su,  A. J. W. Thom,  A. Tkatchenko,  
 T. Tsuchimochi,  N. M. Tubman,  L. Vogt,  M. L. Vidal,  O. Vydrov,  
 M. A. Watson,  J. Wenzel,  M. de Wergifosse,  T. A. Wesolowski,  A. White,  
 J. Witte,  A. Yamada,  Jun Yang,  K. Yao,  S. Yeganeh,  S. R. Yost,  
 Zhi-Qiang You,  A. Zech,  Igor Ying Zhang,  Xing Zhang,  Yan Zhao,  
 Ying Zhu,  B. R. Brooks,  G. K. L. Chan,  C. J. Cramer,  M. S. Gordon,  
 W. J. Hehre,  A. Klamt,  M. W. Schmidt,  C. D. Sherrill,  D. G. Truhlar,  
 A. Aspuru-Guzik,  R. Baer,  A. T. Bell,  N. A. Besley,  Jeng-Da Chai,  
 A. E. DePrince, III,  R. A. DiStasio Jr.,  A. Dreuw,  B. D. Dunietz,  
 T. R. Furlani,  Chao-Ping Hsu,  Yousung Jung,  Jing Kong,  D. S. Lambrecht,  
 WanZhen Liang,  C. Ochsenfeld,  V. A. Rassolov,  L. V. Slipchenko,  
 J. E. Subotnik,  T. Van Voorhis,  J. M. Herbert,  A. I. Krylov,  
 P. M. W. Gill,  M. Head-Gordon

 Contributors to earlier versions of Q-Chem not listed above: 
 R. D. Adamson,  B. Austin,  J. Baker,  G. J. O. Beran,  K. Brandhorst,  
 S. T. Brown,  E. F. C. Byrd,  A. K. Chakraborty,  C.-L. Cheng,  
 Siu Hung Chien,  D. M. Chipman,  D. L. Crittenden,  H. Dachsel,  
 R. J. Doerksen,  A. D. Dutoi,  L. Fusti-Molnar,  W. A. Goddard III,  
 A. Golubeva-Zadorozhnaya,  S. R. Gwaltney,  G. Hawkins,  A. Heyden,  
 S. Hirata,  G. Kedziora,  F. J. Keil,  C. Kelley,  Jihan Kim,  R. A. King,  
 R. Z. Khaliullin,  P. P. Korambath,  W. Kurlancheek,  A. M. Lee,  M. S. Lee,  
 S. V. Levchenko,  Ching Yeh Lin,  D. Liotard,  R. C. Lochan,  I. Lotan,  
 P. E. Maslen,  N. Nair,  D. P. O'Neill,  D. Neuhauser,  E. Neuscamman,  
 C. M. Oana,  R. Olson,  B. Peters,  R. Peverati,  P. A. Pieniazek,  
 Y. M. Rhee,  J. Ritchie,  M. A. Rohrdanz,  E. Rosta,  N. J. Russ,  
 H. F. Schaefer III,  N. E. Schultz,  N. Shenvi,  A. C. Simmonett,  A. Sodt,  
 D. Stuck,  K. S. Thanthiriwatte,  V. Vanovschi,  Tao Wang,  A. Warshel,  
 C. F. Williams,  Q. Wu,  X. Xu,  W. Zhang

 Please cite Q-Chem as follows:
 Y. Shao et al., Mol. Phys. 113, 184-215 (2015)
 DOI: 10.1080/00268976.2014.952696

 Q-Chem 5.2.1 for Intel X86 EM64T Linux

 Parts of Q-Chem use Armadillo 8.300.2 (Tropical Shenanigans).
 http://arma.sourceforge.net/

 Q-Chem begins on Mon May 10 09:10:39 2021  

compute-0-13.local
Host: 0

     Scratch files written to /home/meili/scratch/qchem46074//Frg1//
NAlpha2: 40
NElect   40
Mult     1

Checking the input file for inconsistencies... 	...done.

--------------------------------------------------------------
User input:
--------------------------------------------------------------
$molecule
0 1
 6	16.4410000000	27.1420000000	18.6690000000
 1	17.5080000000	27.4040000000	18.7630000000
 6	16.3160000000	25.8010000000	17.8620000000
 8	15.4430000000	25.6360000000	16.9710000000
 7	17.1840000000	24.8350000000	18.1260000000
 1	17.8900000000	25.1680000000	18.7370000000
 6	17.1750000000	23.4060000000	17.7950000000
 1	16.4430000000	23.3660000000	16.9570000000
 1	16.0150000000	27.0170000000	19.6420000000
 1	15.9200000000	27.9230000000	18.1570000000
 1	18.1430000000	23.0740000000	17.4820000000
 1	16.9200000000	22.7740000000	18.6200000000
$end
$rem
EDA2		1
METHOD		WB97X-V
BASIS		DEF2-TZVPD
XC_GRID		000099000590
NL_GRID		1
UNRESTRICTED		FALSE
MAX_SCF_CYCLES		200
SYMMETRY		FALSE
SYM_IGNORE		TRUE
BASIS_LIN_DEP_THRESH		6
THRESH		14
SCF_CONVERGENCE		8
SCF_PRINT_FRGM		TRUE
!required keywords
JOBTYPE		SP
SYM_IGNORE		TRUE
SUBSYSTEM		TRUE
GEN_SCFMAN		TRUE
CHILD_INSTRUCTION		2
SYM_IGNORE		TRUE
SCFMI		0
RI_K 0		
PARI_K 0		
MIN_PARI_K 0		
IARI_K 0		
OCC_RI_K 0		
PURECART		1111
MEM_STATIC		2000
MEM_TOTAL		2000
GUI		0
CHILD_MP		1
CHILD_MP_ORDERS		232
FRZ_RELAX		0
FRZ_RELAX_METHOD		0
EDA_CLS_ELEC		1
EDA_CLS_DISP		0
FRZ_ORTHO_DECOMP		1
EDA2		FALSE
FRGM_METHOD		FALSE
CIS_N_ROOTS  0
LOCAL_CIS    0
CIS_RLX_DNS  1
$end
--------------------------------------------------------------
 ----------------------------------------------------------------
             Standard Nuclear Orientation (Angstroms)
    I     Atom           X                Y                Z
 ----------------------------------------------------------------
    1      C      16.4410000000    27.1420000000    18.6690000000
    2      H      17.5080000000    27.4040000000    18.7630000000
    3      C      16.3160000000    25.8010000000    17.8620000000
    4      O      15.4430000000    25.6360000000    16.9710000000
    5      N      17.1840000000    24.8350000000    18.1260000000
    6      H      17.8900000000    25.1680000000    18.7370000000
    7      C      17.1750000000    23.4060000000    17.7950000000
    8      H      16.4430000000    23.3660000000    16.9570000000
    9      H      16.0150000000    27.0170000000    19.6420000000
   10      H      15.9200000000    27.9230000000    18.1570000000
   11      H      18.1430000000    23.0740000000    17.4820000000
   12      H      16.9200000000    22.7740000000    18.6200000000
 ----------------------------------------------------------------
 Nuclear Repulsion Energy =         178.16177052 hartrees
 There are       20 alpha and       20 beta electrons
 Requested basis set is def2-TZVPD
 There are 101 shells and 251 basis functions

 Total QAlloc Memory Limit   2000 MB
 Mega-Array Size      1956 MB
 MEM_STATIC part      2000 MB

                       Distance Matrix (Angstroms)
             C (  1)   H (  2)   C (  3)   O (  4)   N (  5)   H (  6)
   H (  2)  1.102710
   C (  3)  1.570081  2.191409
   O (  4)  2.479364  3.255966  1.258267
   N (  5)  2.483777  2.666553  1.325246  2.237567
   H (  6)  2.449674  2.268545  1.908871  3.053783  0.991285
   C (  7)  3.906447  4.126974  2.545269  2.941377  1.466862  2.122082
   H (  8)  4.145977  4.549869  2.600842  2.480543  2.018317  2.917090
   H (  9)  1.069500  1.775235  2.176616  3.060815  2.902747  2.784502
   H ( 10)  1.069367  1.777172  2.178698  2.620018  3.336825  3.436179
   H ( 11)  4.566661  4.559944  3.304370  3.756989  2.106072  2.454357
   H ( 12)  4.394459  4.669378  3.178382  3.618256  2.135756  2.585696
             C (  7)   H (  8)   H (  9)   H ( 10)   H ( 11)
   H (  8)  1.113404
   H (  9)  4.218570  4.552165
   H ( 10)  4.702059  4.741284  1.742150
   H ( 11)  1.070148  1.803022  4.974056  5.376816
   H ( 12)  1.070081  1.828541  4.457192  5.265603  1.697284

 A cutoff of  1.0D-14 yielded   5018 shell pairs
 There are     31590 function pairs (     39734 Cartesian)
 Smallest overlap matrix eigenvalue = 9.37E-06

 Scale SEOQF with 1.000000e-03/1.000000e-03/1.000000e-03

 Standard Electronic Orientation quadrupole field applied
 Nucleus-field energy     =     0.0000000085 hartrees
 Guess from superposition of atomic densities
 Warning:  Energy on first SCF cycle will be non-variational
 SAD guess density has 40.000000 electrons

 -----------------------------------------------------------------------
  General SCF calculation program by
  Eric Jon Sundstrom, Paul Horn, Yuezhi Mao, Dmitri Zuev, Alec White,
  David Stuck, Shaama M.S., Shane Yost, Joonho Lee, David Small,
  Daniel Levine, Susi Lehtola, Hugh Burton, Evgeny Epifanovsky,
  Bang C. Huynh
 -----------------------------------------------------------------------
 Exchange:     0.1670 Hartree-Fock + 1.0000 wB97X-V + LR-HF
 Correlation:  1.0000 wB97X-V
 Using Euler-Maclaurin-Lebedev (99,590) quadrature formula
 Nonlocal Correlation:  VV10 with C = 0.0100 and b = 6.00 and scale = 1.00000
 Grid used for NLC:  SG-1 standard quadrature
Energy prior to optimization (guess energy) = -248.406216820078
Begin Timing: Total SCF Calculation
begin iterations for algorithm: DIIS         
the SCF tolerance is set to 1.00e-08
    1    -248.4062168201      4.34e-03     00000 
    2    -248.3219625500      6.19e-03     00000 
    3    -248.5305784979      5.15e-04     00000 
    4    -248.5321585005      2.37e-04     00000 
    5    -248.5325265713      5.45e-05     00000 
    6    -248.5325540869      2.02e-05     00000 
    7    -248.5325591876      5.65e-06     00000 
    8    -248.5325598866      1.87e-06     00000 
    9    -248.5325599431      6.85e-07     00000 
   10    -248.5325599490      1.38e-07     00000 
   11    -248.5325599494      3.16e-08     00000 
   12    -248.5325599494      1.30e-08     00000 
   13    -248.5325599494      2.68e-09     00000 Convergence criterion met
Timing for Total SCF: 279.00s (wall), 1629.23s (cpu)
Multipole orders to be included
        2
        3
computing dipole RHS
computing quadrupole RHS
total number of RHS in solve_reponses: 8
RHS batch sizes
        8
Beginning Block Conjugate Gradient Iterations. Batch Number: 0
computing hessian-vector products by finite difference
              1      5.14e-01     00000 Conjugate Gradient Iteration
computing hessian-vector products by finite difference
              2      1.50e-01     00000 Conjugate Gradient Iteration
computing hessian-vector products by finite difference
              3      3.77e-02     00000 Conjugate Gradient Iteration
computing hessian-vector products by finite difference
              4      8.94e-03     00000 Conjugate Gradient Iteration
computing hessian-vector products by finite difference
              5      1.64e-03     00000 Conjugate Gradient Iteration
computing hessian-vector products by finite difference
              6      3.26e-04     00000 Conjugate Gradient Iteration
computing hessian-vector products by finite difference
              7      4.85e-05     00000 Conjugate Gradient Iteration
computing hessian-vector products by finite difference
              8      7.25e-06     00000 Conjugate Gradient Iteration
computing hessian-vector products by finite difference
              9      1.21e-06     00000 Conjugate Gradient Iteration
computing hessian-vector products by finite difference
             10      2.26e-07     00000 Conjugate Gradient Iteration
computing hessian-vector products by finite difference
             11      4.53e-08     00000 Conjugate Gradient Iteration
computing hessian-vector products by finite difference
             12      1.18e-08     00000 Conjugate Gradient Iteration
computing hessian-vector products by finite difference
             13      2.06e-09     00000 CG Converged
batch 0 complete
Done Calculating Responses
TESTING ORTHOGONALIZATION OF MULTIPOLE BASIS
Multipole virts passed orthogonality test
Virts Per Order
           60
          100

 --------------------------------------------------------------

                    Orbital Energies (a.u.)
 --------------------------------------------------------------

 Alpha MOs
 -- Occupied --
-19.1621 -14.4382 -10.3729 -10.3076 -10.2788  -1.1486  -1.0534  -0.8863
 -0.8310  -0.6978  -0.6324  -0.5796  -0.5736  -0.5412  -0.5210  -0.5137
 -0.4843  -0.4645  -0.3558  -0.3493
 -- Virtual --
  0.0538   0.0765   0.0969   0.1039   0.1087   0.1213   0.1370   0.1402
  0.1460   0.1573   0.1647   0.1806   0.1905   0.2009   0.2083   0.2294
  0.2316   0.2341   0.2496   0.2623   0.2670   0.2771   0.2891   0.2988
  0.3029   0.3116   0.3205   0.3287   0.3384   0.3505   0.3550   0.3619
  0.3668   0.3699   0.3759   0.3816   0.3852   0.3999   0.4014   0.4097
  0.4305   0.4390   0.4509   0.4581   0.4653   0.4720   0.4765   0.4860
  0.4936   0.5031   0.5072   0.5214   0.5279   0.5439   0.5444   0.5595
  0.5670   0.5770   0.5890   0.6015   0.6120   0.6235   0.6481   0.6560
  0.6675   0.6843   0.7068   0.7167   0.7316   0.7414   0.7479   0.7661
  0.7699   0.7859   0.8016   0.8049   0.8089   0.8170   0.8408   0.8520
  0.8606   0.8762   0.8830   0.9135   0.9262   0.9401   0.9653   1.0086
  1.0254   1.0398   1.0606   1.0929   1.1251   1.1388   1.1573   1.1961
  1.2247   1.2450   1.2609   1.2680   1.2854   1.3473   1.3538   1.3859
  1.4124   1.4372   1.5035   1.5408   1.6048   1.6824   1.7167   1.7315
  1.7431   1.8229   1.8354   1.8583   1.8809   1.8887   1.9034   1.9238
  1.9341   1.9470   1.9814   2.0155   2.0577   2.0653   2.0816   2.1128
  2.1501   2.1875   2.2048   2.2361   2.2849   2.3317   2.3494   2.3545
  2.3800   2.4474   2.4574   2.4758   2.4855   2.5266   2.5755   2.5900
  2.6191   2.6299   2.6687   2.6834   2.7141   2.7798   2.7844   2.8282
  2.8664   2.8803   2.9242   2.9399   2.9696   3.0031   3.0176   3.1140
  3.1645   3.1987   3.2332   3.2521   3.2735   3.2864   3.3055   3.3309
  3.3583   3.3738   3.3932   3.4389   3.4413   3.4790   3.4899   3.5407
  3.5539   3.5620   3.5816   3.6150   3.6314   3.6695   3.6946   3.7657
  3.7763   3.8708   3.8877   3.9587   4.0081   4.0590   4.1374   4.1439
  4.2504   4.3476   4.4148   4.4497   4.5255   4.5836   4.6492   4.6690
  4.7097   4.8355   4.9339   4.9608   4.9904   5.1767   5.2355   5.2646
  5.3149   5.3847   5.4324   5.5318   5.5854   5.7153   5.7533   5.7916
  5.9835   6.0964   6.2152   6.4741   6.6661   6.7415   6.8193   7.0025
  7.2403   7.3352  22.5799  22.6509  23.5027  32.7292  44.3363
 --------------------------------------------------------------

          Ground-State Mulliken Net Atomic Charges

     Atom                 Charge (a.u.)
  ----------------------------------------
      1 C                    -0.755020
      2 H                     0.245031
      3 C                     0.588877
      4 O                    -0.568342
      5 N                    -0.088150
      6 H                     0.145437
      7 C                    -0.719210
      8 H                     0.302834
      9 H                     0.208399
     10 H                     0.195767
     11 H                     0.229915
     12 H                     0.214461
  ----------------------------------------
  Sum of atomic charges =     0.000000

 -----------------------------------------------------------------
                    Cartesian Multipole Moments
 -----------------------------------------------------------------
    Charge (ESU x 10^10)
                 0.0000
    Dipole Moment (Debye)
         X       3.2252      Y      -0.5921      Z       2.8861
       Tot       4.3683
    Quadrupole Moments (Debye-Ang)
        XX      73.9256     XY      71.3191     YY     -56.3865
        XZ     103.6382     YZ      63.9904     ZZ      70.5481
    Octopole Moments (Debye-Ang^2)
       XXX    1027.1598    XXY    1688.7478    XYY    1107.9923
       YYY   -3149.3668    XXZ    2056.4072    XYZ    2462.6184
       YYZ     917.1995    XZZ    2136.5623    YZZ    1648.6687
       ZZZ    1014.2152
    Hexadecapole Moments (Debye-Ang^3)
      XXXX    4860.1030   XXXY   22779.3149   XXYY   30844.8012
      XYYY    -698.0867   YYYY -140887.6122   XXXZ   30126.8553
      XXYZ   49152.2984   XYYZ   50448.3758   YYYZ   -6676.8885
      XXZZ   40985.7809   XYZZ   51611.9406   YYZZ   29704.5539
      XZZZ   33588.4179   YZZZ   23598.5309   ZZZZ    3093.5339
 -----------------------------------------------------------------
Archival summary:
1\1\compute-0-13.local\SP\ProcedureUnspecified\BasisUnspecified\1137\meili\MonMay1010:34:372021MonMay1010:34:372021\0\\#,ProcedureUnspecified,BasisUnspecified,\\0,1\N\H,1,0.991285\C,1,1.32525,2,110.145\O,3,1.25827,1,119.994,2,170.733,0\C,1,1.46686,2,118.081,3,-173.662,0\H,5,1.07008,1,113.757,2,68.4425,0\H,5,1.07015,1,111.265,2,-49.8236,0\H,5,1.1134,1,102.056,2,-168.631,0\C,3,1.57008,1,117.907,2,-7.98132,0\H,9,1.06937,3,109.81,1,161.452,0\H,9,1.0695,3,109.638,1,-78.7177,0\H,9,1.10271,3,108.892,1,41.2005,0\\\@

 Total job time:  5038.40s(wall), 29002.57s(cpu) 
 Mon May 10 10:34:37 2021

        *************************************************************
        *                                                           *
        *  Thank you very much for using Q-Chem.  Have a nice day.  *
        *                                                           *
        *************************************************************


Done Job For Fragment 0
calling putenv with: QCSCRATCH=/home/meili/scratch 
calling putenv with: QCTHREADS=8 
Creating input file /home/meili/scratch/qchem46074/Frg2.input
using default PutDataFrgm: nothing
calling putenv with: QCSCRATCH=/home/meili/scratch/qchem46074/ 
Spawning Job For Fragment 1
                  Welcome to Q-Chem
     A Quantum Leap Into The Future Of Chemistry


 Q-Chem 5.2 (devel), Q-Chem, Inc., Pleasanton, CA (2019)

 Yihan Shao,  Zhengting Gan,  E. Epifanovsky,  A. T. B. Gilbert,  M. Wormit,  
 J. Kussmann,  A. W. Lange,  A. Behn,  Jia Deng,  Xintian Feng,  D. Ghosh,  
 M. Goldey,  P. R. Horn,  L. D. Jacobson,  I. Kaliman,  T. Kus,  A. Landau,  
 Jie Liu,  E. I. Proynov,  R. M. Richard,  R. P. Steele,  E. J. Sundstrom,  
 H. L. Woodcock III,  P. M. Zimmerman,  D. Zuev,  B. Albrecht,  E. Alguire,  
 S. A. Baeppler,  D. Barton,  Z. Benda,  Y. A. Bernard,  E. J. Berquist,  
 K. B. Bravaya,  H. Burton,  D. Casanova,  Chun-Min Chang,  Yunqing Chen,  
 A. Chien,  K. D. Closser,  M. P. Coons,  S. Coriani,  S. Dasgupta,  
 A. L. Dempwolff,  M. Diedenhofen,  Hainam Do,  R. G. Edgar,  Po-Tung Fang,  
 S. Faraji,  S. Fatehi,  Qingguo Feng,  K. D. Fenk,  J. Fosso-Tande,  
 J. Gayvert,  Qinghui Ge,  A. Ghysels,  G. Gidofalvi,  J. Gomes,  
 J. Gonthier,  A. Gunina,  D. Hait,  M. W. D. Hanson-Heine,  
 P. H. P. Harbach,  A. W. Hauser,  M. F. Herbst,  J. E. Herr,  
 E. G. Hohenstein,  Z. C. Holden,  Kerwin Hui,  B. C. Huynh,  T.-C. Jagau,  
 Hyunjun Ji,  B. Kaduk,  K. Khistyaev,  Jaehoon Kim,  P. Klunzinger,  K. Koh,  
 D. Kosenkov,  L. Koulias,  T. Kowalczyk,  C. M. Krauter,  A. Kunitsa,  
 Ka Un Lao,  A. Laurent,  K. V. Lawler,  Joonho Lee,  D. Lefrancois,  
 S. Lehtola,  D. S. Levine,  Yi-Pei Li,  You-Sheng Lin,  Fenglai Liu,  
 E. Livshits,  A. Luenser,  P. Manohar,  E. Mansoor,  S. F. Manzer,  
 Shan-Ping Mao,  Yuezhi Mao,  N. Mardirossian,  A. V. Marenich,  
 T. Markovich,  L. A. Martinez-Martinez,  S. A. Maurer,  N. J. Mayhall,  
 S. C. McKenzie,  J.-M. Mewes,  P. Morgante,  A. F. Morrison,  
 J. W. Mullinax,  K. Nanda,  T. S. Nguyen-Beck,  R. Olivares-Amaya,  
 J. A. Parkhill,  Zheng Pei,  T. M. Perrine,  F. Plasser,  P. Pokhilko,  
 S. Prager,  A. Prociuk,  E. Ramos,  D. R. Rehn,  F. Rob,  M. Scheurer,  
 M. Schneider,  N. Sergueev,  S. M. Sharada,  S. Sharma,  D. W. Small,  
 T. Stauch,  T. Stein,  Yu-Chuan Su,  A. J. W. Thom,  A. Tkatchenko,  
 T. Tsuchimochi,  N. M. Tubman,  L. Vogt,  M. L. Vidal,  O. Vydrov,  
 M. A. Watson,  J. Wenzel,  M. de Wergifosse,  T. A. Wesolowski,  A. White,  
 J. Witte,  A. Yamada,  Jun Yang,  K. Yao,  S. Yeganeh,  S. R. Yost,  
 Zhi-Qiang You,  A. Zech,  Igor Ying Zhang,  Xing Zhang,  Yan Zhao,  
 Ying Zhu,  B. R. Brooks,  G. K. L. Chan,  C. J. Cramer,  M. S. Gordon,  
 W. J. Hehre,  A. Klamt,  M. W. Schmidt,  C. D. Sherrill,  D. G. Truhlar,  
 A. Aspuru-Guzik,  R. Baer,  A. T. Bell,  N. A. Besley,  Jeng-Da Chai,  
 A. E. DePrince, III,  R. A. DiStasio Jr.,  A. Dreuw,  B. D. Dunietz,  
 T. R. Furlani,  Chao-Ping Hsu,  Yousung Jung,  Jing Kong,  D. S. Lambrecht,  
 WanZhen Liang,  C. Ochsenfeld,  V. A. Rassolov,  L. V. Slipchenko,  
 J. E. Subotnik,  T. Van Voorhis,  J. M. Herbert,  A. I. Krylov,  
 P. M. W. Gill,  M. Head-Gordon

 Contributors to earlier versions of Q-Chem not listed above: 
 R. D. Adamson,  B. Austin,  J. Baker,  G. J. O. Beran,  K. Brandhorst,  
 S. T. Brown,  E. F. C. Byrd,  A. K. Chakraborty,  C.-L. Cheng,  
 Siu Hung Chien,  D. M. Chipman,  D. L. Crittenden,  H. Dachsel,  
 R. J. Doerksen,  A. D. Dutoi,  L. Fusti-Molnar,  W. A. Goddard III,  
 A. Golubeva-Zadorozhnaya,  S. R. Gwaltney,  G. Hawkins,  A. Heyden,  
 S. Hirata,  G. Kedziora,  F. J. Keil,  C. Kelley,  Jihan Kim,  R. A. King,  
 R. Z. Khaliullin,  P. P. Korambath,  W. Kurlancheek,  A. M. Lee,  M. S. Lee,  
 S. V. Levchenko,  Ching Yeh Lin,  D. Liotard,  R. C. Lochan,  I. Lotan,  
 P. E. Maslen,  N. Nair,  D. P. O'Neill,  D. Neuhauser,  E. Neuscamman,  
 C. M. Oana,  R. Olson,  B. Peters,  R. Peverati,  P. A. Pieniazek,  
 Y. M. Rhee,  J. Ritchie,  M. A. Rohrdanz,  E. Rosta,  N. J. Russ,  
 H. F. Schaefer III,  N. E. Schultz,  N. Shenvi,  A. C. Simmonett,  A. Sodt,  
 D. Stuck,  K. S. Thanthiriwatte,  V. Vanovschi,  Tao Wang,  A. Warshel,  
 C. F. Williams,  Q. Wu,  X. Xu,  W. Zhang

 Please cite Q-Chem as follows:
 Y. Shao et al., Mol. Phys. 113, 184-215 (2015)
 DOI: 10.1080/00268976.2014.952696

 Q-Chem 5.2.1 for Intel X86 EM64T Linux

 Parts of Q-Chem use Armadillo 8.300.2 (Tropical Shenanigans).
 http://arma.sourceforge.net/

 Q-Chem begins on Mon May 10 10:34:37 2021  

compute-0-13.local
Host: 0

     Scratch files written to /home/meili/scratch/qchem46074//Frg2//
NAlpha2: 40
NElect   40
Mult     1

Checking the input file for inconsistencies... 	...done.

--------------------------------------------------------------
User input:
--------------------------------------------------------------
$molecule
0 1
 6	20.4910000000	27.7710000000	17.9710000000
 1	19.4510000000	27.9460000000	18.1670000000
 6	20.3920000000	26.7490000000	16.8130000000
 8	21.0410000000	25.6920000000	16.8930000000
 7	19.6070000000	27.0230000000	15.7970000000
 1	19.0760000000	27.8260000000	15.9190000000
 6	19.5270000000	26.1610000000	14.5960000000
 1	19.3370000000	25.1170000000	14.8990000000
 1	20.9920000000	28.6660000000	17.6660000000
 1	21.0530000000	27.4340000000	18.8160000000
 1	18.7300000000	26.5000000000	13.9680000000
 1	20.4520000000	26.2120000000	14.0610000000
$end
$rem
EDA2		1
METHOD		WB97X-V
BASIS		DEF2-TZVPD
XC_GRID		000099000590
NL_GRID		1
UNRESTRICTED		FALSE
MAX_SCF_CYCLES		200
SYMMETRY		FALSE
SYM_IGNORE		TRUE
BASIS_LIN_DEP_THRESH		6
THRESH		14
SCF_CONVERGENCE		8
SCF_PRINT_FRGM		TRUE
!required keywords
JOBTYPE		SP
SYM_IGNORE		TRUE
SUBSYSTEM		TRUE
GEN_SCFMAN		TRUE
CHILD_INSTRUCTION		2
SYM_IGNORE		TRUE
SCFMI		0
RI_K 0		
PARI_K 0		
MIN_PARI_K 0		
IARI_K 0		
OCC_RI_K 0		
PURECART		1111
MEM_STATIC		2000
MEM_TOTAL		2000
GUI		0
CHILD_MP		1
CHILD_MP_ORDERS		232
FRZ_RELAX		0
FRZ_RELAX_METHOD		0
EDA_CLS_ELEC		1
EDA_CLS_DISP		0
FRZ_ORTHO_DECOMP		1
EDA2		FALSE
FRGM_METHOD		FALSE
CIS_N_ROOTS  0
LOCAL_CIS    0
CIS_RLX_DNS  1
$end
--------------------------------------------------------------
 ----------------------------------------------------------------
             Standard Nuclear Orientation (Angstroms)
    I     Atom           X                Y                Z
 ----------------------------------------------------------------
    1      C      20.4910000000    27.7710000000    17.9710000000
    2      H      19.4510000000    27.9460000000    18.1670000000
    3      C      20.3920000000    26.7490000000    16.8130000000
    4      O      21.0410000000    25.6920000000    16.8930000000
    5      N      19.6070000000    27.0230000000    15.7970000000
    6      H      19.0760000000    27.8260000000    15.9190000000
    7      C      19.5270000000    26.1610000000    14.5960000000
    8      H      19.3370000000    25.1170000000    14.8990000000
    9      H      20.9920000000    28.6660000000    17.6660000000
   10      H      21.0530000000    27.4340000000    18.8160000000
   11      H      18.7300000000    26.5000000000    13.9680000000
   12      H      20.4520000000    26.2120000000    14.0610000000
 ----------------------------------------------------------------
 Nuclear Repulsion Energy =         180.36356607 hartrees
 There are       20 alpha and       20 beta electrons
 Requested basis set is def2-TZVPD
 There are 101 shells and 251 basis functions

 Total QAlloc Memory Limit   2000 MB
 Mega-Array Size      1956 MB
 MEM_STATIC part      2000 MB

                       Distance Matrix (Angstroms)
             C (  1)   H (  2)   C (  3)   O (  4)   N (  5)   H (  6)
   H (  2)  1.072679
   C (  3)  1.547659  2.037549
   O (  4)  2.405582  3.038370  1.242920
   N (  5)  2.463176  2.548169  1.312843  2.242573
   H (  6)  2.493182  2.282220  1.921203  3.060042  0.970389
   C (  7)  3.861609  3.992999  2.451338  2.790764  1.480488  2.173926
   H (  8)  4.220499  4.323894  2.727608  2.685196  2.124180  2.906407
   H (  9)  1.070071  1.773156  2.182315  3.073208  2.847953  2.725558
   H ( 10)  1.069317  1.802706  2.217691  2.594733  3.372565  3.529136
   H ( 11)  4.554182  4.499151  3.304281  3.814343  2.094731  2.384197
   H ( 12)  4.209525  4.568150  2.804545  2.938970  2.094145  2.819669
             C (  7)   H (  8)   H (  9)   H ( 10)   H ( 11)
   H (  8)  1.103560
   H (  9)  4.224470  4.794863
   H ( 10)  4.664505  4.863747  1.686430
   H ( 11)  1.069820  1.774232  4.845968  5.456353
   H ( 12)  1.069790  1.773272  4.394285  4.946161  1.748393

 A cutoff of  1.0D-14 yielded   5027 shell pairs
 There are     31611 function pairs (     39763 Cartesian)
 Smallest overlap matrix eigenvalue = 7.84E-06

 Scale SEOQF with 1.000000e-03/1.000000e-03/1.000000e-03

 Standard Electronic Orientation quadrupole field applied
 Nucleus-field energy     =     0.0000000146 hartrees
 Guess from superposition of atomic densities
 Warning:  Energy on first SCF cycle will be non-variational
 SAD guess density has 40.000000 electrons

 -----------------------------------------------------------------------
  General SCF calculation program by
  Eric Jon Sundstrom, Paul Horn, Yuezhi Mao, Dmitri Zuev, Alec White,
  David Stuck, Shaama M.S., Shane Yost, Joonho Lee, David Small,
  Daniel Levine, Susi Lehtola, Hugh Burton, Evgeny Epifanovsky,
  Bang C. Huynh
 -----------------------------------------------------------------------
 Exchange:     0.1670 Hartree-Fock + 1.0000 wB97X-V + LR-HF
 Correlation:  1.0000 wB97X-V
 Using Euler-Maclaurin-Lebedev (99,590) quadrature formula
 Nonlocal Correlation:  VV10 with C = 0.0100 and b = 6.00 and scale = 1.00000
 Grid used for NLC:  SG-1 standard quadrature
Energy prior to optimization (guess energy) = -248.409481090751
Begin Timing: Total SCF Calculation
begin iterations for algorithm: DIIS         
the SCF tolerance is set to 1.00e-08
    1    -248.4094810908      4.31e-03     00000 
    2    -248.3404348010      5.96e-03     00000 
    3    -248.5322038458      5.14e-04     00000 
    4    -248.5337971332      2.22e-04     00000 
    5    -248.5341276250      5.17e-05     00000 
    6    -248.5341517710      1.95e-05     00000 
    7    -248.5341563884      5.28e-06     00000 
    8    -248.5341569806      1.63e-06     00000 
    9    -248.5341570226      5.98e-07     00000 
   10    -248.5341570268      1.15e-07     00000 
   11    -248.5341570270      2.20e-08     00000 
   12    -248.5341570270      8.65e-09     00000 Convergence criterion met
Timing for Total SCF: 251.00s (wall), 1453.11s (cpu)
Multipole orders to be included
        2
        3
computing dipole RHS
computing quadrupole RHS
total number of RHS in solve_reponses: 8
RHS batch sizes
        8
Beginning Block Conjugate Gradient Iterations. Batch Number: 0
computing hessian-vector products by finite difference
              1      4.65e-01     00000 Conjugate Gradient Iteration
computing hessian-vector products by finite difference
              2      1.48e-01     00000 Conjugate Gradient Iteration
computing hessian-vector products by finite difference
              3      3.38e-02     00000 Conjugate Gradient Iteration
computing hessian-vector products by finite difference
              4      7.63e-03     00000 Conjugate Gradient Iteration
computing hessian-vector products by finite difference
              5      1.43e-03     00000 Conjugate Gradient Iteration
computing hessian-vector products by finite difference
              6      3.16e-04     00000 Conjugate Gradient Iteration
computing hessian-vector products by finite difference
              7      4.81e-05     00000 Conjugate Gradient Iteration
computing hessian-vector products by finite difference
              8      7.35e-06     00000 Conjugate Gradient Iteration
computing hessian-vector products by finite difference
              9      1.26e-06     00000 Conjugate Gradient Iteration
computing hessian-vector products by finite difference
             10      1.55e-07     00000 Conjugate Gradient Iteration
computing hessian-vector products by finite difference
             11      2.27e-08     00000 Conjugate Gradient Iteration
computing hessian-vector products by finite difference
             12      2.45e-09     00000 CG Converged
batch 0 complete
Done Calculating Responses
TESTING ORTHOGONALIZATION OF MULTIPOLE BASIS
Multipole virts passed orthogonality test
Virts Per Order
           60
          100

 --------------------------------------------------------------

                    Orbital Energies (a.u.)
 --------------------------------------------------------------

 Alpha MOs
 -- Occupied --
-19.1590 -14.4382 -10.3632 -10.3071 -10.2680  -1.1550  -1.0583  -0.8866
 -0.8294  -0.7103  -0.6282  -0.5842  -0.5716  -0.5433  -0.5215  -0.5127
 -0.4897  -0.4608  -0.3611  -0.3444
 -- Virtual --
  0.0544   0.0765   0.0932   0.1064   0.1112   0.1259   0.1329   0.1416
  0.1568   0.1641   0.1663   0.1749   0.1893   0.2015   0.2094   0.2208
  0.2350   0.2375   0.2541   0.2681   0.2731   0.2782   0.2869   0.2993
  0.3059   0.3070   0.3174   0.3326   0.3416   0.3525   0.3550   0.3604
  0.3677   0.3759   0.3815   0.3847   0.3977   0.4022   0.4092   0.4221
  0.4336   0.4353   0.4481   0.4525   0.4557   0.4716   0.4738   0.4864
  0.4883   0.5015   0.5118   0.5193   0.5253   0.5335   0.5358   0.5545
  0.5645   0.5776   0.6088   0.6137   0.6293   0.6442   0.6479   0.6711
  0.6788   0.6940   0.7154   0.7277   0.7337   0.7377   0.7435   0.7542
  0.7799   0.7861   0.8014   0.8101   0.8197   0.8314   0.8431   0.8460
  0.8556   0.8767   0.8909   0.9046   0.9417   0.9629   0.9736   1.0147
  1.0185   1.0550   1.0623   1.0754   1.1187   1.1439   1.1900   1.1977
  1.2147   1.2263   1.2669   1.2928   1.3138   1.3277   1.3560   1.3690
  1.4005   1.4498   1.5272   1.5389   1.6215   1.6671   1.7244   1.7517
  1.7750   1.8360   1.8462   1.8692   1.8730   1.8941   1.9081   1.9265
  1.9357   1.9583   1.9985   2.0085   2.0211   2.0547   2.1153   2.1307
  2.1421   2.1904   2.2491   2.2515   2.2768   2.3107   2.3135   2.3840
  2.3904   2.4157   2.4649   2.4818   2.5172   2.5515   2.5853   2.5943
  2.6044   2.6605   2.6650   2.7135   2.7620   2.7953   2.8180   2.8317
  2.8712   2.8843   2.9251   2.9511   2.9819   3.0093   3.0643   3.1452
  3.1808   3.2042   3.2115   3.2454   3.2794   3.3007   3.3135   3.3388
  3.3651   3.3768   3.3911   3.4336   3.4588   3.4644   3.4891   3.4930
  3.5436   3.5771   3.5956   3.6337   3.6703   3.6891   3.7265   3.7278
  3.8231   3.8830   3.8975   3.9877   4.0419   4.1091   4.1512   4.1610
  4.2963   4.3513   4.3969   4.4796   4.5396   4.6555   4.6807   4.7350
  4.7508   4.8323   4.9301   4.9714   5.0227   5.1660   5.2158   5.2521
  5.3559   5.4192   5.4586   5.5591   5.6365   5.6929   5.7397   5.7866
  5.9663   6.1586   6.2583   6.5230   6.6789   6.7765   6.8535   7.0073
  7.2824   7.3647  22.6546  22.6669  23.6304  32.6913  44.3299
 --------------------------------------------------------------

          Ground-State Mulliken Net Atomic Charges

     Atom                 Charge (a.u.)
  ----------------------------------------
      1 C                    -0.761305
      2 H                     0.226850
      3 C                     0.499826
      4 O                    -0.556064
      5 N                    -0.049008
      6 H                     0.171339
      7 C                    -0.614072
      8 H                     0.219014
      9 H                     0.234199
     10 H                     0.177747
     11 H                     0.242299
     12 H                     0.209175
  ----------------------------------------
  Sum of atomic charges =     0.000000

 -----------------------------------------------------------------
                    Cartesian Multipole Moments
 -----------------------------------------------------------------
    Charge (ESU x 10^10)
                -0.0000
    Dipole Moment (Debye)
         X      -2.5379      Y       3.0320      Z      -1.3708
       Tot       4.1848
    Quadrupole Moments (Debye-Ang)
        XX    -133.9564     XY      -4.5786     YY     129.5042
        XZ     -68.4172     YZ      15.7129     ZZ     -72.6846
    Octopole Moments (Debye-Ang^2)
       XXX   -5012.1724    XXY   -2257.2139    XYY     906.9403
       YYY    3890.0863    XXZ   -2721.9516    XYZ    -735.9599
       YYZ    1282.6714    XZZ   -2121.5007    YZZ   -1041.1212
       ZZZ   -2472.4988
    Hexadecapole Moments (Debye-Ang^3)
      XXXX -160810.1061   XXXY -106216.4601   XXYY  -38434.7022
      XYYY   34163.9489   YYYY   92212.4501   XXXZ  -92568.0456
      XXYZ  -49904.7601   XYYZ   -1375.6453   YYYZ   43012.9591
      XXZZ  -64632.0862   XYZZ  -37874.1511   YYZZ  -12654.4366
      XZZZ  -60463.3298   YZZZ  -50643.8186   ZZZZ  -69411.0852
 -----------------------------------------------------------------
Archival summary:
1\1\compute-0-13.local\SP\ProcedureUnspecified\BasisUnspecified\1137\meili\MonMay1011:56:412021MonMay1011:56:412021\0\\#,ProcedureUnspecified,BasisUnspecified,\\0,1\N\H,1,0.970389\C,1,1.31284,2,113.741\O,3,1.24292,1,122.651,2,172.51,0\C,1,1.48049,2,123.657,3,178.675,0\H,5,1.06979,1,109.342,2,113.487,0\H,5,1.06982,1,109.388,2,-6.54359,0\H,5,1.10356,1,109.718,2,-126.595,0\C,3,1.54766,1,118.651,2,-6.22908,0\H,9,1.06932,3,114.631,1,172.993,0\H,9,1.07007,3,111.654,1,-69.0133,0\H,9,1.07268,3,100.511,1,49.5459,0\\\@

 Total job time:  4923.27s(wall), 29279.12s(cpu) 
 Mon May 10 11:56:41 2021

        *************************************************************
        *                                                           *
        *  Thank you very much for using Q-Chem.  Have a nice day.  *
        *                                                           *
        *************************************************************


Done Job For Fragment 1
calling putenv with: QCSCRATCH=/home/meili/scratch 
calling putenv with: QCTHREADS=8 
Doing General SCFMI
 Exchange:     0.1670 Hartree-Fock + 1.0000 wB97X-V + LR-HF
 Correlation:  1.0000 wB97X-V
 Using Euler-Maclaurin-Lebedev (99,590) quadrature formula
 Nonlocal Correlation:  VV10 with C = 0.0100 and b = 6.00 and scale = 1.00000
 Grid used for NLC:  SG-1 standard quadrature
performing fock build before subrot guess so that all methods have access
Printing subrot_rss_gen Method Specification:
Occupied Subspace Method is 0
Virtual Subspace Method is 0
Energy of the unrelaxed supersystem initial determinant -497.070429869137
write pseudocanon occs and virts to disk
write pseudocanon orbital energies to disk
Tolerance of ortho_decomp_scf: 1.00e-06
GDM subspace size: 20
Beginning the Orthogonal Decomposition of the Initial Supersystem Wavefunction
    1    -497.0589229929      1.36e-02     ortho_decomp Preconditoned Steepest Descent
    2    -497.0594946925      3.44e-04     ortho_decomp BFGS Step
    3    -497.0594962479      1.96e-05     ortho_decomp BFGS Step
    4    -497.0594962497      7.62e-07     ortho_decomp 00000 Convergence criterion met
 Hartree-Fock
 Hartree-Fock
 Hartree-Fock
Doing General SCFMI
 Exchange:     0.1670 Hartree-Fock + 1.0000 wB97X-V + LR-HF
 Correlation:  1.0000 wB97X-V
 Using Euler-Maclaurin-Lebedev (99,590) quadrature formula
 Nonlocal Correlation:  VV10 with C = 0.0100 and b = 6.00 and scale = 1.00000
 Grid used for NLC:  SG-1 standard quadrature
performing fock build at end of subrot_r(subrot) constructor so that all methods have access
<S^2> of initial wavefunction before polarization iterations 0.0000000000
Beginning iterations for the determination of the polarized wavefunction
Energy prior to optimization (guess energy) = -497.070429869137
Begin Timing: Total SCF Calculation
begin iterations for algorithm: DIIS         
the SCF tolerance is set to 1.00e-08
    1    -497.0704298691      8.63e-05     00000 
    2    -497.0709954557      3.53e-05     00000 
    3    -497.0710430227      1.90e-05     00000 
    4    -497.0710566407      9.14e-06     00000 
    5    -497.0710597246      3.48e-06     00000 
    6    -497.0710603793      1.62e-06     00000 
    7    -497.0710605448      5.27e-07     00000 
    8    -497.0710605636      1.85e-07     00000 
    9    -497.0710605655      7.62e-08     00000 
   10    -497.0710605657      3.90e-08     00000 
   11    -497.0710605658      1.44e-08     00000 
   12    -497.0710605658      3.30e-09     00000 Convergence criterion met
write pseudocanon occs and virts to disk
write pseudocanon orbital energies to disk
Timing for Total SCF: 1651.00s (wall), 10176.60s (cpu)
<S^2> of polarized wavefunction after polarization iterations 0.0000000000
relaxing scfmi constraint to allow all rotations in the entire AO span
Doing General SCFMI
 Exchange:     0.1670 Hartree-Fock + 1.0000 wB97X-V + LR-HF
 Correlation:  1.0000 wB97X-V
 Using Euler-Maclaurin-Lebedev (99,590) quadrature formula
 Nonlocal Correlation:  VV10 with C = 0.0100 and b = 6.00 and scale = 1.00000
 Grid used for NLC:  SG-1 standard quadrature
performing fock build at end of subrot_r(subrot) constructor so that all methods have access
<S^2> of polarized wavefunction before ct-allowed iterations 0.0000000000
Beginning iterations for the determination of the CT-Allowed wavefunction
Energy prior to optimization (guess energy) = -497.071060565792
Begin Timing: Total SCF Calculation
begin iterations for algorithm: DIIS         
the SCF tolerance is set to 1.00e-08
    1    -497.0710605658      7.28e-05     00000 
    2    -497.0716848435      7.49e-06     00000 
    3    -497.0717017498      1.10e-06     00000 
    4    -497.0717021688      4.71e-07     00000 
    5    -497.0717021900      1.97e-07     00000 
    6    -497.0717021940      7.45e-08     00000 
    7    -497.0717021946      1.20e-08     00000 
    8    -497.0717021946      6.00e-09     00000 Convergence criterion met
write pseudocanon occs and virts to disk
write pseudocanon orbital energies to disk
Timing for Total SCF: 990.00s (wall), 6598.81s (cpu)
<S^2> of ct_allowed wavefunction after ct-allowed iterations 0.0000000000

================================
        Results of EDA2         
================================
Basic EDA Quantities
--------------------
Fragment Energies (Ha):
1 -248.5325599494
2 -248.5341570270
--------------------
  E_prp (kJ/mol) = 0.0000
  E_frz (kJ/mol) = -9.7483
  E_pol (kJ/mol) = -1.6559
  E_vct (kJ/mol) = -1.6846
  E_int (kJ/mol) = -13.0888
--------------------


Initial Wavefunction Decomposition
--------------------
  --------------------
  Orthogonal Fragment Subspace Decomposition:
  --------------------
     E_elec   (ELEC)   (kJ/mol) = -12.4293
     E_pauli  (PAULI)  (kJ/mol) = 14.3081
     E_disp   (DISP)   (kJ/mol) = -11.6272
     --------------------
     Terms summing to E_pauli:
     --------------------
        E_kep_pauli       (kJ/mol) = 18.9582
        E_disp_free_pauli (kJ/mol) = -4.6501
  --------------------
  Classical Frozen Decomposition:
  --------------------
     E_cls_elec  (CLS ELEC)  (kJ/mol) = -6.2406
     E_cls_pauli (CLS PAULI) (kJ/mol) = -3.5077
    [E_mod_pauli (MOD PAULI) (kJ/mol) = 8.1194 (CLS PAULI - DISP from orthogonal decomposition) ]
  --------------------
--------------------

Simplified EDA Summary (kJ/mol)
--------------------
 PREPARATION     0.0000
 FROZEN          1.8789      (does not include dispersion)
[PAULI           14.3081]     (if this is negligible, then frozen describes electrostatics)
 DISPERSION      -11.6272
 POLARIZATION    -1.6559
 CHARGE TRANSFER -1.6846
 TOTAL           -13.0888     (PRP + FRZ + DISP + POL + CT)
--------------------

 --------------------------------------------------------------

                    Orbital Energies (a.u.)
 --------------------------------------------------------------

 Alpha MOs
 -- Occupied --
-19.1658 -19.1648 -14.4422 -14.4382 -10.3756 -10.3697 -10.3073 -10.3047
-10.2846 -10.2769  -1.1611  -1.1507  -1.0627  -1.0539  -0.8930  -0.8885
 -0.8335  -0.8318  -0.7139  -0.6973  -0.6328  -0.6322  -0.5938  -0.5791
 -0.5772  -0.5758  -0.5513  -0.5411  -0.5267  -0.5223  -0.5167  -0.5153
 -0.4959  -0.4851  -0.4692  -0.4643  -0.3658  -0.3564  -0.3527  -0.3511
 -- Virtual --
  0.0461   0.0679   0.0714   0.0778   0.0915   0.0970   0.1008   0.1037
  0.1114   0.1123   0.1192   0.1307   0.1341   0.1401   0.1446   0.1490
  0.1543   0.1574   0.1585   0.1674   0.1802   0.1812   0.1907   0.1949
  0.1988   0.2073   0.2167   0.2187   0.2275   0.2292   0.2333   0.2422
  0.2461   0.2513   0.2551   0.2595   0.2614   0.2701   0.2784   0.2847
  0.2878   0.2896   0.2937   0.3051   0.3086   0.3115   0.3167   0.3201
  0.3238   0.3284   0.3329   0.3394   0.3409   0.3433   0.3449   0.3532
  0.3575   0.3577   0.3633   0.3656   0.3705   0.3758   0.3827   0.3833
  0.3850   0.3862   0.3914   0.3953   0.4043   0.4081   0.4122   0.4187
  0.4236   0.4280   0.4287   0.4383   0.4459   0.4487   0.4561   0.4583
  0.4637   0.4675   0.4714   0.4751   0.4790   0.4798   0.4899   0.4916
  0.4951   0.4964   0.5040   0.5072   0.5098   0.5182   0.5237   0.5259
  0.5288   0.5351   0.5364   0.5418   0.5476   0.5537   0.5613   0.5672
  0.5752   0.5781   0.5835   0.5866   0.6005   0.6058   0.6084   0.6173
  0.6214   0.6264   0.6279   0.6429   0.6483   0.6529   0.6594   0.6619
  0.6729   0.6759   0.6868   0.6908   0.6958   0.7017   0.7080   0.7171
  0.7276   0.7304   0.7359   0.7453   0.7523   0.7586   0.7607   0.7667
  0.7703   0.7761   0.7852   0.7877   0.7912   0.7954   0.8008   0.8093
  0.8139   0.8207   0.8240   0.8284   0.8338   0.8382   0.8498   0.8566
  0.8691   0.8764   0.8797   0.8843   0.8916   0.9052   0.9111   0.9127
  0.9169   0.9201   0.9378   0.9423   0.9459   0.9593   0.9667   0.9713
  0.9791   0.9932   1.0017   1.0268   1.0417   1.0511   1.0529   1.0579
  1.0685   1.0869   1.0916   1.1040   1.1122   1.1242   1.1276   1.1580
  1.1674   1.1788   1.1869   1.1994   1.2160   1.2268   1.2322   1.2430
  1.2629   1.2643   1.2829   1.2862   1.2993   1.3048   1.3159   1.3292
  1.3447   1.3579   1.3653   1.3876   1.3931   1.4080   1.4165   1.4297
  1.4588   1.4596   1.4759   1.4969   1.5381   1.5417   1.5886   1.6115
  1.6326   1.6444   1.6882   1.7038   1.7417   1.7606   1.7698   1.7898
  1.8308   1.8532   1.8567   1.8684   1.8765   1.8884   1.8936   1.9109
  1.9148   1.9257   1.9287   1.9345   1.9362   1.9457   1.9531   1.9578
  1.9704   1.9755   1.9847   1.9912   2.0142   2.0319   2.0345   2.0516
  2.0671   2.0820   2.0944   2.1047   2.1167   2.1484   2.1547   2.1803
  2.1843   2.1970   2.2202   2.2250   2.2399   2.2641   2.2777   2.2964
  2.3029   2.3296   2.3325   2.3398   2.3561   2.3770   2.3972   2.4064
  2.4212   2.4311   2.4494   2.4813   2.4818   2.4862   2.4961   2.5175
  2.5429   2.5496   2.5636   2.5927   2.6116   2.6177   2.6261   2.6394
  2.6424   2.6745   2.6816   2.6940   2.7036   2.7256   2.7470   2.7608
  2.7694   2.7823   2.8040   2.8148   2.8304   2.8468   2.8697   2.8791
  2.8858   2.8991   2.9110   2.9269   2.9392   2.9464   2.9625   2.9755
  2.9859   3.0037   3.0647   3.0714   3.0811   3.1262   3.1324   3.1610
  3.1850   3.2000   3.2219   3.2359   3.2596   3.2661   3.2737   3.2949
  3.3040   3.3088   3.3197   3.3270   3.3343   3.3481   3.3597   3.3777
  3.3837   3.3910   3.3958   3.4033   3.4137   3.4228   3.4522   3.4537
  3.4677   3.4745   3.4831   3.4998   3.5063   3.5078   3.5234   3.5580
  3.5631   3.5808   3.5817   3.5977   3.6072   3.6156   3.6503   3.6777
  3.6880   3.6989   3.7067   3.7206   3.7284   3.7567   3.7605   3.7792
  3.8004   3.8376   3.8868   3.8996   3.9104   3.9224   3.9755   4.0059
  4.0257   4.0638   4.0693   4.1147   4.1448   4.1598   4.1710   4.1764
  4.2623   4.3074   4.3666   4.3766   4.4128   4.4349   4.4743   4.4947
  4.5606   4.5763   4.6006   4.6593   4.6709   4.6853   4.6970   4.7361
  4.7484   4.7694   4.8399   4.8483   4.9441   4.9703   4.9738   4.9901
  5.0103   5.0492   5.1732   5.1962   5.2332   5.2553   5.2624   5.2781
  5.3257   5.3606   5.3916   5.4243   5.4479   5.4744   5.5415   5.5679
  5.6119   5.6424   5.7045   5.7265   5.7465   5.7592   5.7887   5.8044
  5.9689   5.9906   6.1213   6.1743   6.2195   6.2601   6.4789   6.5262
  6.6851   6.6937   6.7446   6.7794   6.8290   6.8569   7.0201   7.0252
  7.2443   7.2829   7.3368   7.3645  22.6249  22.6737  22.6893  22.6980
 23.5216  23.6468  32.7346  32.7666  44.4000  44.4378
 --------------------------------------------------------------

          Ground-State Mulliken Net Atomic Charges

     Atom                 Charge (a.u.)
  ----------------------------------------
      1 C                    -0.435064
      2 H                    -0.098856
      3 C                     0.620241
      4 O                    -0.587058
      5 N                    -0.042201
      6 H                     0.137394
      7 C                    -0.778355
      8 H                     0.310363
      9 H                     0.228988
     10 H                     0.167553
     11 H                     0.251161
     12 H                     0.223564
     13 C                    -0.435682
     14 H                    -0.102913
     15 C                     0.451923
     16 O                    -0.575371
     17 N                     0.017214
     18 H                     0.181844
     19 C                    -0.608993
     20 H                     0.187333
     21 H                     0.263027
     22 H                     0.145196
     23 H                     0.252980
     24 H                     0.225710
  ----------------------------------------
  Sum of atomic charges =     0.000000

 -----------------------------------------------------------------
                    Cartesian Multipole Moments
 -----------------------------------------------------------------
    Charge (ESU x 10^10)
                -0.0000
    Dipole Moment (Debye)
         X       0.7570      Y       2.2913      Z       1.3653
       Tot       2.7726
    Quadrupole Moments (Debye-Ang)
        XX     -57.7258     XY      66.0821     YY      65.7029
        XZ      33.3464     YZ      72.8828     ZZ      -6.7711
    Octopole Moments (Debye-Ang^2)
       XXX   -3927.5935    XXY    -548.5556    XYY    1940.2056
       YYY     462.7524    XXZ    -687.9794    XYZ    1628.6725
       YYZ    1951.8533    XZZ     -60.7248    YZZ     430.4424
       ZZZ   -1565.6063
    Hexadecapole Moments (Debye-Ang^3)
      XXXX -154672.3462   XXXY  -82569.3101   XXYY   -7975.3800
      XYYY   30181.4447   YYYY  -57949.6381   XXXZ  -62696.0709
      XXYZ   -2149.5373   XYYZ   45356.7791   YYYZ   28170.0132
      XXZZ  -24934.8342   XYZZ   10802.7195   YYZZ   11064.1672
      XZZZ  -28792.1120   YZZZ  -30920.2889   ZZZZ  -68520.5656
 -----------------------------------------------------------------
Archival summary:
1\1\compute-0-13.local\SP\ProcedureUnspecified\BasisUnspecified\22614\meili\MonMay1013:13:192021MonMay1013:13:192021\0\\#,ProcedureUnspecified,BasisUnspecified,\\0,1\N\H,1,0.991285\C,1,1.32525,2,110.145\O,3,1.25827,1,119.994,2,170.733,0\C,1,1.46686,2,118.081,3,-173.662,0\H,5,1.07008,1,113.757,2,68.4425,0\H,5,1.07015,1,111.265,2,-49.8236,0\H,5,1.1134,1,102.056,2,-168.631,0\C,3,1.57008,1,117.907,2,-7.98132,0\H,9,1.06937,3,109.81,1,161.452,0\H,9,1.0695,3,109.638,1,-78.7177,0\H,9,1.10271,3,108.892,1,41.2005,0\H,12,2.10339,9,158.576,3,63.6442,0\C,13,1.07268,12,154.869,9,-105.331,0\H,14,1.06932,13,114.619,12,-59.3572,0\H,14,1.07007,13,111.688,12,-177.367,0\C,14,1.54766,13,100.511,12,64.0986,0\O,17,1.24292,14,118.686,13,-129.244,0\N,17,1.31284,14,118.651,13,49.5459,0\H,19,0.970389,17,113.741,14,-6.22908,0\C,19,1.48049,17,122.588,14,175.08,0\H,21,1.06979,19,109.342,17,-67.9527,0\H,21,1.06982,19,109.388,17,172.017,0\H,21,1.10356,19,109.718,17,51.9659,0\\\@

 Total job time:  14645.69s(wall), 28815.07s(cpu) 
 Mon May 10 13:13:19 2021

        *************************************************************
        *                                                           *
        *  Thank you very much for using Q-Chem.  Have a nice day.  *
        *                                                           *
        *************************************************************


