                  Welcome to Q-Chem
     A Quantum Leap Into The Future Of Chemistry


 Q-Chem 5.2 (devel), Q-Chem, Inc., Pleasanton, CA (2019)

 Yihan Shao,  Zhengting Gan,  E. Epifanovsky,  A. T. B. Gilbert,  M. Wormit,  
 J. Kussmann,  A. W. Lange,  A. Behn,  Jia Deng,  Xintian Feng,  D. Ghosh,  
 M. Goldey,  P. R. Horn,  L. D. Jacobson,  I. Kaliman,  T. Kus,  A. Landau,  
 Jie Liu,  E. I. Proynov,  R. M. Richard,  R. P. Steele,  E. J. Sundstrom,  
 H. L. Woodcock III,  P. M. Zimmerman,  D. Zuev,  B. Albrecht,  E. Alguire,  
 S. A. Baeppler,  D. Barton,  Z. Benda,  Y. A. Bernard,  E. J. Berquist,  
 K. B. Bravaya,  H. Burton,  D. Casanova,  Chun-Min Chang,  Yunqing Chen,  
 A. Chien,  K. D. Closser,  M. P. Coons,  S. Coriani,  S. Dasgupta,  
 A. L. Dempwolff,  M. Diedenhofen,  Hainam Do,  R. G. Edgar,  Po-Tung Fang,  
 S. Faraji,  S. Fatehi,  Qingguo Feng,  K. D. Fenk,  J. Fosso-Tande,  
 J. Gayvert,  Qinghui Ge,  A. Ghysels,  G. Gidofalvi,  J. Gomes,  
 J. Gonthier,  A. Gunina,  D. Hait,  M. W. D. Hanson-Heine,  
 P. H. P. Harbach,  A. W. Hauser,  M. F. Herbst,  J. E. Herr,  
 E. G. Hohenstein,  Z. C. Holden,  Kerwin Hui,  B. C. Huynh,  T.-C. Jagau,  
 Hyunjun Ji,  B. Kaduk,  K. Khistyaev,  Jaehoon Kim,  P. Klunzinger,  K. Koh,  
 D. Kosenkov,  L. Koulias,  T. Kowalczyk,  C. M. Krauter,  A. Kunitsa,  
 Ka Un Lao,  A. Laurent,  K. V. Lawler,  Joonho Lee,  D. Lefrancois,  
 S. Lehtola,  D. S. Levine,  Yi-Pei Li,  You-Sheng Lin,  Fenglai Liu,  
 E. Livshits,  A. Luenser,  P. Manohar,  E. Mansoor,  S. F. Manzer,  
 Shan-Ping Mao,  Yuezhi Mao,  N. Mardirossian,  A. V. Marenich,  
 T. Markovich,  L. A. Martinez-Martinez,  S. A. Maurer,  N. J. Mayhall,  
 S. C. McKenzie,  J.-M. Mewes,  P. Morgante,  A. F. Morrison,  
 J. W. Mullinax,  K. Nanda,  T. S. Nguyen-Beck,  R. Olivares-Amaya,  
 J. A. Parkhill,  Zheng Pei,  T. M. Perrine,  F. Plasser,  P. Pokhilko,  
 S. Prager,  A. Prociuk,  E. Ramos,  D. R. Rehn,  F. Rob,  M. Scheurer,  
 M. Schneider,  N. Sergueev,  S. M. Sharada,  S. Sharma,  D. W. Small,  
 T. Stauch,  T. Stein,  Yu-Chuan Su,  A. J. W. Thom,  A. Tkatchenko,  
 T. Tsuchimochi,  N. M. Tubman,  L. Vogt,  M. L. Vidal,  O. Vydrov,  
 M. A. Watson,  J. Wenzel,  M. de Wergifosse,  T. A. Wesolowski,  A. White,  
 J. Witte,  A. Yamada,  Jun Yang,  K. Yao,  S. Yeganeh,  S. R. Yost,  
 Zhi-Qiang You,  A. Zech,  Igor Ying Zhang,  Xing Zhang,  Yan Zhao,  
 Ying Zhu,  B. R. Brooks,  G. K. L. Chan,  C. J. Cramer,  M. S. Gordon,  
 W. J. Hehre,  A. Klamt,  M. W. Schmidt,  C. D. Sherrill,  D. G. Truhlar,  
 A. Aspuru-Guzik,  R. Baer,  A. T. Bell,  N. A. Besley,  Jeng-Da Chai,  
 A. E. DePrince, III,  R. A. DiStasio Jr.,  A. Dreuw,  B. D. Dunietz,  
 T. R. Furlani,  Chao-Ping Hsu,  Yousung Jung,  Jing Kong,  D. S. Lambrecht,  
 WanZhen Liang,  C. Ochsenfeld,  V. A. Rassolov,  L. V. Slipchenko,  
 J. E. Subotnik,  T. Van Voorhis,  J. M. Herbert,  A. I. Krylov,  
 P. M. W. Gill,  M. Head-Gordon

 Contributors to earlier versions of Q-Chem not listed above: 
 R. D. Adamson,  B. Austin,  J. Baker,  G. J. O. Beran,  K. Brandhorst,  
 S. T. Brown,  E. F. C. Byrd,  A. K. Chakraborty,  C.-L. Cheng,  
 Siu Hung Chien,  D. M. Chipman,  D. L. Crittenden,  H. Dachsel,  
 R. J. Doerksen,  A. D. Dutoi,  L. Fusti-Molnar,  W. A. Goddard III,  
 A. Golubeva-Zadorozhnaya,  S. R. Gwaltney,  G. Hawkins,  A. Heyden,  
 S. Hirata,  G. Kedziora,  F. J. Keil,  C. Kelley,  Jihan Kim,  R. A. King,  
 R. Z. Khaliullin,  P. P. Korambath,  W. Kurlancheek,  A. M. Lee,  M. S. Lee,  
 S. V. Levchenko,  Ching Yeh Lin,  D. Liotard,  R. C. Lochan,  I. Lotan,  
 P. E. Maslen,  N. Nair,  D. P. O'Neill,  D. Neuhauser,  E. Neuscamman,  
 C. M. Oana,  R. Olson,  B. Peters,  R. Peverati,  P. A. Pieniazek,  
 Y. M. Rhee,  J. Ritchie,  M. A. Rohrdanz,  E. Rosta,  N. J. Russ,  
 H. F. Schaefer III,  N. E. Schultz,  N. Shenvi,  A. C. Simmonett,  A. Sodt,  
 D. Stuck,  K. S. Thanthiriwatte,  V. Vanovschi,  Tao Wang,  A. Warshel,  
 C. F. Williams,  Q. Wu,  X. Xu,  W. Zhang

 Please cite Q-Chem as follows:
 Y. Shao et al., Mol. Phys. 113, 184-215 (2015)
 DOI: 10.1080/00268976.2014.952696

 Q-Chem 5.2.1 for Intel X86 EM64T Linux

 Parts of Q-Chem use Armadillo 8.300.2 (Tropical Shenanigans).
 http://arma.sourceforge.net/

 Q-Chem begins on Mon May 10 09:09:11 2021  

compute-0-5.local
Host: 0

     Scratch files written to /home/meili/scratch/qchem20466//
NAlpha2: 80
NElect   80
Mult     1

 Q-Chem warning in module libgen/rem_setup.C, line 2813:

 Neither GIA nor STOLL is specified by user. Use STOLL as the default


Checking the input file for inconsistencies... 	...done.

--------------------------------------------------------------
User input:
--------------------------------------------------------------
$comment
1vex_ff99sbtip3p_nvt_e8_100ns_m6604_001GLY_002SER_040CYX_041ASN.pdb
$end

$molecule
0 1
--
0 1
C    19.2200000000   34.6300000000   21.9700000000
H    20.1070000000   34.5910000000   21.3790000000
C    18.0110000000   35.0530000000   21.1380000000
O    16.9030000000   35.1820000000   21.7020000000
N    18.0310000000   35.2210000000   19.7610000000
H    18.9460000000   35.0280000000   19.2940000000
C    16.9370000000   35.6700000000   18.8990000000
H    16.0830000000   35.9330000000   19.4680000000
H    19.0350000000   33.6610000000   22.3840000000
H    19.3640000000   35.3540000000   22.7450000000
H    17.2610000000   36.5240000000   18.3410000000
H    16.6720000000   34.8670000000   18.2430000000
--
0 1
C    18.6990000000   30.6790000000   20.4810000000
H    18.6880000000   31.3040000000   19.6010000000
C    17.5830000000   31.3060000000   21.4190000000
O    17.8290000000   31.5510000000   22.6050000000
N    16.3910000000   31.6200000000   20.9050000000
H    16.3220000000   31.4700000000   19.9050000000
C    15.3380000000   32.3410000000   21.5960000000
H    15.7170000000   33.0840000000   22.2550000000
H    19.6570000000   30.7110000000   20.9570000000
H    18.5130000000   29.6500000000   20.2550000000
H    14.7590000000   31.6420000000   22.1630000000
H    14.7440000000   32.8360000000   20.8560000000
$end

$rem
JOBTYPE			EDA
EDA2			1
method			wB97X-V
BASIS			def2-TZVPD
XC_GRID			000099000590
NL_GRID			1
UNRESTRICTED		FALSE
MAX_SCF_CYCLES		200
SYMMETRY		FALSE
SYM_IGNORE		TRUE
MEM_STATIC		2000
BASIS_LIN_DEP_THRESH 	6
THRESH 			14
SCF_CONVERGENCE 	8
SCF_PRINT_FRGM 		TRUE
$end
--------------------------------------------------------------
 ----------------------------------------------------------------
             Standard Nuclear Orientation (Angstroms)
    I     Atom           X                Y                Z
 ----------------------------------------------------------------
    1      C      19.2200000000    34.6300000000    21.9700000000
    2      H      20.1070000000    34.5910000000    21.3790000000
    3      C      18.0110000000    35.0530000000    21.1380000000
    4      O      16.9030000000    35.1820000000    21.7020000000
    5      N      18.0310000000    35.2210000000    19.7610000000
    6      H      18.9460000000    35.0280000000    19.2940000000
    7      C      16.9370000000    35.6700000000    18.8990000000
    8      H      16.0830000000    35.9330000000    19.4680000000
    9      H      19.0350000000    33.6610000000    22.3840000000
   10      H      19.3640000000    35.3540000000    22.7450000000
   11      H      17.2610000000    36.5240000000    18.3410000000
   12      H      16.6720000000    34.8670000000    18.2430000000
   13      C      18.6990000000    30.6790000000    20.4810000000
   14      H      18.6880000000    31.3040000000    19.6010000000
   15      C      17.5830000000    31.3060000000    21.4190000000
   16      O      17.8290000000    31.5510000000    22.6050000000
   17      N      16.3910000000    31.6200000000    20.9050000000
   18      H      16.3220000000    31.4700000000    19.9050000000
   19      C      15.3380000000    32.3410000000    21.5960000000
   20      H      15.7170000000    33.0840000000    22.2550000000
   21      H      19.6570000000    30.7110000000    20.9570000000
   22      H      18.5130000000    29.6500000000    20.2550000000
   23      H      14.7590000000    31.6420000000    22.1630000000
   24      H      14.7440000000    32.8360000000    20.8560000000
 ----------------------------------------------------------------
 Nuclear Repulsion Energy =         554.81084822 hartrees
 There are       40 alpha and       40 beta electrons
 Requested basis set is def2-TZVPD
 There are 202 shells and 502 basis functions

 Total QAlloc Memory Limit   2000 MB
 Mega-Array Size      1956 MB
 MEM_STATIC part      2000 MB
 A cutoff of  1.0D-14 yielded  18684 shell pairs
 There are    116952 function pairs (    146310 Cartesian)
 Smallest overlap matrix eigenvalue = 4.82E-06

 Scale SEOQF with 1.000000e-03/1.000000e-03/1.000000e-03

 Standard Electronic Orientation quadrupole field applied
 Nucleus-field energy     =     0.0000000346 hartrees

 -----------------------------------------------------------------------
  General SCF calculation program by
  Eric Jon Sundstrom, Paul Horn, Yuezhi Mao, Dmitri Zuev, Alec White,
  David Stuck, Shaama M.S., Shane Yost, Joonho Lee, David Small,
  Daniel Levine, Susi Lehtola, Hugh Burton, Evgeny Epifanovsky,
  Bang C. Huynh
 -----------------------------------------------------------------------
================================================================
                 ALMO-EDA with the EDA2 driver                  
================================================================
 The second-generation ALMO-EDA (for DFT):                      
 P. R. Horn, Y. Mao and M. Head-Gordon, PCCP, 18, 23067 (2016)  
 Decomposition of the frozen energy:                            
 P. R. Horn, Y. Mao and M. Head-Gordon, JCP, 144, 114107 (2016) 
 FERF model for polarization:                                   
 P. R. Horn and M. Head-Gordon, JCP, 143, 114111 (2015)         
Using eda2 option set 1
Option set summary: Frozen orbital wavefunction, initial wavefunction decomposition, and nDQ polarization.
--------------------------------
Printing EDA Options
--------------------------------
eda_child_super_basis      0
fragmo_guess_mode          0
child_mp                   1
child_mp_orders            232
cls_elec                   1
cls_disp                   0
scfmi_mode                 1
scfmi_occs                 0
scfmi_virts                0
frz_relax                  0
frz_relax_method           0
dc_pen_start               0
dc_pen_conv                0
dc_pen_increment           0
dc_pen_steps               0
dc_pen_thresh_factor       0
dc_pen_pre_newton_thresh   0
frz_ortho_decomp           1
frz_ortho_decomp_conv      6
frgm_method                2
scfmi_freeze_ss            0
separate_rehyb             0
plot_diff_den              0
eda_nocv                   0
eda_vct_relax              1
disp_free_x                0
disp_free_c                0
eda_bsse                   0
eda_pct_a                  0
eda_covp                   0
--------------------------------
Attempting to make child job directory: /home/meili/scratch/qchem20466//Frg1/
Attempting to make child job directory: /home/meili/scratch/qchem20466//Frg2/
Creating input file /home/meili/scratch/qchem20466/Frg1.input
using default PutDataFrgm: nothing
calling putenv with: QCSCRATCH=/home/meili/scratch/qchem20466/ 
Spawning Job For Fragment 0
                  Welcome to Q-Chem
     A Quantum Leap Into The Future Of Chemistry


 Q-Chem 5.2 (devel), Q-Chem, Inc., Pleasanton, CA (2019)

 Yihan Shao,  Zhengting Gan,  E. Epifanovsky,  A. T. B. Gilbert,  M. Wormit,  
 J. Kussmann,  A. W. Lange,  A. Behn,  Jia Deng,  Xintian Feng,  D. Ghosh,  
 M. Goldey,  P. R. Horn,  L. D. Jacobson,  I. Kaliman,  T. Kus,  A. Landau,  
 Jie Liu,  E. I. Proynov,  R. M. Richard,  R. P. Steele,  E. J. Sundstrom,  
 H. L. Woodcock III,  P. M. Zimmerman,  D. Zuev,  B. Albrecht,  E. Alguire,  
 S. A. Baeppler,  D. Barton,  Z. Benda,  Y. A. Bernard,  E. J. Berquist,  
 K. B. Bravaya,  H. Burton,  D. Casanova,  Chun-Min Chang,  Yunqing Chen,  
 A. Chien,  K. D. Closser,  M. P. Coons,  S. Coriani,  S. Dasgupta,  
 A. L. Dempwolff,  M. Diedenhofen,  Hainam Do,  R. G. Edgar,  Po-Tung Fang,  
 S. Faraji,  S. Fatehi,  Qingguo Feng,  K. D. Fenk,  J. Fosso-Tande,  
 J. Gayvert,  Qinghui Ge,  A. Ghysels,  G. Gidofalvi,  J. Gomes,  
 J. Gonthier,  A. Gunina,  D. Hait,  M. W. D. Hanson-Heine,  
 P. H. P. Harbach,  A. W. Hauser,  M. F. Herbst,  J. E. Herr,  
 E. G. Hohenstein,  Z. C. Holden,  Kerwin Hui,  B. C. Huynh,  T.-C. Jagau,  
 Hyunjun Ji,  B. Kaduk,  K. Khistyaev,  Jaehoon Kim,  P. Klunzinger,  K. Koh,  
 D. Kosenkov,  L. Koulias,  T. Kowalczyk,  C. M. Krauter,  A. Kunitsa,  
 Ka Un Lao,  A. Laurent,  K. V. Lawler,  Joonho Lee,  D. Lefrancois,  
 S. Lehtola,  D. S. Levine,  Yi-Pei Li,  You-Sheng Lin,  Fenglai Liu,  
 E. Livshits,  A. Luenser,  P. Manohar,  E. Mansoor,  S. F. Manzer,  
 Shan-Ping Mao,  Yuezhi Mao,  N. Mardirossian,  A. V. Marenich,  
 T. Markovich,  L. A. Martinez-Martinez,  S. A. Maurer,  N. J. Mayhall,  
 S. C. McKenzie,  J.-M. Mewes,  P. Morgante,  A. F. Morrison,  
 J. W. Mullinax,  K. Nanda,  T. S. Nguyen-Beck,  R. Olivares-Amaya,  
 J. A. Parkhill,  Zheng Pei,  T. M. Perrine,  F. Plasser,  P. Pokhilko,  
 S. Prager,  A. Prociuk,  E. Ramos,  D. R. Rehn,  F. Rob,  M. Scheurer,  
 M. Schneider,  N. Sergueev,  S. M. Sharada,  S. Sharma,  D. W. Small,  
 T. Stauch,  T. Stein,  Yu-Chuan Su,  A. J. W. Thom,  A. Tkatchenko,  
 T. Tsuchimochi,  N. M. Tubman,  L. Vogt,  M. L. Vidal,  O. Vydrov,  
 M. A. Watson,  J. Wenzel,  M. de Wergifosse,  T. A. Wesolowski,  A. White,  
 J. Witte,  A. Yamada,  Jun Yang,  K. Yao,  S. Yeganeh,  S. R. Yost,  
 Zhi-Qiang You,  A. Zech,  Igor Ying Zhang,  Xing Zhang,  Yan Zhao,  
 Ying Zhu,  B. R. Brooks,  G. K. L. Chan,  C. J. Cramer,  M. S. Gordon,  
 W. J. Hehre,  A. Klamt,  M. W. Schmidt,  C. D. Sherrill,  D. G. Truhlar,  
 A. Aspuru-Guzik,  R. Baer,  A. T. Bell,  N. A. Besley,  Jeng-Da Chai,  
 A. E. DePrince, III,  R. A. DiStasio Jr.,  A. Dreuw,  B. D. Dunietz,  
 T. R. Furlani,  Chao-Ping Hsu,  Yousung Jung,  Jing Kong,  D. S. Lambrecht,  
 WanZhen Liang,  C. Ochsenfeld,  V. A. Rassolov,  L. V. Slipchenko,  
 J. E. Subotnik,  T. Van Voorhis,  J. M. Herbert,  A. I. Krylov,  
 P. M. W. Gill,  M. Head-Gordon

 Contributors to earlier versions of Q-Chem not listed above: 
 R. D. Adamson,  B. Austin,  J. Baker,  G. J. O. Beran,  K. Brandhorst,  
 S. T. Brown,  E. F. C. Byrd,  A. K. Chakraborty,  C.-L. Cheng,  
 Siu Hung Chien,  D. M. Chipman,  D. L. Crittenden,  H. Dachsel,  
 R. J. Doerksen,  A. D. Dutoi,  L. Fusti-Molnar,  W. A. Goddard III,  
 A. Golubeva-Zadorozhnaya,  S. R. Gwaltney,  G. Hawkins,  A. Heyden,  
 S. Hirata,  G. Kedziora,  F. J. Keil,  C. Kelley,  Jihan Kim,  R. A. King,  
 R. Z. Khaliullin,  P. P. Korambath,  W. Kurlancheek,  A. M. Lee,  M. S. Lee,  
 S. V. Levchenko,  Ching Yeh Lin,  D. Liotard,  R. C. Lochan,  I. Lotan,  
 P. E. Maslen,  N. Nair,  D. P. O'Neill,  D. Neuhauser,  E. Neuscamman,  
 C. M. Oana,  R. Olson,  B. Peters,  R. Peverati,  P. A. Pieniazek,  
 Y. M. Rhee,  J. Ritchie,  M. A. Rohrdanz,  E. Rosta,  N. J. Russ,  
 H. F. Schaefer III,  N. E. Schultz,  N. Shenvi,  A. C. Simmonett,  A. Sodt,  
 D. Stuck,  K. S. Thanthiriwatte,  V. Vanovschi,  Tao Wang,  A. Warshel,  
 C. F. Williams,  Q. Wu,  X. Xu,  W. Zhang

 Please cite Q-Chem as follows:
 Y. Shao et al., Mol. Phys. 113, 184-215 (2015)
 DOI: 10.1080/00268976.2014.952696

 Q-Chem 5.2.1 for Intel X86 EM64T Linux

 Parts of Q-Chem use Armadillo 8.300.2 (Tropical Shenanigans).
 http://arma.sourceforge.net/

 Q-Chem begins on Mon May 10 09:10:32 2021  

compute-0-5.local
Host: 0

     Scratch files written to /home/meili/scratch/qchem20466//Frg1//
NAlpha2: 40
NElect   40
Mult     1

Checking the input file for inconsistencies... 	...done.

--------------------------------------------------------------
User input:
--------------------------------------------------------------
$molecule
0 1
 6	19.2200000000	34.6300000000	21.9700000000
 1	20.1070000000	34.5910000000	21.3790000000
 6	18.0110000000	35.0530000000	21.1380000000
 8	16.9030000000	35.1820000000	21.7020000000
 7	18.0310000000	35.2210000000	19.7610000000
 1	18.9460000000	35.0280000000	19.2940000000
 6	16.9370000000	35.6700000000	18.8990000000
 1	16.0830000000	35.9330000000	19.4680000000
 1	19.0350000000	33.6610000000	22.3840000000
 1	19.3640000000	35.3540000000	22.7450000000
 1	17.2610000000	36.5240000000	18.3410000000
 1	16.6720000000	34.8670000000	18.2430000000
$end
$rem
EDA2		1
METHOD		WB97X-V
BASIS		DEF2-TZVPD
XC_GRID		000099000590
NL_GRID		1
UNRESTRICTED		FALSE
MAX_SCF_CYCLES		200
SYMMETRY		FALSE
SYM_IGNORE		TRUE
BASIS_LIN_DEP_THRESH		6
THRESH		14
SCF_CONVERGENCE		8
SCF_PRINT_FRGM		TRUE
!required keywords
JOBTYPE		SP
SYM_IGNORE		TRUE
SUBSYSTEM		TRUE
GEN_SCFMAN		TRUE
CHILD_INSTRUCTION		2
SYM_IGNORE		TRUE
SCFMI		0
RI_K 0		
PARI_K 0		
MIN_PARI_K 0		
IARI_K 0		
OCC_RI_K 0		
PURECART		1111
MEM_STATIC		2000
MEM_TOTAL		2000
GUI		0
CHILD_MP		1
CHILD_MP_ORDERS		232
FRZ_RELAX		0
FRZ_RELAX_METHOD		0
EDA_CLS_ELEC		1
EDA_CLS_DISP		0
FRZ_ORTHO_DECOMP		1
EDA2		FALSE
FRGM_METHOD		FALSE
CIS_N_ROOTS  0
LOCAL_CIS    0
CIS_RLX_DNS  1
$end
--------------------------------------------------------------
 ----------------------------------------------------------------
             Standard Nuclear Orientation (Angstroms)
    I     Atom           X                Y                Z
 ----------------------------------------------------------------
    1      C      19.2200000000    34.6300000000    21.9700000000
    2      H      20.1070000000    34.5910000000    21.3790000000
    3      C      18.0110000000    35.0530000000    21.1380000000
    4      O      16.9030000000    35.1820000000    21.7020000000
    5      N      18.0310000000    35.2210000000    19.7610000000
    6      H      18.9460000000    35.0280000000    19.2940000000
    7      C      16.9370000000    35.6700000000    18.8990000000
    8      H      16.0830000000    35.9330000000    19.4680000000
    9      H      19.0350000000    33.6610000000    22.3840000000
   10      H      19.3640000000    35.3540000000    22.7450000000
   11      H      17.2610000000    36.5240000000    18.3410000000
   12      H      16.6720000000    34.8670000000    18.2430000000
 ----------------------------------------------------------------
 Nuclear Repulsion Energy =         177.86764770 hartrees
 There are       20 alpha and       20 beta electrons
 Requested basis set is def2-TZVPD
 There are 101 shells and 251 basis functions

 Total QAlloc Memory Limit   2000 MB
 Mega-Array Size      1956 MB
 MEM_STATIC part      2000 MB

                       Distance Matrix (Angstroms)
             C (  1)   H (  2)   C (  3)   O (  4)   N (  5)   H (  6)
   H (  2)  1.066570
   C (  3)  1.527362  2.159801
   O (  4)  2.396877  3.274023  1.249960
   N (  5)  2.577340  2.706400  1.387355  2.245303
   H (  6)  2.719275  2.426132  2.067652  3.161650  1.045257
   C (  7)  3.965442  4.166958  2.558766  2.845366  1.463380  2.145756
   H (  8)  4.218837  4.652468  2.698237  2.495427  2.094635  3.007669
   H (  9)  1.069851  1.738997  2.130436  2.706287  3.212747  3.380046
   H ( 10)  1.070298  1.732101  2.122183  2.678424  3.270907  3.491475
   H ( 11)  4.538123  4.589733  3.248007  3.636681  2.075358  2.446518
   H ( 12)  4.520951  4.659388  3.195081  3.480986  2.067975  2.510298
             C (  7)   H (  8)   H (  9)   H ( 10)   H ( 11)
   H (  8)  1.059361
   H (  9)  4.536839  4.730681
   H ( 10)  4.558717  4.673214  1.762047
   H ( 11)  1.070353  1.734097  5.262100  5.018638
   H ( 12)  1.070220  1.727397  4.917935  5.268020  1.761299

 A cutoff of  1.0D-14 yielded   5015 shell pairs
 There are     31547 function pairs (     39682 Cartesian)
 Smallest overlap matrix eigenvalue = 7.86E-06

 Scale SEOQF with 1.000000e-03/1.000000e-03/1.000000e-03

 Standard Electronic Orientation quadrupole field applied
 Nucleus-field energy     =     0.0000000215 hartrees
 Guess from superposition of atomic densities
 Warning:  Energy on first SCF cycle will be non-variational
 SAD guess density has 40.000000 electrons

 -----------------------------------------------------------------------
  General SCF calculation program by
  Eric Jon Sundstrom, Paul Horn, Yuezhi Mao, Dmitri Zuev, Alec White,
  David Stuck, Shaama M.S., Shane Yost, Joonho Lee, David Small,
  Daniel Levine, Susi Lehtola, Hugh Burton, Evgeny Epifanovsky,
  Bang C. Huynh
 -----------------------------------------------------------------------
 Exchange:     0.1670 Hartree-Fock + 1.0000 wB97X-V + LR-HF
 Correlation:  1.0000 wB97X-V
 Using Euler-Maclaurin-Lebedev (99,590) quadrature formula
 Nonlocal Correlation:  VV10 with C = 0.0100 and b = 6.00 and scale = 1.00000
 Grid used for NLC:  SG-1 standard quadrature
Energy prior to optimization (guess energy) = -248.405810141617
Begin Timing: Total SCF Calculation
begin iterations for algorithm: DIIS         
the SCF tolerance is set to 1.00e-08
    1    -248.4058101416      4.40e-03     00000 
    2    -248.3183627511      6.29e-03     00000 
    3    -248.5334852908      5.15e-04     00000 
    4    -248.5350881501      2.43e-04     00000 
    5    -248.5354757493      6.16e-05     00000 
    6    -248.5355098752      2.14e-05     00000 
    7    -248.5355160171      5.94e-06     00000 
    8    -248.5355168220      1.91e-06     00000 
    9    -248.5355168854      7.16e-07     00000 
   10    -248.5355168916      1.49e-07     00000 
   11    -248.5355168920      3.14e-08     00000 
   12    -248.5355168921      1.28e-08     00000 
   13    -248.5355168921      2.86e-09     00000 Convergence criterion met
Timing for Total SCF: 210.00s (wall), 1611.00s (cpu)
Multipole orders to be included
        2
        3
computing dipole RHS
computing quadrupole RHS
total number of RHS in solve_reponses: 8
RHS batch sizes
        8
Beginning Block Conjugate Gradient Iterations. Batch Number: 0
computing hessian-vector products by finite difference
              1      4.63e-01     00000 Conjugate Gradient Iteration
computing hessian-vector products by finite difference
              2      1.64e-01     00000 Conjugate Gradient Iteration
computing hessian-vector products by finite difference
              3      4.63e-02     00000 Conjugate Gradient Iteration
computing hessian-vector products by finite difference
              4      1.17e-02     00000 Conjugate Gradient Iteration
computing hessian-vector products by finite difference
              5      2.16e-03     00000 Conjugate Gradient Iteration
computing hessian-vector products by finite difference
              6      3.97e-04     00000 Conjugate Gradient Iteration
computing hessian-vector products by finite difference
              7      6.31e-05     00000 Conjugate Gradient Iteration
computing hessian-vector products by finite difference
              8      1.03e-05     00000 Conjugate Gradient Iteration
computing hessian-vector products by finite difference
              9      1.73e-06     00000 Conjugate Gradient Iteration
computing hessian-vector products by finite difference
             10      2.85e-07     00000 Conjugate Gradient Iteration
computing hessian-vector products by finite difference
             11      5.70e-08     00000 Conjugate Gradient Iteration
computing hessian-vector products by finite difference
             12      7.87e-09     00000 CG Converged
batch 0 complete
Done Calculating Responses
TESTING ORTHOGONALIZATION OF MULTIPOLE BASIS
Multipole virts passed orthogonality test
Virts Per Order
           60
          100

 --------------------------------------------------------------

                    Orbital Energies (a.u.)
 --------------------------------------------------------------

 Alpha MOs
 -- Occupied --
-19.1623 -14.4399 -10.3753 -10.2955 -10.2745  -1.1464  -1.0360  -0.8862
 -0.8268  -0.6876  -0.6192  -0.5788  -0.5780  -0.5474  -0.5190  -0.5117
 -0.4866  -0.4608  -0.3521  -0.3493
 -- Virtual --
  0.0560   0.0774   0.0962   0.1011   0.1087   0.1203   0.1338   0.1404
  0.1503   0.1617   0.1717   0.1809   0.1842   0.2007   0.2162   0.2238
  0.2348   0.2439   0.2576   0.2645   0.2682   0.2708   0.2966   0.2978
  0.3033   0.3096   0.3165   0.3328   0.3434   0.3515   0.3550   0.3603
  0.3695   0.3739   0.3751   0.3866   0.3884   0.3910   0.3957   0.4035
  0.4407   0.4447   0.4512   0.4656   0.4697   0.4759   0.4783   0.4865
  0.4889   0.4972   0.5036   0.5117   0.5270   0.5419   0.5475   0.5571
  0.5658   0.5747   0.5885   0.6027   0.6173   0.6307   0.6407   0.6501
  0.6785   0.6865   0.7041   0.7199   0.7236   0.7402   0.7508   0.7608
  0.7633   0.7950   0.8020   0.8117   0.8185   0.8291   0.8343   0.8379
  0.8652   0.8817   0.8972   0.9004   0.9353   0.9612   0.9816   0.9998
  1.0205   1.0356   1.0706   1.0882   1.1166   1.1580   1.1613   1.2089
  1.2147   1.2413   1.2583   1.2886   1.2937   1.3306   1.3400   1.3671
  1.3929   1.4551   1.5318   1.5412   1.6286   1.6698   1.7292   1.7381
  1.7610   1.8130   1.8160   1.8673   1.8760   1.8780   1.8878   1.9013
  1.9535   1.9757   1.9995   2.0134   2.0455   2.0617   2.0944   2.1113
  2.1281   2.1604   2.1822   2.2465   2.2616   2.3339   2.3668   2.4021
  2.4173   2.4363   2.4549   2.4785   2.5267   2.5891   2.5965   2.6020
  2.6075   2.6233   2.6293   2.7158   2.7288   2.7661   2.8433   2.8556
  2.8628   2.8893   2.9221   2.9619   2.9883   2.9990   3.0214   3.1237
  3.1463   3.1656   3.2314   3.2461   3.2609   3.2847   3.3079   3.3145
  3.3411   3.3546   3.4039   3.4251   3.4464   3.4764   3.5056   3.5143
  3.5270   3.5681   3.5786   3.5989   3.6366   3.6809   3.7148   3.7432
  3.7864   3.8591   3.8900   3.9613   4.0099   4.0298   4.1228   4.2337
  4.2454   4.3215   4.3784   4.4775   4.5713   4.6143   4.6899   4.7246
  4.7606   4.8044   4.9221   4.9349   5.0231   5.2111   5.2313   5.2356
  5.3066   5.4059   5.4205   5.4357   5.5522   5.6645   5.7280   5.7503
  5.9712   6.0816   6.1999   6.4712   6.6726   6.6980   6.8222   6.9903
  7.2402   7.3439  22.6486  22.7111  23.4028  32.6793  44.2918
 --------------------------------------------------------------

          Ground-State Mulliken Net Atomic Charges

     Atom                 Charge (a.u.)
  ----------------------------------------
      1 C                    -0.667796
      2 H                     0.222966
      3 C                     0.494668
      4 O                    -0.552068
      5 N                    -0.090594
      6 H                     0.201860
      7 C                    -0.756661
      8 H                     0.288166
      9 H                     0.184005
     10 H                     0.189749
     11 H                     0.242757
     12 H                     0.242947
  ----------------------------------------
  Sum of atomic charges =     0.000000

 -----------------------------------------------------------------
                    Cartesian Multipole Moments
 -----------------------------------------------------------------
    Charge (ESU x 10^10)
                -0.0000
    Dipole Moment (Debye)
         X       2.9677      Y      -0.2144      Z      -2.6237
       Tot       3.9670
    Quadrupole Moments (Debye-Ang)
        XX      75.1654     XY      99.5088     YY     -45.8608
        XZ      18.4336     YZ     -97.7663     ZZ    -137.8990
    Octopole Moments (Debye-Ang^2)
       XXX    1190.3062    XXY    2538.9500    XYY    2778.6326
       YYY   -4042.0694    XXZ     853.5508    XYZ     529.3652
       YYZ   -4266.2165    XZZ   -1026.3981    YZZ   -4984.4546
       ZZZ   -5192.1722
    Hexadecapole Moments (Debye-Ang^3)
      XXXX    8596.0572   XXXY   39718.9074   XXYY   75740.8269
      XYYY   53069.7461   YYYY -265654.4151   XXXZ   13147.1655
      XXYZ   27552.4190   XYYZ    3078.0828   YYYZ -201417.4199
      XXZZ   -6121.1293   XYZZ  -38910.9876   YYZZ -193183.5224
      XZZZ  -61186.7948   YZZZ -185767.9451   ZZZZ -168806.2537
 -----------------------------------------------------------------
Archival summary:
1\1\compute-0-5.local\SP\ProcedureUnspecified\BasisUnspecified\1137\meili\MonMay1010:15:072021MonMay1010:15:072021\0\\#,ProcedureUnspecified,BasisUnspecified,\\0,1\N\H,1,1.04526\C,1,1.38735,2,115.703\O,3,1.24996,1,116.624,2,-174.845,0\C,1,1.46338,2,116.609,3,178.354,0\H,5,1.05936,1,111.251,2,-174.293,0\H,5,1.07022,1,108.419,2,66.5804,0\H,5,1.07035,1,109.001,2,-54.0404,0\C,3,1.52736,1,124.249,2,0.634028,0\H,9,1.06657,3,111.505,1,6.67573,0\H,9,1.06985,3,108.951,1,-113.639,0\H,9,1.0703,3,108.276,1,125.73,0\\\@

 Total job time:  3874.97s(wall), 29396.78s(cpu) 
 Mon May 10 10:15:07 2021

        *************************************************************
        *                                                           *
        *  Thank you very much for using Q-Chem.  Have a nice day.  *
        *                                                           *
        *************************************************************


Done Job For Fragment 0
calling putenv with: QCSCRATCH=/home/meili/scratch 
calling putenv with: QCTHREADS=8 
Creating input file /home/meili/scratch/qchem20466/Frg2.input
using default PutDataFrgm: nothing
calling putenv with: QCSCRATCH=/home/meili/scratch/qchem20466/ 
Spawning Job For Fragment 1
                  Welcome to Q-Chem
     A Quantum Leap Into The Future Of Chemistry


 Q-Chem 5.2 (devel), Q-Chem, Inc., Pleasanton, CA (2019)

 Yihan Shao,  Zhengting Gan,  E. Epifanovsky,  A. T. B. Gilbert,  M. Wormit,  
 J. Kussmann,  A. W. Lange,  A. Behn,  Jia Deng,  Xintian Feng,  D. Ghosh,  
 M. Goldey,  P. R. Horn,  L. D. Jacobson,  I. Kaliman,  T. Kus,  A. Landau,  
 Jie Liu,  E. I. Proynov,  R. M. Richard,  R. P. Steele,  E. J. Sundstrom,  
 H. L. Woodcock III,  P. M. Zimmerman,  D. Zuev,  B. Albrecht,  E. Alguire,  
 S. A. Baeppler,  D. Barton,  Z. Benda,  Y. A. Bernard,  E. J. Berquist,  
 K. B. Bravaya,  H. Burton,  D. Casanova,  Chun-Min Chang,  Yunqing Chen,  
 A. Chien,  K. D. Closser,  M. P. Coons,  S. Coriani,  S. Dasgupta,  
 A. L. Dempwolff,  M. Diedenhofen,  Hainam Do,  R. G. Edgar,  Po-Tung Fang,  
 S. Faraji,  S. Fatehi,  Qingguo Feng,  K. D. Fenk,  J. Fosso-Tande,  
 J. Gayvert,  Qinghui Ge,  A. Ghysels,  G. Gidofalvi,  J. Gomes,  
 J. Gonthier,  A. Gunina,  D. Hait,  M. W. D. Hanson-Heine,  
 P. H. P. Harbach,  A. W. Hauser,  M. F. Herbst,  J. E. Herr,  
 E. G. Hohenstein,  Z. C. Holden,  Kerwin Hui,  B. C. Huynh,  T.-C. Jagau,  
 Hyunjun Ji,  B. Kaduk,  K. Khistyaev,  Jaehoon Kim,  P. Klunzinger,  K. Koh,  
 D. Kosenkov,  L. Koulias,  T. Kowalczyk,  C. M. Krauter,  A. Kunitsa,  
 Ka Un Lao,  A. Laurent,  K. V. Lawler,  Joonho Lee,  D. Lefrancois,  
 S. Lehtola,  D. S. Levine,  Yi-Pei Li,  You-Sheng Lin,  Fenglai Liu,  
 E. Livshits,  A. Luenser,  P. Manohar,  E. Mansoor,  S. F. Manzer,  
 Shan-Ping Mao,  Yuezhi Mao,  N. Mardirossian,  A. V. Marenich,  
 T. Markovich,  L. A. Martinez-Martinez,  S. A. Maurer,  N. J. Mayhall,  
 S. C. McKenzie,  J.-M. Mewes,  P. Morgante,  A. F. Morrison,  
 J. W. Mullinax,  K. Nanda,  T. S. Nguyen-Beck,  R. Olivares-Amaya,  
 J. A. Parkhill,  Zheng Pei,  T. M. Perrine,  F. Plasser,  P. Pokhilko,  
 S. Prager,  A. Prociuk,  E. Ramos,  D. R. Rehn,  F. Rob,  M. Scheurer,  
 M. Schneider,  N. Sergueev,  S. M. Sharada,  S. Sharma,  D. W. Small,  
 T. Stauch,  T. Stein,  Yu-Chuan Su,  A. J. W. Thom,  A. Tkatchenko,  
 T. Tsuchimochi,  N. M. Tubman,  L. Vogt,  M. L. Vidal,  O. Vydrov,  
 M. A. Watson,  J. Wenzel,  M. de Wergifosse,  T. A. Wesolowski,  A. White,  
 J. Witte,  A. Yamada,  Jun Yang,  K. Yao,  S. Yeganeh,  S. R. Yost,  
 Zhi-Qiang You,  A. Zech,  Igor Ying Zhang,  Xing Zhang,  Yan Zhao,  
 Ying Zhu,  B. R. Brooks,  G. K. L. Chan,  C. J. Cramer,  M. S. Gordon,  
 W. J. Hehre,  A. Klamt,  M. W. Schmidt,  C. D. Sherrill,  D. G. Truhlar,  
 A. Aspuru-Guzik,  R. Baer,  A. T. Bell,  N. A. Besley,  Jeng-Da Chai,  
 A. E. DePrince, III,  R. A. DiStasio Jr.,  A. Dreuw,  B. D. Dunietz,  
 T. R. Furlani,  Chao-Ping Hsu,  Yousung Jung,  Jing Kong,  D. S. Lambrecht,  
 WanZhen Liang,  C. Ochsenfeld,  V. A. Rassolov,  L. V. Slipchenko,  
 J. E. Subotnik,  T. Van Voorhis,  J. M. Herbert,  A. I. Krylov,  
 P. M. W. Gill,  M. Head-Gordon

 Contributors to earlier versions of Q-Chem not listed above: 
 R. D. Adamson,  B. Austin,  J. Baker,  G. J. O. Beran,  K. Brandhorst,  
 S. T. Brown,  E. F. C. Byrd,  A. K. Chakraborty,  C.-L. Cheng,  
 Siu Hung Chien,  D. M. Chipman,  D. L. Crittenden,  H. Dachsel,  
 R. J. Doerksen,  A. D. Dutoi,  L. Fusti-Molnar,  W. A. Goddard III,  
 A. Golubeva-Zadorozhnaya,  S. R. Gwaltney,  G. Hawkins,  A. Heyden,  
 S. Hirata,  G. Kedziora,  F. J. Keil,  C. Kelley,  Jihan Kim,  R. A. King,  
 R. Z. Khaliullin,  P. P. Korambath,  W. Kurlancheek,  A. M. Lee,  M. S. Lee,  
 S. V. Levchenko,  Ching Yeh Lin,  D. Liotard,  R. C. Lochan,  I. Lotan,  
 P. E. Maslen,  N. Nair,  D. P. O'Neill,  D. Neuhauser,  E. Neuscamman,  
 C. M. Oana,  R. Olson,  B. Peters,  R. Peverati,  P. A. Pieniazek,  
 Y. M. Rhee,  J. Ritchie,  M. A. Rohrdanz,  E. Rosta,  N. J. Russ,  
 H. F. Schaefer III,  N. E. Schultz,  N. Shenvi,  A. C. Simmonett,  A. Sodt,  
 D. Stuck,  K. S. Thanthiriwatte,  V. Vanovschi,  Tao Wang,  A. Warshel,  
 C. F. Williams,  Q. Wu,  X. Xu,  W. Zhang

 Please cite Q-Chem as follows:
 Y. Shao et al., Mol. Phys. 113, 184-215 (2015)
 DOI: 10.1080/00268976.2014.952696

 Q-Chem 5.2.1 for Intel X86 EM64T Linux

 Parts of Q-Chem use Armadillo 8.300.2 (Tropical Shenanigans).
 http://arma.sourceforge.net/

 Q-Chem begins on Mon May 10 10:15:08 2021  

compute-0-5.local
Host: 0

     Scratch files written to /home/meili/scratch/qchem20466//Frg2//
NAlpha2: 40
NElect   40
Mult     1

Checking the input file for inconsistencies... 	...done.

--------------------------------------------------------------
User input:
--------------------------------------------------------------
$molecule
0 1
 6	18.6990000000	30.6790000000	20.4810000000
 1	18.6880000000	31.3040000000	19.6010000000
 6	17.5830000000	31.3060000000	21.4190000000
 8	17.8290000000	31.5510000000	22.6050000000
 7	16.3910000000	31.6200000000	20.9050000000
 1	16.3220000000	31.4700000000	19.9050000000
 6	15.3380000000	32.3410000000	21.5960000000
 1	15.7170000000	33.0840000000	22.2550000000
 1	19.6570000000	30.7110000000	20.9570000000
 1	18.5130000000	29.6500000000	20.2550000000
 1	14.7590000000	31.6420000000	22.1630000000
 1	14.7440000000	32.8360000000	20.8560000000
$end
$rem
EDA2		1
METHOD		WB97X-V
BASIS		DEF2-TZVPD
XC_GRID		000099000590
NL_GRID		1
UNRESTRICTED		FALSE
MAX_SCF_CYCLES		200
SYMMETRY		FALSE
SYM_IGNORE		TRUE
BASIS_LIN_DEP_THRESH		6
THRESH		14
SCF_CONVERGENCE		8
SCF_PRINT_FRGM		TRUE
!required keywords
JOBTYPE		SP
SYM_IGNORE		TRUE
SUBSYSTEM		TRUE
GEN_SCFMAN		TRUE
CHILD_INSTRUCTION		2
SYM_IGNORE		TRUE
SCFMI		0
RI_K 0		
PARI_K 0		
MIN_PARI_K 0		
IARI_K 0		
OCC_RI_K 0		
PURECART		1111
MEM_STATIC		2000
MEM_TOTAL		2000
GUI		0
CHILD_MP		1
CHILD_MP_ORDERS		232
FRZ_RELAX		0
FRZ_RELAX_METHOD		0
EDA_CLS_ELEC		1
EDA_CLS_DISP		0
FRZ_ORTHO_DECOMP		1
EDA2		FALSE
FRGM_METHOD		FALSE
CIS_N_ROOTS  0
LOCAL_CIS    0
CIS_RLX_DNS  1
$end
--------------------------------------------------------------
 ----------------------------------------------------------------
             Standard Nuclear Orientation (Angstroms)
    I     Atom           X                Y                Z
 ----------------------------------------------------------------
    1      C      18.6990000000    30.6790000000    20.4810000000
    2      H      18.6880000000    31.3040000000    19.6010000000
    3      C      17.5830000000    31.3060000000    21.4190000000
    4      O      17.8290000000    31.5510000000    22.6050000000
    5      N      16.3910000000    31.6200000000    20.9050000000
    6      H      16.3220000000    31.4700000000    19.9050000000
    7      C      15.3380000000    32.3410000000    21.5960000000
    8      H      15.7170000000    33.0840000000    22.2550000000
    9      H      19.6570000000    30.7110000000    20.9570000000
   10      H      18.5130000000    29.6500000000    20.2550000000
   11      H      14.7590000000    31.6420000000    22.1630000000
   12      H      14.7440000000    32.8360000000    20.8560000000
 ----------------------------------------------------------------
 Nuclear Repulsion Energy =         179.18108853 hartrees
 There are       20 alpha and       20 beta electrons
 Requested basis set is def2-TZVPD
 There are 101 shells and 251 basis functions

 Total QAlloc Memory Limit   2000 MB
 Mega-Array Size      1956 MB
 MEM_STATIC part      2000 MB

                       Distance Matrix (Angstroms)
             C (  1)   H (  2)   C (  3)   O (  4)   N (  5)   H (  6)
   H (  2)  1.079419
   C (  3)  1.586956  2.127476
   O (  4)  2.455333  3.134152  1.235774
   N (  5)  2.528264  2.660166  1.335536  2.227691
   H (  6)  2.570523  2.391219  1.977173  3.093155  1.013539
   C (  7)  3.911750  4.034587  2.478423  2.801296  1.451252  2.141583
   H (  8)  4.221780  4.363365  2.709638  2.633084  2.102397  2.914365
   H (  9)  1.070217  1.768996  2.206569  2.600594  3.390537  3.578409
   H ( 10)  1.069819  1.787192  2.227584  3.099057  2.967538  2.869735
   H ( 11)  4.390910  4.702673  2.939627  3.102990  2.060697  2.751566
   H ( 12)  4.520542  4.413296  3.273804  3.771929  2.047844  2.293565
             C (  7)   H (  8)   H (  9)   H ( 10)   H ( 11)
   H (  8)  1.063001
   H (  9)  4.660363  4.779072
   H ( 10)  4.372686  4.859009  1.710924
   H ( 11)  1.070201  1.733664  5.129484  4.658438
   H ( 12)  1.070262  1.722044  5.353821  4.971635  1.770342

 A cutoff of  1.0D-14 yielded   5016 shell pairs
 There are     31576 function pairs (     39721 Cartesian)
 Smallest overlap matrix eigenvalue = 9.47E-06

 Scale SEOQF with 1.000000e-03/1.000000e-03/1.000000e-03

 Standard Electronic Orientation quadrupole field applied
 Nucleus-field energy     =     0.0000000130 hartrees
 Guess from superposition of atomic densities
 Warning:  Energy on first SCF cycle will be non-variational
 SAD guess density has 40.000000 electrons

 -----------------------------------------------------------------------
  General SCF calculation program by
  Eric Jon Sundstrom, Paul Horn, Yuezhi Mao, Dmitri Zuev, Alec White,
  David Stuck, Shaama M.S., Shane Yost, Joonho Lee, David Small,
  Daniel Levine, Susi Lehtola, Hugh Burton, Evgeny Epifanovsky,
  Bang C. Huynh
 -----------------------------------------------------------------------
 Exchange:     0.1670 Hartree-Fock + 1.0000 wB97X-V + LR-HF
 Correlation:  1.0000 wB97X-V
 Using Euler-Maclaurin-Lebedev (99,590) quadrature formula
 Nonlocal Correlation:  VV10 with C = 0.0100 and b = 6.00 and scale = 1.00000
 Grid used for NLC:  SG-1 standard quadrature
Energy prior to optimization (guess energy) = -248.413113200819
Begin Timing: Total SCF Calculation
begin iterations for algorithm: DIIS         
the SCF tolerance is set to 1.00e-08
    1    -248.4131132008      4.31e-03     00000 
    2    -248.3424853574      5.99e-03     00000 
    3    -248.5355442638      5.05e-04     00000 
    4    -248.5370938106      2.27e-04     00000 
    5    -248.5374383564      5.41e-05     00000 
    6    -248.5374652361      1.99e-05     00000 
    7    -248.5374702034      5.45e-06     00000 
    8    -248.5374708452      1.80e-06     00000 
    9    -248.5374708936      6.64e-07     00000 
   10    -248.5374708989      1.21e-07     00000 
   11    -248.5374708991      2.90e-08     00000 
   12    -248.5374708992      1.16e-08     00000 
   13    -248.5374708992      2.69e-09     00000 Convergence criterion met
Timing for Total SCF: 210.00s (wall), 1609.54s (cpu)
Multipole orders to be included
        2
        3
computing dipole RHS
computing quadrupole RHS
total number of RHS in solve_reponses: 8
RHS batch sizes
        8
Beginning Block Conjugate Gradient Iterations. Batch Number: 0
computing hessian-vector products by finite difference
              1      5.06e-01     00000 Conjugate Gradient Iteration
computing hessian-vector products by finite difference
              2      1.63e-01     00000 Conjugate Gradient Iteration
computing hessian-vector products by finite difference
              3      3.80e-02     00000 Conjugate Gradient Iteration
computing hessian-vector products by finite difference
              4      8.86e-03     00000 Conjugate Gradient Iteration
computing hessian-vector products by finite difference
              5      1.63e-03     00000 Conjugate Gradient Iteration
computing hessian-vector products by finite difference
              6      3.10e-04     00000 Conjugate Gradient Iteration
computing hessian-vector products by finite difference
              7      4.57e-05     00000 Conjugate Gradient Iteration
computing hessian-vector products by finite difference
              8      7.34e-06     00000 Conjugate Gradient Iteration
computing hessian-vector products by finite difference
              9      1.25e-06     00000 Conjugate Gradient Iteration
computing hessian-vector products by finite difference
             10      1.78e-07     00000 Conjugate Gradient Iteration
computing hessian-vector products by finite difference
             11      2.52e-08     00000 Conjugate Gradient Iteration
computing hessian-vector products by finite difference
             12      2.98e-09     00000 CG Converged
batch 0 complete
Done Calculating Responses
TESTING ORTHOGONALIZATION OF MULTIPOLE BASIS
Multipole virts passed orthogonality test
Virts Per Order
           60
          100

 --------------------------------------------------------------

                    Orbital Energies (a.u.)
 --------------------------------------------------------------

 Alpha MOs
 -- Occupied --
-19.1629 -14.4386 -10.3691 -10.2982 -10.2737  -1.1566  -1.0534  -0.8818
 -0.8287  -0.6996  -0.6253  -0.5830  -0.5728  -0.5449  -0.5199  -0.5087
 -0.4903  -0.4671  -0.3584  -0.3487
 -- Virtual --
  0.0545   0.0772   0.0932   0.1078   0.1096   0.1241   0.1335   0.1419
  0.1525   0.1615   0.1637   0.1819   0.1881   0.1998   0.2038   0.2287
  0.2362   0.2407   0.2551   0.2626   0.2706   0.2829   0.2848   0.2932
  0.2997   0.3088   0.3217   0.3287   0.3430   0.3526   0.3565   0.3597
  0.3682   0.3780   0.3823   0.3841   0.3908   0.4024   0.4071   0.4146
  0.4223   0.4383   0.4478   0.4562   0.4592   0.4691   0.4786   0.4814
  0.4916   0.5035   0.5141   0.5176   0.5192   0.5304   0.5434   0.5611
  0.5628   0.5750   0.5976   0.6045   0.6126   0.6401   0.6535   0.6694
  0.6792   0.6875   0.7052   0.7264   0.7289   0.7432   0.7487   0.7549
  0.7824   0.7938   0.7986   0.8023   0.8170   0.8295   0.8385   0.8436
  0.8557   0.8804   0.8928   0.8937   0.9303   0.9521   0.9780   1.0132
  1.0216   1.0501   1.0584   1.0708   1.1114   1.1462   1.1528   1.1926
  1.2061   1.2456   1.2760   1.2800   1.3099   1.3212   1.3573   1.3704
  1.4150   1.4324   1.5113   1.5325   1.6119   1.6791   1.7334   1.7452
  1.7768   1.8387   1.8448   1.8627   1.8709   1.8867   1.9044   1.9184
  1.9257   1.9520   1.9906   2.0138   2.0189   2.0674   2.1043   2.1298
  2.1453   2.1938   2.2291   2.2413   2.2705   2.3032   2.3343   2.3550
  2.3889   2.4048   2.4486   2.4827   2.5190   2.5684   2.5791   2.5962
  2.6161   2.6281   2.6468   2.7129   2.7784   2.7936   2.8369   2.8411
  2.8531   2.8823   2.9086   2.9302   2.9615   3.0138   3.0631   3.1200
  3.1484   3.1999   3.2145   3.2471   3.2695   3.3120   3.3215   3.3315
  3.3444   3.3649   3.4008   3.4196   3.4245   3.4485   3.4749   3.5362
  3.5461   3.5849   3.5987   3.6292   3.6601   3.6733   3.6957   3.7577
  3.8027   3.8811   3.9057   3.9600   4.0014   4.0970   4.1250   4.1496
  4.2620   4.3236   4.3908   4.4467   4.5011   4.6297   4.6701   4.7090
  4.7330   4.8295   4.9483   5.0032   5.0101   5.1940   5.2416   5.2528
  5.3385   5.4238   5.4406   5.4931   5.5963   5.6716   5.7311   5.7794
  5.9818   6.1037   6.2561   6.5155   6.6789   6.7457   6.8302   7.0056
  7.2673   7.3534  22.6035  22.7309  23.5437  32.6926  44.3248
 --------------------------------------------------------------

          Ground-State Mulliken Net Atomic Charges

     Atom                 Charge (a.u.)
  ----------------------------------------
      1 C                    -0.744852
      2 H                     0.225041
      3 C                     0.478809
      4 O                    -0.544687
      5 N                    -0.065339
      6 H                     0.211485
      7 C                    -0.705090
      8 H                     0.252285
      9 H                     0.187994
     10 H                     0.228619
     11 H                     0.212491
     12 H                     0.263243
  ----------------------------------------
  Sum of atomic charges =     0.000000

 -----------------------------------------------------------------
                    Cartesian Multipole Moments
 -----------------------------------------------------------------
    Charge (ESU x 10^10)
                 0.0000
    Dipole Moment (Debye)
         X      -1.7156      Y      -0.0433      Z      -3.7028
       Tot       4.0812
    Quadrupole Moments (Debye-Ang)
        XX     -87.1347     XY     -57.1464     YY     -32.7603
        XZ    -102.3721     YZ    -117.3480     ZZ    -191.4922
    Octopole Moments (Debye-Ang^2)
       XXX   -2970.0193    XXY   -2837.7097    XYY   -2413.0175
       YYY   -2967.7284    XXZ   -3027.8604    XYZ   -3287.0630
       YYZ   -4359.2611    XZZ   -4167.4813    YZZ   -6041.9554
       ZZZ   -7209.8289
    Hexadecapole Moments (Debye-Ang^3)
      XXXX  -84929.1025   XXXY  -95757.4545   XXYY -101226.3473
      XYYY -111493.9198   YYYY -184419.8447   XXXZ  -84127.5787
      XXYZ  -97300.5420   XYYZ -116486.8930   YYYZ -178407.6688
      XXZZ  -99671.6980   XYZZ -132489.8137   YYZZ -204338.6434
      XZZZ -143753.2812   YZZZ -227223.1945   ZZZZ -236298.4433
 -----------------------------------------------------------------
Archival summary:
1\1\compute-0-5.local\SP\ProcedureUnspecified\BasisUnspecified\1137\meili\MonMay1011:17:342021MonMay1011:17:342021\0\\#,ProcedureUnspecified,BasisUnspecified,\\0,1\N\H,1,1.01354\C,1,1.33554,2,113.934\O,3,1.23577,1,120.028,2,173.85,0\C,1,1.45125,2,119.598,3,169.537,0\H,5,1.063,1,112.565,2,-133.219,0\H,5,1.0702,1,108.683,2,106.288,0\H,5,1.07026,1,107.654,2,-14.7379,0\C,3,1.58696,1,119.542,2,-3.37774,0\H,9,1.06982,3,112.496,1,-75.6663,0\H,9,1.07022,3,110.781,1,165.688,0\H,9,1.07942,3,104.237,1,46.5203,0\\\@

 Total job time:  3746.35s(wall), 28770.28s(cpu) 
 Mon May 10 11:17:34 2021

        *************************************************************
        *                                                           *
        *  Thank you very much for using Q-Chem.  Have a nice day.  *
        *                                                           *
        *************************************************************


Done Job For Fragment 1
calling putenv with: QCSCRATCH=/home/meili/scratch 
calling putenv with: QCTHREADS=8 
Doing General SCFMI
 Exchange:     0.1670 Hartree-Fock + 1.0000 wB97X-V + LR-HF
 Correlation:  1.0000 wB97X-V
 Using Euler-Maclaurin-Lebedev (99,590) quadrature formula
 Nonlocal Correlation:  VV10 with C = 0.0100 and b = 6.00 and scale = 1.00000
 Grid used for NLC:  SG-1 standard quadrature
performing fock build before subrot guess so that all methods have access
Printing subrot_rss_gen Method Specification:
Occupied Subspace Method is 0
Virtual Subspace Method is 0
Energy of the unrelaxed supersystem initial determinant -497.077439678889
write pseudocanon occs and virts to disk
write pseudocanon orbital energies to disk
Tolerance of ortho_decomp_scf: 1.00e-06
GDM subspace size: 20
Beginning the Orthogonal Decomposition of the Initial Supersystem Wavefunction
    1    -497.0472618505      4.63e-02     ortho_decomp Preconditoned Steepest Descent
    2    -497.0518530670      1.25e-03     ortho_decomp BFGS Step
    3    -497.0518722404      1.02e-04     ortho_decomp BFGS Step
    4    -497.0518722690      3.93e-06     ortho_decomp BFGS Step
    5    -497.0518722691      1.29e-07     ortho_decomp 00000 Convergence criterion met
 Hartree-Fock
 Hartree-Fock
 Hartree-Fock
Doing General SCFMI
 Exchange:     0.1670 Hartree-Fock + 1.0000 wB97X-V + LR-HF
 Correlation:  1.0000 wB97X-V
 Using Euler-Maclaurin-Lebedev (99,590) quadrature formula
 Nonlocal Correlation:  VV10 with C = 0.0100 and b = 6.00 and scale = 1.00000
 Grid used for NLC:  SG-1 standard quadrature
performing fock build at end of subrot_r(subrot) constructor so that all methods have access
<S^2> of initial wavefunction before polarization iterations 0.0000000000
Beginning iterations for the determination of the polarized wavefunction
Energy prior to optimization (guess energy) = -497.077439678889
Begin Timing: Total SCF Calculation
begin iterations for algorithm: DIIS         
the SCF tolerance is set to 1.00e-08
    1    -497.0774396789      1.35e-04     00000 
    2    -497.0788105064      5.23e-05     00000 
    3    -497.0789350300      3.78e-05     00000 
    4    -497.0789805390      1.42e-05     00000 
    5    -497.0789884128      5.08e-06     00000 
    6    -497.0789897169      1.94e-06     00000 
    7    -497.0789899787      8.31e-07     00000 
    8    -497.0789900210      2.77e-07     00000 
    9    -497.0789900263      1.00e-07     00000 
   10    -497.0789900268      6.24e-08     00000 
   11    -497.0789900269      2.73e-08     00000 
   12    -497.0789900269      9.27e-09     00000 Convergence criterion met
write pseudocanon occs and virts to disk
write pseudocanon orbital energies to disk
Timing for Total SCF: 1538.00s (wall), 12015.45s (cpu)
<S^2> of polarized wavefunction after polarization iterations 0.0000000000
relaxing scfmi constraint to allow all rotations in the entire AO span
Doing General SCFMI
 Exchange:     0.1670 Hartree-Fock + 1.0000 wB97X-V + LR-HF
 Correlation:  1.0000 wB97X-V
 Using Euler-Maclaurin-Lebedev (99,590) quadrature formula
 Nonlocal Correlation:  VV10 with C = 0.0100 and b = 6.00 and scale = 1.00000
 Grid used for NLC:  SG-1 standard quadrature
performing fock build at end of subrot_r(subrot) constructor so that all methods have access
<S^2> of polarized wavefunction before ct-allowed iterations 0.0000000000
Beginning iterations for the determination of the CT-Allowed wavefunction
Energy prior to optimization (guess energy) = -497.078990026937
Begin Timing: Total SCF Calculation
begin iterations for algorithm: DIIS         
the SCF tolerance is set to 1.00e-08
    1    -497.0789900269      9.41e-05     00000 
    2    -497.0801378186      1.10e-05     00000 
    3    -497.0801795186      3.12e-06     00000 
    4    -497.0801806632      3.32e-06     00000 
    5    -497.0801816635      3.41e-07     00000 
    6    -497.0801816826      1.62e-07     00000 
    7    -497.0801816869      4.46e-08     00000 
    8    -497.0801816872      1.71e-08     00000 
    9    -497.0801816872      6.82e-09     00000 Convergence criterion met
write pseudocanon occs and virts to disk
write pseudocanon orbital energies to disk
Timing for Total SCF: 969.00s (wall), 7466.10s (cpu)
<S^2> of ct_allowed wavefunction after ct-allowed iterations 0.0000000000

================================
        Results of EDA2         
================================
Basic EDA Quantities
--------------------
Fragment Energies (Ha):
1 -248.5355168921
2 -248.5374708992
--------------------
  E_prp (kJ/mol) = 0.0000
  E_frz (kJ/mol) = -11.6886
  E_pol (kJ/mol) = -4.0705
  E_vct (kJ/mol) = -3.1287
  E_int (kJ/mol) = -18.8878
--------------------


Initial Wavefunction Decomposition
--------------------
  --------------------
  Orthogonal Fragment Subspace Decomposition:
  --------------------
     E_elec   (ELEC)   (kJ/mol) = -35.4569
     E_pauli  (PAULI)  (kJ/mol) = 43.2698
     E_disp   (DISP)   (kJ/mol) = -19.5014
     --------------------
     Terms summing to E_pauli:
     --------------------
        E_kep_pauli       (kJ/mol) = 55.4395
        E_disp_free_pauli (kJ/mol) = -12.1697
  --------------------
  Classical Frozen Decomposition:
  --------------------
     E_cls_elec  (CLS ELEC)  (kJ/mol) = -15.1073
     E_cls_pauli (CLS PAULI) (kJ/mol) = 3.4188
    [E_mod_pauli (MOD PAULI) (kJ/mol) = 22.9202 (CLS PAULI - DISP from orthogonal decomposition) ]
  --------------------
--------------------

Simplified EDA Summary (kJ/mol)
--------------------
 PREPARATION     0.0000
 FROZEN          7.8129      (does not include dispersion)
[PAULI           43.2698]     (if this is negligible, then frozen describes electrostatics)
 DISPERSION      -19.5014
 POLARIZATION    -4.0705
 CHARGE TRANSFER -3.1287
 TOTAL           -18.8878     (PRP + FRZ + DISP + POL + CT)
--------------------

 --------------------------------------------------------------

                    Orbital Energies (a.u.)
 --------------------------------------------------------------

 Alpha MOs
 -- Occupied --
-19.1625 -19.1611 -14.4412 -14.4334 -10.3744 -10.3672 -10.3001 -10.2810
-10.2750 -10.2629  -1.1545  -1.1469  -1.0478  -1.0377  -0.8809  -0.8780
 -0.8265  -0.8207  -0.6934  -0.6888  -0.6186  -0.6173  -0.5852  -0.5776
 -0.5717  -0.5693  -0.5420  -0.5398  -0.5186  -0.5156  -0.5073  -0.5010
 -0.4881  -0.4843  -0.4669  -0.4524  -0.3568  -0.3505  -0.3490  -0.3471
 -- Virtual --
  0.0440   0.0694   0.0706   0.0819   0.0949   0.0997   0.1034   0.1064
  0.1106   0.1172   0.1253   0.1344   0.1386   0.1426   0.1499   0.1554
  0.1613   0.1634   0.1685   0.1700   0.1801   0.1879   0.1998   0.2035
  0.2093   0.2179   0.2223   0.2246   0.2361   0.2407   0.2466   0.2493
  0.2542   0.2607   0.2642   0.2670   0.2730   0.2808   0.2821   0.2895
  0.2928   0.2968   0.2989   0.3080   0.3103   0.3148   0.3229   0.3233
  0.3264   0.3321   0.3345   0.3417   0.3460   0.3512   0.3536   0.3591
  0.3624   0.3652   0.3662   0.3695   0.3699   0.3749   0.3818   0.3855
  0.3891   0.3981   0.4038   0.4047   0.4097   0.4134   0.4139   0.4201
  0.4251   0.4300   0.4333   0.4478   0.4524   0.4534   0.4603   0.4642
  0.4648   0.4682   0.4733   0.4762   0.4834   0.4914   0.5003   0.5020
  0.5060   0.5087   0.5135   0.5148   0.5197   0.5233   0.5276   0.5325
  0.5353   0.5439   0.5478   0.5495   0.5559   0.5606   0.5639   0.5761
  0.5773   0.5810   0.5881   0.5913   0.6000   0.6083   0.6111   0.6128
  0.6254   0.6371   0.6401   0.6472   0.6548   0.6584   0.6651   0.6690
  0.6774   0.6824   0.6904   0.7011   0.7056   0.7070   0.7123   0.7294
  0.7357   0.7390   0.7517   0.7577   0.7628   0.7652   0.7736   0.7789
  0.7822   0.7919   0.7943   0.8040   0.8085   0.8101   0.8142   0.8184
  0.8229   0.8304   0.8386   0.8393   0.8524   0.8563   0.8764   0.8791
  0.8827   0.8864   0.8897   0.8965   0.9008   0.9149   0.9201   0.9273
  0.9296   0.9439   0.9536   0.9618   0.9650   0.9768   0.9932   1.0019
  1.0135   1.0187   1.0236   1.0327   1.0509   1.0536   1.0656   1.0729
  1.0863   1.0970   1.1112   1.1262   1.1444   1.1557   1.1594   1.1714
  1.1788   1.1894   1.2044   1.2107   1.2237   1.2376   1.2465   1.2707
  1.2771   1.2832   1.2890   1.3042   1.3151   1.3288   1.3338   1.3463
  1.3648   1.3732   1.3936   1.4057   1.4113   1.4250   1.4364   1.4447
  1.4672   1.4786   1.5064   1.5271   1.5530   1.5794   1.5819   1.6259
  1.6715   1.6791   1.7168   1.7362   1.7481   1.7737   1.7928   1.8080
  1.8186   1.8230   1.8456   1.8748   1.8873   1.8922   1.8988   1.9022
  1.9164   1.9214   1.9313   1.9485   1.9507   1.9616   1.9723   1.9762
  1.9862   1.9977   2.0144   2.0356   2.0427   2.0548   2.0620   2.0667
  2.0820   2.1035   2.1148   2.1195   2.1330   2.1620   2.1669   2.1716
  2.1862   2.2011   2.2103   2.2332   2.2643   2.2675   2.2945   2.2993
  2.3297   2.3319   2.3679   2.3785   2.3834   2.3998   2.4147   2.4308
  2.4498   2.4583   2.4669   2.4902   2.4959   2.5067   2.5416   2.5614
  2.5730   2.5760   2.6021   2.6083   2.6268   2.6300   2.6362   2.6609
  2.6671   2.6766   2.6888   2.7128   2.7237   2.7296   2.7478   2.7648
  2.7794   2.7939   2.8215   2.8368   2.8707   2.8775   2.8882   2.8936
  2.9085   2.9266   2.9320   2.9403   2.9499   2.9723   2.9882   2.9976
  3.0114   3.0137   3.0532   3.0933   3.1254   3.1468   3.1643   3.1714
  3.1898   3.1971   3.2269   3.2422   3.2708   3.2746   3.2875   3.2959
  3.3083   3.3116   3.3215   3.3331   3.3491   3.3582   3.3642   3.3768
  3.3794   3.3931   3.3990   3.4072   3.4302   3.4399   3.4518   3.4576
  3.4653   3.4759   3.4872   3.5036   3.5114   3.5366   3.5571   3.5673
  3.5744   3.5816   3.6092   3.6237   3.6296   3.6542   3.6733   3.6786
  3.7000   3.7100   3.7230   3.7311   3.7458   3.7711   3.7876   3.8120
  3.8302   3.8463   3.8946   3.9200   3.9319   3.9374   3.9773   3.9859
  4.0220   4.0354   4.0759   4.1288   4.1404   4.1553   4.1739   4.2546
  4.2746   4.2829   4.3418   4.3486   4.4086   4.4491   4.4834   4.5057
  4.5400   4.5889   4.6540   4.6704   4.6904   4.7154   4.7269   4.7429
  4.7723   4.7905   4.8338   4.8591   4.9418   4.9474   4.9773   5.0297
  5.0466   5.0767   5.2250   5.2315   5.2558   5.2572   5.2725   5.2907
  5.3267   5.3578   5.4192   5.4318   5.4537   5.4613   5.4719   5.5215
  5.5644   5.6176   5.6817   5.6992   5.7359   5.7532   5.7652   5.7940
  5.9789   5.9959   6.0938   6.1305   6.2362   6.2847   6.4940   6.5332
  6.7035   6.7212   6.7363   6.7702   6.8601   6.8756   7.0400   7.0617
  7.2484   7.2825   7.3674   7.3798  22.6289  22.7077  22.7347  22.8064
 23.4382  23.5726  32.7368  32.7691  44.4280  44.4962
 --------------------------------------------------------------

          Ground-State Mulliken Net Atomic Charges

     Atom                 Charge (a.u.)
  ----------------------------------------
      1 C                    -0.686343
      2 H                     0.232550
      3 C                     0.568190
      4 O                    -0.576167
      5 N                    -0.079541
      6 H                     0.206594
      7 C                    -0.761973
      8 H                     0.284803
      9 H                     0.143533
     10 H                     0.198092
     11 H                     0.250151
     12 H                     0.231481
     13 C                    -0.821987
     14 H                     0.224015
     15 C                     0.444130
     16 O                    -0.570677
     17 N                     0.001942
     18 H                     0.214587
     19 C                    -0.695112
     20 H                     0.258138
     21 H                     0.186284
     22 H                     0.279016
     23 H                     0.200947
     24 H                     0.267346
  ----------------------------------------
  Sum of atomic charges =     0.000000

 -----------------------------------------------------------------
                    Cartesian Multipole Moments
 -----------------------------------------------------------------
    Charge (ESU x 10^10)
                 0.0000
    Dipole Moment (Debye)
         X       1.1514      Y      -0.1533      Z      -5.9280
       Tot       6.0407
    Quadrupole Moments (Debye-Ang)
        XX     -15.8749     XY      40.7865     YY     -72.2428
        XZ     -79.1422     YZ    -199.4819     ZZ    -312.6277
    Octopole Moments (Debye-Ang^2)
       XXX   -1892.5015    XXY    -397.9159    XYY     362.1055
       YYY   -6719.4545    XXZ   -2135.6448    XYZ   -2558.0735
       YYZ   -8038.5144    XZZ   -4947.3039    YZZ  -10414.7449
       ZZZ  -11871.2652
    Hexadecapole Moments (Debye-Ang^3)
      XXXX  -79214.2288   XXXY  -59246.1929   XXYY  -27942.0029
      XYYY  -57240.2313   YYYY -438416.9651   XXXZ  -71225.7281
      XXYZ  -67771.2510   XYYZ -105649.0258   YYYZ -358466.4234
      XXZZ -102428.6617   XYZZ -162291.5516   YYZZ -375636.2126
      XZZZ -196651.4784   YZZZ -394108.3322   ZZZZ -390117.8128
 -----------------------------------------------------------------
Archival summary:
1\1\compute-0-5.local\SP\ProcedureUnspecified\BasisUnspecified\22614\meili\MonMay1012:32:392021MonMay1012:32:392021\0\\#,ProcedureUnspecified,BasisUnspecified,\\0,1\O\C,1,1.24996\N,2,1.38735,1,116.624\H,3,1.04526,2,115.703,1,-174.845,0\C,3,1.46338,2,127.664,1,7.01451,0\H,5,1.05936,3,111.251,2,3.8333,0\H,5,1.07022,3,108.419,2,-115.294,0\H,5,1.07035,3,109.001,2,124.085,0\C,2,1.52736,1,118.977,3,-175.729,0\H,9,1.06657,2,111.505,1,-177.944,0\H,9,1.06985,2,108.951,1,61.7406,0\H,9,1.0703,2,108.276,1,-58.8906,0\O,11,2.44036,9,154.638,2,12.2798,0\C,13,1.23577,11,100.538,9,39.9879,0\N,14,1.33554,13,120.028,11,-97.5218,0\H,15,1.01354,14,113.934,13,173.85,0\C,15,1.45125,14,125.532,13,5.03813,0\H,17,1.063,15,112.565,14,35.0126,0\H,17,1.0702,15,108.683,14,-85.4802,0\H,17,1.07026,15,107.654,14,153.494,0\C,14,1.58696,13,120.371,11,79.6829,0\H,21,1.06982,14,112.496,13,107.115,0\H,21,1.07022,14,110.781,13,-11.5302,0\H,21,1.07942,14,104.237,13,-130.698,0\\\@

 Total job time:  12207.86s(wall), 35104.62s(cpu) 
 Mon May 10 12:32:39 2021

        *************************************************************
        *                                                           *
        *  Thank you very much for using Q-Chem.  Have a nice day.  *
        *                                                           *
        *************************************************************


