                  Welcome to Q-Chem
     A Quantum Leap Into The Future Of Chemistry


 Q-Chem 5.2 (devel), Q-Chem, Inc., Pleasanton, CA (2019)

 Yihan Shao,  Zhengting Gan,  E. Epifanovsky,  A. T. B. Gilbert,  M. Wormit,  
 J. Kussmann,  A. W. Lange,  A. Behn,  Jia Deng,  Xintian Feng,  D. Ghosh,  
 M. Goldey,  P. R. Horn,  L. D. Jacobson,  I. Kaliman,  T. Kus,  A. Landau,  
 Jie Liu,  E. I. Proynov,  R. M. Richard,  R. P. Steele,  E. J. Sundstrom,  
 H. L. Woodcock III,  P. M. Zimmerman,  D. Zuev,  B. Albrecht,  E. Alguire,  
 S. A. Baeppler,  D. Barton,  Z. Benda,  Y. A. Bernard,  E. J. Berquist,  
 K. B. Bravaya,  H. Burton,  D. Casanova,  Chun-Min Chang,  Yunqing Chen,  
 A. Chien,  K. D. Closser,  M. P. Coons,  S. Coriani,  S. Dasgupta,  
 A. L. Dempwolff,  M. Diedenhofen,  Hainam Do,  R. G. Edgar,  Po-Tung Fang,  
 S. Faraji,  S. Fatehi,  Qingguo Feng,  K. D. Fenk,  J. Fosso-Tande,  
 J. Gayvert,  Qinghui Ge,  A. Ghysels,  G. Gidofalvi,  J. Gomes,  
 J. Gonthier,  A. Gunina,  D. Hait,  M. W. D. Hanson-Heine,  
 P. H. P. Harbach,  A. W. Hauser,  M. F. Herbst,  J. E. Herr,  
 E. G. Hohenstein,  Z. C. Holden,  Kerwin Hui,  B. C. Huynh,  T.-C. Jagau,  
 Hyunjun Ji,  B. Kaduk,  K. Khistyaev,  Jaehoon Kim,  P. Klunzinger,  K. Koh,  
 D. Kosenkov,  L. Koulias,  T. Kowalczyk,  C. M. Krauter,  A. Kunitsa,  
 Ka Un Lao,  A. Laurent,  K. V. Lawler,  Joonho Lee,  D. Lefrancois,  
 S. Lehtola,  D. S. Levine,  Yi-Pei Li,  You-Sheng Lin,  Fenglai Liu,  
 E. Livshits,  A. Luenser,  P. Manohar,  E. Mansoor,  S. F. Manzer,  
 Shan-Ping Mao,  Yuezhi Mao,  N. Mardirossian,  A. V. Marenich,  
 T. Markovich,  L. A. Martinez-Martinez,  S. A. Maurer,  N. J. Mayhall,  
 S. C. McKenzie,  J.-M. Mewes,  P. Morgante,  A. F. Morrison,  
 J. W. Mullinax,  K. Nanda,  T. S. Nguyen-Beck,  R. Olivares-Amaya,  
 J. A. Parkhill,  Zheng Pei,  T. M. Perrine,  F. Plasser,  P. Pokhilko,  
 S. Prager,  A. Prociuk,  E. Ramos,  D. R. Rehn,  F. Rob,  M. Scheurer,  
 M. Schneider,  N. Sergueev,  S. M. Sharada,  S. Sharma,  D. W. Small,  
 T. Stauch,  T. Stein,  Yu-Chuan Su,  A. J. W. Thom,  A. Tkatchenko,  
 T. Tsuchimochi,  N. M. Tubman,  L. Vogt,  M. L. Vidal,  O. Vydrov,  
 M. A. Watson,  J. Wenzel,  M. de Wergifosse,  T. A. Wesolowski,  A. White,  
 J. Witte,  A. Yamada,  Jun Yang,  K. Yao,  S. Yeganeh,  S. R. Yost,  
 Zhi-Qiang You,  A. Zech,  Igor Ying Zhang,  Xing Zhang,  Yan Zhao,  
 Ying Zhu,  B. R. Brooks,  G. K. L. Chan,  C. J. Cramer,  M. S. Gordon,  
 W. J. Hehre,  A. Klamt,  M. W. Schmidt,  C. D. Sherrill,  D. G. Truhlar,  
 A. Aspuru-Guzik,  R. Baer,  A. T. Bell,  N. A. Besley,  Jeng-Da Chai,  
 A. E. DePrince, III,  R. A. DiStasio Jr.,  A. Dreuw,  B. D. Dunietz,  
 T. R. Furlani,  Chao-Ping Hsu,  Yousung Jung,  Jing Kong,  D. S. Lambrecht,  
 WanZhen Liang,  C. Ochsenfeld,  V. A. Rassolov,  L. V. Slipchenko,  
 J. E. Subotnik,  T. Van Voorhis,  J. M. Herbert,  A. I. Krylov,  
 P. M. W. Gill,  M. Head-Gordon

 Contributors to earlier versions of Q-Chem not listed above: 
 R. D. Adamson,  B. Austin,  J. Baker,  G. J. O. Beran,  K. Brandhorst,  
 S. T. Brown,  E. F. C. Byrd,  A. K. Chakraborty,  C.-L. Cheng,  
 Siu Hung Chien,  D. M. Chipman,  D. L. Crittenden,  H. Dachsel,  
 R. J. Doerksen,  A. D. Dutoi,  L. Fusti-Molnar,  W. A. Goddard III,  
 A. Golubeva-Zadorozhnaya,  S. R. Gwaltney,  G. Hawkins,  A. Heyden,  
 S. Hirata,  G. Kedziora,  F. J. Keil,  C. Kelley,  Jihan Kim,  R. A. King,  
 R. Z. Khaliullin,  P. P. Korambath,  W. Kurlancheek,  A. M. Lee,  M. S. Lee,  
 S. V. Levchenko,  Ching Yeh Lin,  D. Liotard,  R. C. Lochan,  I. Lotan,  
 P. E. Maslen,  N. Nair,  D. P. O'Neill,  D. Neuhauser,  E. Neuscamman,  
 C. M. Oana,  R. Olson,  B. Peters,  R. Peverati,  P. A. Pieniazek,  
 Y. M. Rhee,  J. Ritchie,  M. A. Rohrdanz,  E. Rosta,  N. J. Russ,  
 H. F. Schaefer III,  N. E. Schultz,  N. Shenvi,  A. C. Simmonett,  A. Sodt,  
 D. Stuck,  K. S. Thanthiriwatte,  V. Vanovschi,  Tao Wang,  A. Warshel,  
 C. F. Williams,  Q. Wu,  X. Xu,  W. Zhang

 Please cite Q-Chem as follows:
 Y. Shao et al., Mol. Phys. 113, 184-215 (2015)
 DOI: 10.1080/00268976.2014.952696

 Q-Chem 5.2.1 for Intel X86 EM64T Linux

 Parts of Q-Chem use Armadillo 8.300.2 (Tropical Shenanigans).
 http://arma.sourceforge.net/

 Q-Chem begins on Mon May 10 09:09:13 2021  

compute-0-8.local
Host: 0

     Scratch files written to /home/meili/scratch/qchem57653//
NAlpha2: 80
NElect   80
Mult     1

 Q-Chem warning in module libgen/rem_setup.C, line 2813:

 Neither GIA nor STOLL is specified by user. Use STOLL as the default


Checking the input file for inconsistencies... 	...done.

--------------------------------------------------------------
User input:
--------------------------------------------------------------
$comment
1vex_ff99sbtip3p_nvt_e5_100ns_m5009_005CYX_006LEU_033SER_034LEU.pdb
$end

$molecule
0 1
--
0 1
C    12.7810000000   18.5550000000    9.0430000000
H    13.5790000000   18.0310000000    8.5820000000
C    11.8440000000   17.3690000000    9.3410000000
O    10.6440000000   17.4220000000    8.9630000000
N    12.2960000000   16.3670000000   10.0420000000
H    13.2830000000   16.4160000000   10.2540000000
C    11.4790000000   15.2760000000   10.6660000000
H    10.4730000000   15.1750000000   10.1650000000
H    12.3310000000   19.2630000000    8.3790000000
H    13.0530000000   19.1480000000    9.8910000000
H    11.3310000000   15.5010000000   11.7010000000
H    12.0070000000   14.3530000000   10.5490000000
--
0 1
C    17.2900000000   16.8680000000   10.0350000000
H    16.6740000000   17.7800000000   10.0620000000
C    16.9150000000   16.1190000000    8.7620000000
O    16.8330000000   14.8890000000    8.8220000000
N    16.5340000000   16.7740000000    7.6250000000
H    16.4330000000   17.8020000000    7.6340000000
C    16.0350000000   16.1110000000    6.4260000000
H    16.5090000000   15.1130000000    6.4730000000
H    18.3280000000   17.1260000000   10.0180000000
H    17.1170000000   16.2630000000   10.9010000000
H    14.9680000000   16.0300000000    6.4480000000
H    16.2650000000   16.6430000000    5.5260000000
$end

$rem
JOBTYPE			EDA
EDA2			1
method			wB97X-V
BASIS			def2-TZVPD
XC_GRID			000099000590
NL_GRID			1
UNRESTRICTED		FALSE
MAX_SCF_CYCLES		200
SYMMETRY		FALSE
SYM_IGNORE		TRUE
MEM_STATIC		2000
BASIS_LIN_DEP_THRESH 	6
THRESH 			14
SCF_CONVERGENCE 	8
SCF_PRINT_FRGM 		TRUE
$end
--------------------------------------------------------------
 ----------------------------------------------------------------
             Standard Nuclear Orientation (Angstroms)
    I     Atom           X                Y                Z
 ----------------------------------------------------------------
    1      C      12.7810000000    18.5550000000     9.0430000000
    2      H      13.5790000000    18.0310000000     8.5820000000
    3      C      11.8440000000    17.3690000000     9.3410000000
    4      O      10.6440000000    17.4220000000     8.9630000000
    5      N      12.2960000000    16.3670000000    10.0420000000
    6      H      13.2830000000    16.4160000000    10.2540000000
    7      C      11.4790000000    15.2760000000    10.6660000000
    8      H      10.4730000000    15.1750000000    10.1650000000
    9      H      12.3310000000    19.2630000000     8.3790000000
   10      H      13.0530000000    19.1480000000     9.8910000000
   11      H      11.3310000000    15.5010000000    11.7010000000
   12      H      12.0070000000    14.3530000000    10.5490000000
   13      C      17.2900000000    16.8680000000    10.0350000000
   14      H      16.6740000000    17.7800000000    10.0620000000
   15      C      16.9150000000    16.1190000000     8.7620000000
   16      O      16.8330000000    14.8890000000     8.8220000000
   17      N      16.5340000000    16.7740000000     7.6250000000
   18      H      16.4330000000    17.8020000000     7.6340000000
   19      C      16.0350000000    16.1110000000     6.4260000000
   20      H      16.5090000000    15.1130000000     6.4730000000
   21      H      18.3280000000    17.1260000000    10.0180000000
   22      H      17.1170000000    16.2630000000    10.9010000000
   23      H      14.9680000000    16.0300000000     6.4480000000
   24      H      16.2650000000    16.6430000000     5.5260000000
 ----------------------------------------------------------------
 Nuclear Repulsion Energy =         514.15388386 hartrees
 There are       40 alpha and       40 beta electrons
 Requested basis set is def2-TZVPD
 There are 202 shells and 502 basis functions

 Total QAlloc Memory Limit   2000 MB
 Mega-Array Size      1956 MB
 MEM_STATIC part      2000 MB
 A cutoff of  1.0D-14 yielded  17685 shell pairs
 There are    108605 function pairs (    134745 Cartesian)
 Smallest overlap matrix eigenvalue = 3.11E-06

 Scale SEOQF with 1.000000e-03/1.000000e-03/1.000000e-02

 Standard Electronic Orientation quadrupole field applied
 Nucleus-field energy     =    -0.0000000487 hartrees

 -----------------------------------------------------------------------
  General SCF calculation program by
  Eric Jon Sundstrom, Paul Horn, Yuezhi Mao, Dmitri Zuev, Alec White,
  David Stuck, Shaama M.S., Shane Yost, Joonho Lee, David Small,
  Daniel Levine, Susi Lehtola, Hugh Burton, Evgeny Epifanovsky,
  Bang C. Huynh
 -----------------------------------------------------------------------
================================================================
                 ALMO-EDA with the EDA2 driver                  
================================================================
 The second-generation ALMO-EDA (for DFT):                      
 P. R. Horn, Y. Mao and M. Head-Gordon, PCCP, 18, 23067 (2016)  
 Decomposition of the frozen energy:                            
 P. R. Horn, Y. Mao and M. Head-Gordon, JCP, 144, 114107 (2016) 
 FERF model for polarization:                                   
 P. R. Horn and M. Head-Gordon, JCP, 143, 114111 (2015)         
Using eda2 option set 1
Option set summary: Frozen orbital wavefunction, initial wavefunction decomposition, and nDQ polarization.
--------------------------------
Printing EDA Options
--------------------------------
eda_child_super_basis      0
fragmo_guess_mode          0
child_mp                   1
child_mp_orders            232
cls_elec                   1
cls_disp                   0
scfmi_mode                 1
scfmi_occs                 0
scfmi_virts                0
frz_relax                  0
frz_relax_method           0
dc_pen_start               0
dc_pen_conv                0
dc_pen_increment           0
dc_pen_steps               0
dc_pen_thresh_factor       0
dc_pen_pre_newton_thresh   0
frz_ortho_decomp           1
frz_ortho_decomp_conv      6
frgm_method                2
scfmi_freeze_ss            0
separate_rehyb             0
plot_diff_den              0
eda_nocv                   0
eda_vct_relax              1
disp_free_x                0
disp_free_c                0
eda_bsse                   0
eda_pct_a                  0
eda_covp                   0
--------------------------------
Attempting to make child job directory: /home/meili/scratch/qchem57653//Frg1/
Attempting to make child job directory: /home/meili/scratch/qchem57653//Frg2/
Creating input file /home/meili/scratch/qchem57653/Frg1.input
using default PutDataFrgm: nothing
calling putenv with: QCSCRATCH=/home/meili/scratch/qchem57653/ 
Spawning Job For Fragment 0
                  Welcome to Q-Chem
     A Quantum Leap Into The Future Of Chemistry


 Q-Chem 5.2 (devel), Q-Chem, Inc., Pleasanton, CA (2019)

 Yihan Shao,  Zhengting Gan,  E. Epifanovsky,  A. T. B. Gilbert,  M. Wormit,  
 J. Kussmann,  A. W. Lange,  A. Behn,  Jia Deng,  Xintian Feng,  D. Ghosh,  
 M. Goldey,  P. R. Horn,  L. D. Jacobson,  I. Kaliman,  T. Kus,  A. Landau,  
 Jie Liu,  E. I. Proynov,  R. M. Richard,  R. P. Steele,  E. J. Sundstrom,  
 H. L. Woodcock III,  P. M. Zimmerman,  D. Zuev,  B. Albrecht,  E. Alguire,  
 S. A. Baeppler,  D. Barton,  Z. Benda,  Y. A. Bernard,  E. J. Berquist,  
 K. B. Bravaya,  H. Burton,  D. Casanova,  Chun-Min Chang,  Yunqing Chen,  
 A. Chien,  K. D. Closser,  M. P. Coons,  S. Coriani,  S. Dasgupta,  
 A. L. Dempwolff,  M. Diedenhofen,  Hainam Do,  R. G. Edgar,  Po-Tung Fang,  
 S. Faraji,  S. Fatehi,  Qingguo Feng,  K. D. Fenk,  J. Fosso-Tande,  
 J. Gayvert,  Qinghui Ge,  A. Ghysels,  G. Gidofalvi,  J. Gomes,  
 J. Gonthier,  A. Gunina,  D. Hait,  M. W. D. Hanson-Heine,  
 P. H. P. Harbach,  A. W. Hauser,  M. F. Herbst,  J. E. Herr,  
 E. G. Hohenstein,  Z. C. Holden,  Kerwin Hui,  B. C. Huynh,  T.-C. Jagau,  
 Hyunjun Ji,  B. Kaduk,  K. Khistyaev,  Jaehoon Kim,  P. Klunzinger,  K. Koh,  
 D. Kosenkov,  L. Koulias,  T. Kowalczyk,  C. M. Krauter,  A. Kunitsa,  
 Ka Un Lao,  A. Laurent,  K. V. Lawler,  Joonho Lee,  D. Lefrancois,  
 S. Lehtola,  D. S. Levine,  Yi-Pei Li,  You-Sheng Lin,  Fenglai Liu,  
 E. Livshits,  A. Luenser,  P. Manohar,  E. Mansoor,  S. F. Manzer,  
 Shan-Ping Mao,  Yuezhi Mao,  N. Mardirossian,  A. V. Marenich,  
 T. Markovich,  L. A. Martinez-Martinez,  S. A. Maurer,  N. J. Mayhall,  
 S. C. McKenzie,  J.-M. Mewes,  P. Morgante,  A. F. Morrison,  
 J. W. Mullinax,  K. Nanda,  T. S. Nguyen-Beck,  R. Olivares-Amaya,  
 J. A. Parkhill,  Zheng Pei,  T. M. Perrine,  F. Plasser,  P. Pokhilko,  
 S. Prager,  A. Prociuk,  E. Ramos,  D. R. Rehn,  F. Rob,  M. Scheurer,  
 M. Schneider,  N. Sergueev,  S. M. Sharada,  S. Sharma,  D. W. Small,  
 T. Stauch,  T. Stein,  Yu-Chuan Su,  A. J. W. Thom,  A. Tkatchenko,  
 T. Tsuchimochi,  N. M. Tubman,  L. Vogt,  M. L. Vidal,  O. Vydrov,  
 M. A. Watson,  J. Wenzel,  M. de Wergifosse,  T. A. Wesolowski,  A. White,  
 J. Witte,  A. Yamada,  Jun Yang,  K. Yao,  S. Yeganeh,  S. R. Yost,  
 Zhi-Qiang You,  A. Zech,  Igor Ying Zhang,  Xing Zhang,  Yan Zhao,  
 Ying Zhu,  B. R. Brooks,  G. K. L. Chan,  C. J. Cramer,  M. S. Gordon,  
 W. J. Hehre,  A. Klamt,  M. W. Schmidt,  C. D. Sherrill,  D. G. Truhlar,  
 A. Aspuru-Guzik,  R. Baer,  A. T. Bell,  N. A. Besley,  Jeng-Da Chai,  
 A. E. DePrince, III,  R. A. DiStasio Jr.,  A. Dreuw,  B. D. Dunietz,  
 T. R. Furlani,  Chao-Ping Hsu,  Yousung Jung,  Jing Kong,  D. S. Lambrecht,  
 WanZhen Liang,  C. Ochsenfeld,  V. A. Rassolov,  L. V. Slipchenko,  
 J. E. Subotnik,  T. Van Voorhis,  J. M. Herbert,  A. I. Krylov,  
 P. M. W. Gill,  M. Head-Gordon

 Contributors to earlier versions of Q-Chem not listed above: 
 R. D. Adamson,  B. Austin,  J. Baker,  G. J. O. Beran,  K. Brandhorst,  
 S. T. Brown,  E. F. C. Byrd,  A. K. Chakraborty,  C.-L. Cheng,  
 Siu Hung Chien,  D. M. Chipman,  D. L. Crittenden,  H. Dachsel,  
 R. J. Doerksen,  A. D. Dutoi,  L. Fusti-Molnar,  W. A. Goddard III,  
 A. Golubeva-Zadorozhnaya,  S. R. Gwaltney,  G. Hawkins,  A. Heyden,  
 S. Hirata,  G. Kedziora,  F. J. Keil,  C. Kelley,  Jihan Kim,  R. A. King,  
 R. Z. Khaliullin,  P. P. Korambath,  W. Kurlancheek,  A. M. Lee,  M. S. Lee,  
 S. V. Levchenko,  Ching Yeh Lin,  D. Liotard,  R. C. Lochan,  I. Lotan,  
 P. E. Maslen,  N. Nair,  D. P. O'Neill,  D. Neuhauser,  E. Neuscamman,  
 C. M. Oana,  R. Olson,  B. Peters,  R. Peverati,  P. A. Pieniazek,  
 Y. M. Rhee,  J. Ritchie,  M. A. Rohrdanz,  E. Rosta,  N. J. Russ,  
 H. F. Schaefer III,  N. E. Schultz,  N. Shenvi,  A. C. Simmonett,  A. Sodt,  
 D. Stuck,  K. S. Thanthiriwatte,  V. Vanovschi,  Tao Wang,  A. Warshel,  
 C. F. Williams,  Q. Wu,  X. Xu,  W. Zhang

 Please cite Q-Chem as follows:
 Y. Shao et al., Mol. Phys. 113, 184-215 (2015)
 DOI: 10.1080/00268976.2014.952696

 Q-Chem 5.2.1 for Intel X86 EM64T Linux

 Parts of Q-Chem use Armadillo 8.300.2 (Tropical Shenanigans).
 http://arma.sourceforge.net/

 Q-Chem begins on Mon May 10 09:10:39 2021  

compute-0-8.local
Host: 0

     Scratch files written to /home/meili/scratch/qchem57653//Frg1//
NAlpha2: 40
NElect   40
Mult     1

Checking the input file for inconsistencies... 	...done.

--------------------------------------------------------------
User input:
--------------------------------------------------------------
$molecule
0 1
 6	12.7810000000	18.5550000000	9.0430000000
 1	13.5790000000	18.0310000000	8.5820000000
 6	11.8440000000	17.3690000000	9.3410000000
 8	10.6440000000	17.4220000000	8.9630000000
 7	12.2960000000	16.3670000000	10.0420000000
 1	13.2830000000	16.4160000000	10.2540000000
 6	11.4790000000	15.2760000000	10.6660000000
 1	10.4730000000	15.1750000000	10.1650000000
 1	12.3310000000	19.2630000000	8.3790000000
 1	13.0530000000	19.1480000000	9.8910000000
 1	11.3310000000	15.5010000000	11.7010000000
 1	12.0070000000	14.3530000000	10.5490000000
$end
$rem
EDA2		1
METHOD		WB97X-V
BASIS		DEF2-TZVPD
XC_GRID		000099000590
NL_GRID		1
UNRESTRICTED		FALSE
MAX_SCF_CYCLES		200
SYMMETRY		FALSE
SYM_IGNORE		TRUE
BASIS_LIN_DEP_THRESH		6
THRESH		14
SCF_CONVERGENCE		8
SCF_PRINT_FRGM		TRUE
!required keywords
JOBTYPE		SP
SYM_IGNORE		TRUE
SUBSYSTEM		TRUE
GEN_SCFMAN		TRUE
CHILD_INSTRUCTION		2
SYM_IGNORE		TRUE
SCFMI		0
RI_K 0		
PARI_K 0		
MIN_PARI_K 0		
IARI_K 0		
OCC_RI_K 0		
PURECART		1111
MEM_STATIC		2000
MEM_TOTAL		2000
GUI		0
CHILD_MP		1
CHILD_MP_ORDERS		232
FRZ_RELAX		0
FRZ_RELAX_METHOD		0
EDA_CLS_ELEC		1
EDA_CLS_DISP		0
FRZ_ORTHO_DECOMP		1
EDA2		FALSE
FRGM_METHOD		FALSE
CIS_N_ROOTS  0
LOCAL_CIS    0
CIS_RLX_DNS  1
$end
--------------------------------------------------------------
 ----------------------------------------------------------------
             Standard Nuclear Orientation (Angstroms)
    I     Atom           X                Y                Z
 ----------------------------------------------------------------
    1      C      12.7810000000    18.5550000000     9.0430000000
    2      H      13.5790000000    18.0310000000     8.5820000000
    3      C      11.8440000000    17.3690000000     9.3410000000
    4      O      10.6440000000    17.4220000000     8.9630000000
    5      N      12.2960000000    16.3670000000    10.0420000000
    6      H      13.2830000000    16.4160000000    10.2540000000
    7      C      11.4790000000    15.2760000000    10.6660000000
    8      H      10.4730000000    15.1750000000    10.1650000000
    9      H      12.3310000000    19.2630000000     8.3790000000
   10      H      13.0530000000    19.1480000000     9.8910000000
   11      H      11.3310000000    15.5010000000    11.7010000000
   12      H      12.0070000000    14.3530000000    10.5490000000
 ----------------------------------------------------------------
 Nuclear Repulsion Energy =         179.18525420 hartrees
 There are       20 alpha and       20 beta electrons
 Requested basis set is def2-TZVPD
 There are 101 shells and 251 basis functions

 Total QAlloc Memory Limit   2000 MB
 Mega-Array Size      1956 MB
 MEM_STATIC part      2000 MB

                       Distance Matrix (Angstroms)
             C (  1)   H (  2)   C (  3)   O (  4)   N (  5)   H (  6)
   H (  2)  1.060142
   C (  3)  1.540574  2.006128
   O (  4)  2.420095  3.021633  1.259243
   N (  5)  2.453685  2.558630  1.303729  2.237492
   H (  6)  2.508754  2.343379  1.952562  3.105324  1.010700
   C (  7)  3.883449  4.042658  2.503897  2.864044  1.499048  2.173421
   H (  8)  4.243836  4.506646  2.715189  2.554027  2.181587  3.073126
   H (  9)  1.069888  1.765372  2.179415  2.564431  3.339702  3.539398
   H ( 10)  1.069924  1.799402  2.220140  3.105405  2.886141  2.765591
   H ( 11)  4.300509  4.602452  3.053227  3.414506  2.105579  2.596409
   H ( 12)  4.530333  4.457349  3.253012  3.713748  2.096847  2.443598
             C (  7)   H (  8)   H (  9)   H ( 10)   H ( 11)
   H (  8)  1.128378
   H (  9)  4.674660  4.832567
   H ( 10)  4.250939  4.745124  1.679480
   H ( 11)  1.069464  1.789340  5.117453  4.420633
   H ( 12)  1.069767  1.782217  5.377916  4.951677  1.761245

 A cutoff of  1.0D-14 yielded   5021 shell pairs
 There are     31597 function pairs (     39745 Cartesian)
 Smallest overlap matrix eigenvalue = 8.01E-06

 Scale SEOQF with 1.000000e-02/1.000000e-03/1.000000e-02

 Standard Electronic Orientation quadrupole field applied
 Nucleus-field energy     =    -0.0000000117 hartrees
 Guess from superposition of atomic densities
 Warning:  Energy on first SCF cycle will be non-variational
 SAD guess density has 40.000000 electrons

 -----------------------------------------------------------------------
  General SCF calculation program by
  Eric Jon Sundstrom, Paul Horn, Yuezhi Mao, Dmitri Zuev, Alec White,
  David Stuck, Shaama M.S., Shane Yost, Joonho Lee, David Small,
  Daniel Levine, Susi Lehtola, Hugh Burton, Evgeny Epifanovsky,
  Bang C. Huynh
 -----------------------------------------------------------------------
 Exchange:     0.1670 Hartree-Fock + 1.0000 wB97X-V + LR-HF
 Correlation:  1.0000 wB97X-V
 Using Euler-Maclaurin-Lebedev (99,590) quadrature formula
 Nonlocal Correlation:  VV10 with C = 0.0100 and b = 6.00 and scale = 1.00000
 Grid used for NLC:  SG-1 standard quadrature
Energy prior to optimization (guess energy) = -248.399578908391
Begin Timing: Total SCF Calculation
begin iterations for algorithm: DIIS         
the SCF tolerance is set to 1.00e-08
    1    -248.3995789084      4.38e-03     00000 
    2    -248.3144831465      6.24e-03     00000 
    3    -248.5272137199      5.19e-04     00000 
    4    -248.5288578203      2.28e-04     00000 
    5    -248.5292060230      5.38e-05     00000 
    6    -248.5292323299      2.07e-05     00000 
    7    -248.5292375309      5.60e-06     00000 
    8    -248.5292382183      1.76e-06     00000 
    9    -248.5292382695      6.38e-07     00000 
   10    -248.5292382744      1.33e-07     00000 
   11    -248.5292382747      2.32e-08     00000 
   12    -248.5292382747      7.26e-09     00000 Convergence criterion met
Timing for Total SCF: 264.00s (wall), 1594.93s (cpu)
Multipole orders to be included
        2
        3
computing dipole RHS
computing quadrupole RHS
total number of RHS in solve_reponses: 8
RHS batch sizes
        8
Beginning Block Conjugate Gradient Iterations. Batch Number: 0
computing hessian-vector products by finite difference
              1      5.02e-01     00000 Conjugate Gradient Iteration
computing hessian-vector products by finite difference
              2      1.63e-01     00000 Conjugate Gradient Iteration
computing hessian-vector products by finite difference
              3      3.80e-02     00000 Conjugate Gradient Iteration
computing hessian-vector products by finite difference
              4      8.50e-03     00000 Conjugate Gradient Iteration
computing hessian-vector products by finite difference
              5      1.61e-03     00000 Conjugate Gradient Iteration
computing hessian-vector products by finite difference
              6      3.28e-04     00000 Conjugate Gradient Iteration
computing hessian-vector products by finite difference
              7      5.22e-05     00000 Conjugate Gradient Iteration
computing hessian-vector products by finite difference
              8      1.19e-05     00000 Conjugate Gradient Iteration
computing hessian-vector products by finite difference
              9      2.91e-06     00000 Conjugate Gradient Iteration
computing hessian-vector products by finite difference
             10      5.39e-07     00000 Conjugate Gradient Iteration
computing hessian-vector products by finite difference
             11      7.65e-08     00000 Conjugate Gradient Iteration
computing hessian-vector products by finite difference
             12      1.38e-08     00000 Conjugate Gradient Iteration
computing hessian-vector products by finite difference
             13      3.19e-09     00000 CG Converged
batch 0 complete
Done Calculating Responses
TESTING ORTHOGONALIZATION OF MULTIPOLE BASIS
Multipole virts passed orthogonality test
Virts Per Order
           60
          100

 --------------------------------------------------------------

                    Orbital Energies (a.u.)
 --------------------------------------------------------------

 Alpha MOs
 -- Occupied --
-19.1550 -14.4433 -10.3642 -10.3119 -10.2670  -1.1470  -1.0502  -0.8873
 -0.8308  -0.7026  -0.6262  -0.5856  -0.5691  -0.5504  -0.5137  -0.5085
 -0.4841  -0.4616  -0.3569  -0.3416
 -- Virtual --
  0.0537   0.0764   0.0948   0.1050   0.1108   0.1235   0.1353   0.1420
  0.1491   0.1594   0.1636   0.1813   0.1877   0.2019   0.2068   0.2289
  0.2310   0.2403   0.2500   0.2611   0.2694   0.2703   0.2908   0.3005
  0.3023   0.3089   0.3198   0.3271   0.3441   0.3475   0.3564   0.3618
  0.3658   0.3689   0.3768   0.3838   0.3944   0.3985   0.4097   0.4123
  0.4310   0.4347   0.4510   0.4594   0.4652   0.4709   0.4766   0.4868
  0.4942   0.5027   0.5118   0.5206   0.5282   0.5435   0.5441   0.5573
  0.5680   0.5700   0.5940   0.6055   0.6183   0.6258   0.6416   0.6575
  0.6721   0.6872   0.7025   0.7220   0.7383   0.7424   0.7468   0.7615
  0.7702   0.7885   0.8016   0.8034   0.8220   0.8276   0.8342   0.8426
  0.8526   0.8772   0.8879   0.9067   0.9358   0.9406   0.9752   1.0188
  1.0279   1.0449   1.0531   1.0763   1.1286   1.1549   1.1887   1.2104
  1.2186   1.2497   1.2606   1.2777   1.2912   1.3416   1.3557   1.3586
  1.4107   1.4361   1.5241   1.5392   1.6119   1.6669   1.7186   1.7471
  1.7686   1.8426   1.8441   1.8606   1.8636   1.8821   1.9114   1.9283
  1.9471   1.9517   1.9866   2.0165   2.0337   2.0418   2.0850   2.1342
  2.1374   2.1977   2.2181   2.2735   2.2838   2.3052   2.3311   2.3617
  2.3884   2.4536   2.4588   2.4625   2.5030   2.5545   2.5624   2.5792
  2.5977   2.6342   2.6560   2.6816   2.7578   2.7638   2.8142   2.8333
  2.8727   2.8848   2.9016   2.9476   2.9681   3.0086   3.0354   3.1069
  3.1867   3.2014   3.2156   3.2609   3.2804   3.2866   3.3270   3.3325
  3.3511   3.3734   3.3807   3.4292   3.4570   3.4582   3.4747   3.5536
  3.5685   3.5905   3.6077   3.6241   3.6461   3.6652   3.7099   3.7521
  3.8000   3.8633   3.8951   3.9353   4.0511   4.0787   4.1447   4.1853
  4.2477   4.3292   4.4016   4.4701   4.5183   4.5840   4.6890   4.7069
  4.7780   4.8511   4.9211   4.9465   5.0148   5.1924   5.2404   5.2617
  5.3296   5.4207   5.4389   5.4846   5.6029   5.6692   5.7611   5.7729
  5.9599   6.1010   6.2218   6.4922   6.6734   6.7611   6.8387   7.0031
  7.2705   7.3498  22.5883  22.6714  23.5890  32.7003  44.3312
 --------------------------------------------------------------

          Ground-State Mulliken Net Atomic Charges

     Atom                 Charge (a.u.)
  ----------------------------------------
      1 C                    -0.763040
      2 H                     0.228683
      3 C                     0.547674
      4 O                    -0.580477
      5 N                    -0.085192
      6 H                     0.172853
      7 C                    -0.666889
      8 H                     0.257421
      9 H                     0.185546
     10 H                     0.230782
     11 H                     0.229268
     12 H                     0.243371
  ----------------------------------------
  Sum of atomic charges =     0.000000

 -----------------------------------------------------------------
                    Cartesian Multipole Moments
 -----------------------------------------------------------------
    Charge (ESU x 10^10)
                -0.0000
    Dipole Moment (Debye)
         X       3.6261      Y      -1.2540      Z       2.0733
       Tot       4.3612
    Quadrupole Moments (Debye-Ang)
        XX      52.7822     XY      48.8644     YY     -69.9334
        XZ      57.4033     YZ      21.7319     ZZ       8.7468
    Octopole Moments (Debye-Ang^2)
       XXX     355.1587    XXY     765.9843    XYY     290.1963
       YYY   -2478.3603    XXZ     753.8477    XYZ     834.9924
       YYZ    -121.6974    XZZ     401.2256    YZZ       4.2646
       ZZZ    -323.1936
    Hexadecapole Moments (Debye-Ang^3)
      XXXX   -3661.6914   XXXY    4630.5625   XXYY    6880.6969
      XYYY   -9770.9938   YYYY  -72207.7430   XXXZ    6131.0201
      XXYZ   11357.2810   XYYZ    8706.9277   YYYZ  -14783.2943
      XXZZ    5229.1565   XYZZ    5277.2479   YYZZ   -4959.4098
      XZZZ   -1128.7223   YZZZ   -6954.0370   ZZZZ  -10042.8913
 -----------------------------------------------------------------
Archival summary:
1\1\compute-0-8.local\SP\ProcedureUnspecified\BasisUnspecified\1137\meili\MonMay1010:40:002021MonMay1010:40:002021\0\\#,ProcedureUnspecified,BasisUnspecified,\\0,1\N\H,1,1.0107\C,1,1.30373,2,114.462\O,3,1.25924,1,121.61,2,177.572,0\C,1,1.49905,2,118.699,3,-173.364,0\H,5,1.06946,1,108.975,2,73.6004,0\H,5,1.06977,1,108.265,2,-47.0332,0\H,5,1.12838,1,111.483,2,-166.08,0\C,3,1.54057,1,119,2,-6.1948,0\H,9,1.06014,3,99.2895,1,55.7889,0\H,9,1.06989,3,111.943,1,174.1,0\H,9,1.06992,3,115.34,1,-68.0226,0\\\@

 Total job time:  5361.04s(wall), 32561.61s(cpu) 
 Mon May 10 10:40:00 2021

        *************************************************************
        *                                                           *
        *  Thank you very much for using Q-Chem.  Have a nice day.  *
        *                                                           *
        *************************************************************


Done Job For Fragment 0
calling putenv with: QCSCRATCH=/home/meili/scratch 
calling putenv with: QCTHREADS=8 
Creating input file /home/meili/scratch/qchem57653/Frg2.input
using default PutDataFrgm: nothing
calling putenv with: QCSCRATCH=/home/meili/scratch/qchem57653/ 
Spawning Job For Fragment 1
                  Welcome to Q-Chem
     A Quantum Leap Into The Future Of Chemistry


 Q-Chem 5.2 (devel), Q-Chem, Inc., Pleasanton, CA (2019)

 Yihan Shao,  Zhengting Gan,  E. Epifanovsky,  A. T. B. Gilbert,  M. Wormit,  
 J. Kussmann,  A. W. Lange,  A. Behn,  Jia Deng,  Xintian Feng,  D. Ghosh,  
 M. Goldey,  P. R. Horn,  L. D. Jacobson,  I. Kaliman,  T. Kus,  A. Landau,  
 Jie Liu,  E. I. Proynov,  R. M. Richard,  R. P. Steele,  E. J. Sundstrom,  
 H. L. Woodcock III,  P. M. Zimmerman,  D. Zuev,  B. Albrecht,  E. Alguire,  
 S. A. Baeppler,  D. Barton,  Z. Benda,  Y. A. Bernard,  E. J. Berquist,  
 K. B. Bravaya,  H. Burton,  D. Casanova,  Chun-Min Chang,  Yunqing Chen,  
 A. Chien,  K. D. Closser,  M. P. Coons,  S. Coriani,  S. Dasgupta,  
 A. L. Dempwolff,  M. Diedenhofen,  Hainam Do,  R. G. Edgar,  Po-Tung Fang,  
 S. Faraji,  S. Fatehi,  Qingguo Feng,  K. D. Fenk,  J. Fosso-Tande,  
 J. Gayvert,  Qinghui Ge,  A. Ghysels,  G. Gidofalvi,  J. Gomes,  
 J. Gonthier,  A. Gunina,  D. Hait,  M. W. D. Hanson-Heine,  
 P. H. P. Harbach,  A. W. Hauser,  M. F. Herbst,  J. E. Herr,  
 E. G. Hohenstein,  Z. C. Holden,  Kerwin Hui,  B. C. Huynh,  T.-C. Jagau,  
 Hyunjun Ji,  B. Kaduk,  K. Khistyaev,  Jaehoon Kim,  P. Klunzinger,  K. Koh,  
 D. Kosenkov,  L. Koulias,  T. Kowalczyk,  C. M. Krauter,  A. Kunitsa,  
 Ka Un Lao,  A. Laurent,  K. V. Lawler,  Joonho Lee,  D. Lefrancois,  
 S. Lehtola,  D. S. Levine,  Yi-Pei Li,  You-Sheng Lin,  Fenglai Liu,  
 E. Livshits,  A. Luenser,  P. Manohar,  E. Mansoor,  S. F. Manzer,  
 Shan-Ping Mao,  Yuezhi Mao,  N. Mardirossian,  A. V. Marenich,  
 T. Markovich,  L. A. Martinez-Martinez,  S. A. Maurer,  N. J. Mayhall,  
 S. C. McKenzie,  J.-M. Mewes,  P. Morgante,  A. F. Morrison,  
 J. W. Mullinax,  K. Nanda,  T. S. Nguyen-Beck,  R. Olivares-Amaya,  
 J. A. Parkhill,  Zheng Pei,  T. M. Perrine,  F. Plasser,  P. Pokhilko,  
 S. Prager,  A. Prociuk,  E. Ramos,  D. R. Rehn,  F. Rob,  M. Scheurer,  
 M. Schneider,  N. Sergueev,  S. M. Sharada,  S. Sharma,  D. W. Small,  
 T. Stauch,  T. Stein,  Yu-Chuan Su,  A. J. W. Thom,  A. Tkatchenko,  
 T. Tsuchimochi,  N. M. Tubman,  L. Vogt,  M. L. Vidal,  O. Vydrov,  
 M. A. Watson,  J. Wenzel,  M. de Wergifosse,  T. A. Wesolowski,  A. White,  
 J. Witte,  A. Yamada,  Jun Yang,  K. Yao,  S. Yeganeh,  S. R. Yost,  
 Zhi-Qiang You,  A. Zech,  Igor Ying Zhang,  Xing Zhang,  Yan Zhao,  
 Ying Zhu,  B. R. Brooks,  G. K. L. Chan,  C. J. Cramer,  M. S. Gordon,  
 W. J. Hehre,  A. Klamt,  M. W. Schmidt,  C. D. Sherrill,  D. G. Truhlar,  
 A. Aspuru-Guzik,  R. Baer,  A. T. Bell,  N. A. Besley,  Jeng-Da Chai,  
 A. E. DePrince, III,  R. A. DiStasio Jr.,  A. Dreuw,  B. D. Dunietz,  
 T. R. Furlani,  Chao-Ping Hsu,  Yousung Jung,  Jing Kong,  D. S. Lambrecht,  
 WanZhen Liang,  C. Ochsenfeld,  V. A. Rassolov,  L. V. Slipchenko,  
 J. E. Subotnik,  T. Van Voorhis,  J. M. Herbert,  A. I. Krylov,  
 P. M. W. Gill,  M. Head-Gordon

 Contributors to earlier versions of Q-Chem not listed above: 
 R. D. Adamson,  B. Austin,  J. Baker,  G. J. O. Beran,  K. Brandhorst,  
 S. T. Brown,  E. F. C. Byrd,  A. K. Chakraborty,  C.-L. Cheng,  
 Siu Hung Chien,  D. M. Chipman,  D. L. Crittenden,  H. Dachsel,  
 R. J. Doerksen,  A. D. Dutoi,  L. Fusti-Molnar,  W. A. Goddard III,  
 A. Golubeva-Zadorozhnaya,  S. R. Gwaltney,  G. Hawkins,  A. Heyden,  
 S. Hirata,  G. Kedziora,  F. J. Keil,  C. Kelley,  Jihan Kim,  R. A. King,  
 R. Z. Khaliullin,  P. P. Korambath,  W. Kurlancheek,  A. M. Lee,  M. S. Lee,  
 S. V. Levchenko,  Ching Yeh Lin,  D. Liotard,  R. C. Lochan,  I. Lotan,  
 P. E. Maslen,  N. Nair,  D. P. O'Neill,  D. Neuhauser,  E. Neuscamman,  
 C. M. Oana,  R. Olson,  B. Peters,  R. Peverati,  P. A. Pieniazek,  
 Y. M. Rhee,  J. Ritchie,  M. A. Rohrdanz,  E. Rosta,  N. J. Russ,  
 H. F. Schaefer III,  N. E. Schultz,  N. Shenvi,  A. C. Simmonett,  A. Sodt,  
 D. Stuck,  K. S. Thanthiriwatte,  V. Vanovschi,  Tao Wang,  A. Warshel,  
 C. F. Williams,  Q. Wu,  X. Xu,  W. Zhang

 Please cite Q-Chem as follows:
 Y. Shao et al., Mol. Phys. 113, 184-215 (2015)
 DOI: 10.1080/00268976.2014.952696

 Q-Chem 5.2.1 for Intel X86 EM64T Linux

 Parts of Q-Chem use Armadillo 8.300.2 (Tropical Shenanigans).
 http://arma.sourceforge.net/

 Q-Chem begins on Mon May 10 10:40:00 2021  

compute-0-8.local
Host: 0

     Scratch files written to /home/meili/scratch/qchem57653//Frg2//
NAlpha2: 40
NElect   40
Mult     1

Checking the input file for inconsistencies... 	...done.

--------------------------------------------------------------
User input:
--------------------------------------------------------------
$molecule
0 1
 6	17.2900000000	16.8680000000	10.0350000000
 1	16.6740000000	17.7800000000	10.0620000000
 6	16.9150000000	16.1190000000	8.7620000000
 8	16.8330000000	14.8890000000	8.8220000000
 7	16.5340000000	16.7740000000	7.6250000000
 1	16.4330000000	17.8020000000	7.6340000000
 6	16.0350000000	16.1110000000	6.4260000000
 1	16.5090000000	15.1130000000	6.4730000000
 1	18.3280000000	17.1260000000	10.0180000000
 1	17.1170000000	16.2630000000	10.9010000000
 1	14.9680000000	16.0300000000	6.4480000000
 1	16.2650000000	16.6430000000	5.5260000000
$end
$rem
EDA2		1
METHOD		WB97X-V
BASIS		DEF2-TZVPD
XC_GRID		000099000590
NL_GRID		1
UNRESTRICTED		FALSE
MAX_SCF_CYCLES		200
SYMMETRY		FALSE
SYM_IGNORE		TRUE
BASIS_LIN_DEP_THRESH		6
THRESH		14
SCF_CONVERGENCE		8
SCF_PRINT_FRGM		TRUE
!required keywords
JOBTYPE		SP
SYM_IGNORE		TRUE
SUBSYSTEM		TRUE
GEN_SCFMAN		TRUE
CHILD_INSTRUCTION		2
SYM_IGNORE		TRUE
SCFMI		0
RI_K 0		
PARI_K 0		
MIN_PARI_K 0		
IARI_K 0		
OCC_RI_K 0		
PURECART		1111
MEM_STATIC		2000
MEM_TOTAL		2000
GUI		0
CHILD_MP		1
CHILD_MP_ORDERS		232
FRZ_RELAX		0
FRZ_RELAX_METHOD		0
EDA_CLS_ELEC		1
EDA_CLS_DISP		0
FRZ_ORTHO_DECOMP		1
EDA2		FALSE
FRGM_METHOD		FALSE
CIS_N_ROOTS  0
LOCAL_CIS    0
CIS_RLX_DNS  1
$end
--------------------------------------------------------------
 ----------------------------------------------------------------
             Standard Nuclear Orientation (Angstroms)
    I     Atom           X                Y                Z
 ----------------------------------------------------------------
    1      C      17.2900000000    16.8680000000    10.0350000000
    2      H      16.6740000000    17.7800000000    10.0620000000
    3      C      16.9150000000    16.1190000000     8.7620000000
    4      O      16.8330000000    14.8890000000     8.8220000000
    5      N      16.5340000000    16.7740000000     7.6250000000
    6      H      16.4330000000    17.8020000000     7.6340000000
    7      C      16.0350000000    16.1110000000     6.4260000000
    8      H      16.5090000000    15.1130000000     6.4730000000
    9      H      18.3280000000    17.1260000000    10.0180000000
   10      H      17.1170000000    16.2630000000    10.9010000000
   11      H      14.9680000000    16.0300000000     6.4480000000
   12      H      16.2650000000    16.6430000000     5.5260000000
 ----------------------------------------------------------------
 Nuclear Repulsion Energy =         179.38329058 hartrees
 There are       20 alpha and       20 beta electrons
 Requested basis set is def2-TZVPD
 There are 101 shells and 251 basis functions

 Total QAlloc Memory Limit   2000 MB
 Mega-Array Size      1956 MB
 MEM_STATIC part      2000 MB

                       Distance Matrix (Angstroms)
             C (  1)   H (  2)   C (  3)   O (  4)   N (  5)   H (  6)
   H (  2)  1.100876
   C (  3)  1.523862  2.122970
   O (  4)  2.365726  3.149724  1.234190
   N (  5)  2.527543  2.640190  1.366366  2.252873
   H (  6)  2.715070  2.440031  2.082594  3.171264  1.032989
   C (  7)  3.895248  4.051466  2.496269  2.805513  1.458140  2.115927
   H (  8)  4.046953  4.474487  2.533060  2.381796  2.021546  2.929918
   H (  9)  1.069718  1.779148  2.141998  2.944420  3.011443  3.119528
   H ( 10)  1.070472  1.789262  2.153337  2.508141  3.366480  3.675550
   H ( 11)  4.354365  4.362789  3.025446  3.227380  2.095524  2.587046
   H ( 12)  4.629507  4.694182  3.341971  3.776606  2.120218  2.411466
             C (  7)   H (  8)   H (  9)   H ( 10)   H ( 11)
   H (  8)  1.105843
   H (  9)  4.380701  4.464074
   H ( 10)  4.606458  4.615122  1.729445
   H ( 11)  1.070296  1.793375  5.023516  4.949919
   H ( 12)  1.070478  1.815832  4.966621  5.455358  1.705304

 A cutoff of  1.0D-14 yielded   5018 shell pairs
 There are     31592 function pairs (     39740 Cartesian)
 Smallest overlap matrix eigenvalue = 8.07E-06

 Scale SEOQF with 1.000000e-03/1.000000e-03/1.000000e-02

 Standard Electronic Orientation quadrupole field applied
 Nucleus-field energy     =    -0.0000000189 hartrees
 Guess from superposition of atomic densities
 Warning:  Energy on first SCF cycle will be non-variational
 SAD guess density has 40.000000 electrons

 -----------------------------------------------------------------------
  General SCF calculation program by
  Eric Jon Sundstrom, Paul Horn, Yuezhi Mao, Dmitri Zuev, Alec White,
  David Stuck, Shaama M.S., Shane Yost, Joonho Lee, David Small,
  Daniel Levine, Susi Lehtola, Hugh Burton, Evgeny Epifanovsky,
  Bang C. Huynh
 -----------------------------------------------------------------------
 Exchange:     0.1670 Hartree-Fock + 1.0000 wB97X-V + LR-HF
 Correlation:  1.0000 wB97X-V
 Using Euler-Maclaurin-Lebedev (99,590) quadrature formula
 Nonlocal Correlation:  VV10 with C = 0.0100 and b = 6.00 and scale = 1.00000
 Grid used for NLC:  SG-1 standard quadrature
Energy prior to optimization (guess energy) = -248.415007917275
Begin Timing: Total SCF Calculation
begin iterations for algorithm: DIIS         
the SCF tolerance is set to 1.00e-08
    1    -248.4150079173      4.29e-03     00000 
    2    -248.3447846544      5.96e-03     00000 
    3    -248.5362703932      5.10e-04     00000 
    4    -248.5378499514      2.31e-04     00000 
    5    -248.5382077107      5.65e-05     00000 
    6    -248.5382367531      2.02e-05     00000 
    7    -248.5382421255      5.61e-06     00000 
    8    -248.5382428289      1.70e-06     00000 
    9    -248.5382428794      6.27e-07     00000 
   10    -248.5382428842      1.32e-07     00000 
   11    -248.5382428846      3.04e-08     00000 
   12    -248.5382428846      1.29e-08     00000 
   13    -248.5382428846      4.98e-09     00000 Convergence criterion met
Timing for Total SCF: 269.00s (wall), 1591.57s (cpu)
Multipole orders to be included
        2
        3
computing dipole RHS
computing quadrupole RHS
total number of RHS in solve_reponses: 8
RHS batch sizes
        8
Beginning Block Conjugate Gradient Iterations. Batch Number: 0
computing hessian-vector products by finite difference
              1      5.17e-01     00000 Conjugate Gradient Iteration
computing hessian-vector products by finite difference
              2      1.70e-01     00000 Conjugate Gradient Iteration
computing hessian-vector products by finite difference
              3      4.07e-02     00000 Conjugate Gradient Iteration
computing hessian-vector products by finite difference
              4      9.44e-03     00000 Conjugate Gradient Iteration
computing hessian-vector products by finite difference
              5      1.85e-03     00000 Conjugate Gradient Iteration
computing hessian-vector products by finite difference
              6      3.72e-04     00000 Conjugate Gradient Iteration
computing hessian-vector products by finite difference
              7      6.36e-05     00000 Conjugate Gradient Iteration
computing hessian-vector products by finite difference
              8      9.00e-06     00000 Conjugate Gradient Iteration
computing hessian-vector products by finite difference
              9      1.36e-06     00000 Conjugate Gradient Iteration
computing hessian-vector products by finite difference
             10      2.87e-07     00000 Conjugate Gradient Iteration
computing hessian-vector products by finite difference
             11      8.69e-08     00000 Conjugate Gradient Iteration
computing hessian-vector products by finite difference
             12      1.57e-08     00000 Conjugate Gradient Iteration
computing hessian-vector products by finite difference
             13      2.80e-09     00000 CG Converged
batch 0 complete
Done Calculating Responses
TESTING ORTHOGONALIZATION OF MULTIPOLE BASIS
Multipole virts passed orthogonality test
Virts Per Order
           60
          100

 --------------------------------------------------------------

                    Orbital Energies (a.u.)
 --------------------------------------------------------------

 Alpha MOs
 -- Occupied --
-19.1657 -14.4396 -10.3719 -10.2972 -10.2730  -1.1576  -1.0458  -0.8839
 -0.8214  -0.6981  -0.6236  -0.5785  -0.5737  -0.5391  -0.5178  -0.5134
 -0.4882  -0.4618  -0.3583  -0.3501
 -- Virtual --
  0.0555   0.0776   0.0931   0.1052   0.1091   0.1217   0.1355   0.1402
  0.1545   0.1589   0.1660   0.1772   0.1874   0.2065   0.2150   0.2256
  0.2360   0.2427   0.2535   0.2663   0.2720   0.2759   0.2843   0.2987
  0.3013   0.3116   0.3187   0.3393   0.3472   0.3512   0.3531   0.3571
  0.3628   0.3667   0.3754   0.3849   0.3921   0.4024   0.4088   0.4143
  0.4311   0.4413   0.4516   0.4564   0.4668   0.4775   0.4817   0.4822
  0.4891   0.4957   0.5056   0.5172   0.5226   0.5339   0.5477   0.5507
  0.5590   0.5937   0.5951   0.6149   0.6233   0.6423   0.6462   0.6665
  0.6895   0.6929   0.6997   0.7107   0.7225   0.7353   0.7445   0.7679
  0.7733   0.7865   0.7939   0.8039   0.8186   0.8237   0.8274   0.8441
  0.8565   0.8638   0.8765   0.9045   0.9369   0.9538   0.9753   1.0158
  1.0183   1.0329   1.0637   1.0819   1.1000   1.1446   1.1926   1.2078
  1.2195   1.2384   1.2553   1.2843   1.3171   1.3295   1.3469   1.3719
  1.3889   1.4479   1.5010   1.5409   1.6029   1.6673   1.7344   1.7384
  1.7619   1.8184   1.8366   1.8539   1.8859   1.9032   1.9103   1.9198
  1.9333   1.9678   1.9990   2.0223   2.0351   2.0449   2.0874   2.1069
  2.1486   2.1835   2.2351   2.2671   2.2784   2.3106   2.3297   2.3609
  2.4101   2.4405   2.4776   2.4909   2.5024   2.5436   2.5604   2.5788
  2.6048   2.6275   2.6630   2.7176   2.7290   2.7760   2.8036   2.8356
  2.8611   2.8897   2.9008   2.9445   2.9525   3.0154   3.0318   3.1219
  3.1786   3.1951   3.2155   3.2529   3.2578   3.2831   3.3252   3.3347
  3.3479   3.3744   3.3889   3.4042   3.4376   3.4679   3.4775   3.5547
  3.5796   3.5996   3.6202   3.6252   3.6316   3.6513   3.6989   3.7679
  3.8006   3.8276   3.9207   3.9803   4.0318   4.0393   4.1103   4.1823
  4.2395   4.3173   4.4081   4.4513   4.5142   4.6189   4.6774   4.6896
  4.7292   4.8126   4.9278   4.9814   5.0126   5.1892   5.2283   5.2554
  5.3281   5.4006   5.4355   5.4952   5.5712   5.6287   5.7172   5.7681
  5.9558   6.0987   6.2565   6.5153   6.6815   6.7400   6.8183   7.0081
  7.2596   7.3475  22.6139  22.6616  23.4937  32.6682  44.3216
 --------------------------------------------------------------

          Ground-State Mulliken Net Atomic Charges

     Atom                 Charge (a.u.)
  ----------------------------------------
      1 C                    -0.692834
      2 H                     0.212010
      3 C                     0.470305
      4 O                    -0.535320
      5 N                    -0.084780
      6 H                     0.194239
      7 C                    -0.657089
      8 H                     0.262510
      9 H                     0.192076
     10 H                     0.192730
     11 H                     0.219811
     12 H                     0.226342
  ----------------------------------------
  Sum of atomic charges =     0.000000

 -----------------------------------------------------------------
                    Cartesian Multipole Moments
 -----------------------------------------------------------------
    Charge (ESU x 10^10)
                -0.0000
    Dipole Moment (Debye)
         X      -0.3867      Y       3.7784      Z      -1.0043
       Tot       3.9286
    Quadrupole Moments (Debye-Ang)
        XX     -43.7021     XY      56.7643     YY      88.8311
        XZ     -18.2000     YZ      16.4870     ZZ     -43.9933
    Octopole Moments (Debye-Ang^2)
       XXX   -1866.0057    XXY     343.3837    XYY    1377.7045
       YYY    1352.2181    XXZ    -583.2619    XYZ     252.7270
       YYZ     513.7506    XZZ    -733.0239    YZZ    -428.1082
       ZZZ    -890.2837
    Hexadecapole Moments (Debye-Ang^3)
      XXXX  -58804.5449   XXXY  -12696.2832   XXYY   13119.4697
      XYYY   20776.4368   YYYY   11853.7855   XXXZ  -18726.6286
      XXYZ    -298.8952   XYYZ    8184.2672   YYYZ    7787.2091
      XXZZ  -14410.7370   XYZZ   -7111.4442   YYZZ   -4815.7018
      XZZZ  -14805.7865   YZZZ  -11964.7063   ZZZZ  -14031.8682
 -----------------------------------------------------------------
Archival summary:
1\1\compute-0-8.local\SP\ProcedureUnspecified\BasisUnspecified\1137\meili\MonMay1012:03:482021MonMay1012:03:482021\0\\#,ProcedureUnspecified,BasisUnspecified,\\0,1\C\O,1,1.23419\N,1,1.36637,2,119.978\H,3,1.03299,1,119.806,2,168.487,0\C,3,1.45814,1,124.174,2,-0.813204,0\H,5,1.0703,3,111.019,1,91.7164,0\H,5,1.07048,3,113.069,1,-149.796,0\H,5,1.10584,3,103.221,1,-27.2559,0\C,1,1.52386,2,117.748,3,172.938,0\H,9,1.06972,1,110.124,2,100.079,0\H,9,1.07047,1,110.993,2,-19.2393,0\H,9,1.10088,1,106.857,2,-140.361,0\\\@

 Total job time:  5027.65s(wall), 30346.89s(cpu) 
 Mon May 10 12:03:48 2021

        *************************************************************
        *                                                           *
        *  Thank you very much for using Q-Chem.  Have a nice day.  *
        *                                                           *
        *************************************************************


Done Job For Fragment 1
calling putenv with: QCSCRATCH=/home/meili/scratch 
calling putenv with: QCTHREADS=8 
Doing General SCFMI
 Exchange:     0.1670 Hartree-Fock + 1.0000 wB97X-V + LR-HF
 Correlation:  1.0000 wB97X-V
 Using Euler-Maclaurin-Lebedev (99,590) quadrature formula
 Nonlocal Correlation:  VV10 with C = 0.0100 and b = 6.00 and scale = 1.00000
 Grid used for NLC:  SG-1 standard quadrature
performing fock build before subrot guess so that all methods have access
Printing subrot_rss_gen Method Specification:
Occupied Subspace Method is 0
Virtual Subspace Method is 0
Energy of the unrelaxed supersystem initial determinant -497.069605409359
write pseudocanon occs and virts to disk
write pseudocanon orbital energies to disk
Tolerance of ortho_decomp_scf: 1.00e-06
GDM subspace size: 20
Beginning the Orthogonal Decomposition of the Initial Supersystem Wavefunction
    1    -497.0660340112      5.35e-03     ortho_decomp Preconditoned Steepest Descent
    2    -497.0661321372      1.36e-04     ortho_decomp BFGS Step
    3    -497.0661323808      6.02e-06     ortho_decomp BFGS Step
    4    -497.0661323810      2.18e-07     ortho_decomp 00000 Convergence criterion met
 Hartree-Fock
 Hartree-Fock
 Hartree-Fock
Doing General SCFMI
 Exchange:     0.1670 Hartree-Fock + 1.0000 wB97X-V + LR-HF
 Correlation:  1.0000 wB97X-V
 Using Euler-Maclaurin-Lebedev (99,590) quadrature formula
 Nonlocal Correlation:  VV10 with C = 0.0100 and b = 6.00 and scale = 1.00000
 Grid used for NLC:  SG-1 standard quadrature
performing fock build at end of subrot_r(subrot) constructor so that all methods have access
<S^2> of initial wavefunction before polarization iterations 0.0000000000
Beginning iterations for the determination of the polarized wavefunction
Energy prior to optimization (guess energy) = -497.069605409359
Begin Timing: Total SCF Calculation
begin iterations for algorithm: DIIS         
the SCF tolerance is set to 1.00e-08
    1    -497.0696054094      5.62e-05     00000 
    2    -497.0698389541      2.28e-05     00000 
    3    -497.0698603222      8.88e-06     00000 
    4    -497.0698640926      5.12e-06     00000 
    5    -497.0698649065      1.68e-06     00000 
    6    -497.0698650214      7.06e-07     00000 
    7    -497.0698650428      2.10e-07     00000 
    8    -497.0698650451      5.98e-08     00000 
    9    -497.0698650453      1.90e-08     00000 
   10    -497.0698650454      5.27e-09     00000 Convergence criterion met
write pseudocanon occs and virts to disk
write pseudocanon orbital energies to disk
Timing for Total SCF: 1306.00s (wall), 8282.15s (cpu)
<S^2> of polarized wavefunction after polarization iterations 0.0000000000
relaxing scfmi constraint to allow all rotations in the entire AO span
Doing General SCFMI
 Exchange:     0.1670 Hartree-Fock + 1.0000 wB97X-V + LR-HF
 Correlation:  1.0000 wB97X-V
 Using Euler-Maclaurin-Lebedev (99,590) quadrature formula
 Nonlocal Correlation:  VV10 with C = 0.0100 and b = 6.00 and scale = 1.00000
 Grid used for NLC:  SG-1 standard quadrature
performing fock build at end of subrot_r(subrot) constructor so that all methods have access
<S^2> of polarized wavefunction before ct-allowed iterations 0.0000000000
Beginning iterations for the determination of the CT-Allowed wavefunction
Energy prior to optimization (guess energy) = -497.069865045370
Begin Timing: Total SCF Calculation
begin iterations for algorithm: DIIS         
the SCF tolerance is set to 1.00e-08
    1    -497.0698650454      4.78e-05     00000 
    2    -497.0700391472      3.28e-06     00000 
    3    -497.0700428520      5.63e-07     00000 
    4    -497.0700429802      3.59e-07     00000 
    5    -497.0700429939      9.11e-08     00000 
    6    -497.0700429956      5.41e-08     00000 
    7    -497.0700429959      1.06e-08     00000 
    8    -497.0700429960      4.44e-09     00000 Convergence criterion met
write pseudocanon occs and virts to disk
write pseudocanon orbital energies to disk
Timing for Total SCF: 937.00s (wall), 6314.77s (cpu)
<S^2> of ct_allowed wavefunction after ct-allowed iterations 0.0000000000

================================
        Results of EDA2         
================================
Basic EDA Quantities
--------------------
Fragment Energies (Ha):
1 -248.5292382747
2 -248.5382428846
--------------------
  E_prp (kJ/mol) = 0.0000
  E_frz (kJ/mol) = -5.5773
  E_pol (kJ/mol) = -0.6817
  E_vct (kJ/mol) = -0.4672
  E_int (kJ/mol) = -6.7262
--------------------


Initial Wavefunction Decomposition
--------------------
  --------------------
  Orthogonal Fragment Subspace Decomposition:
  --------------------
     E_elec   (ELEC)   (kJ/mol) = -3.1365
     E_pauli  (PAULI)  (kJ/mol) = 2.5395
     E_disp   (DISP)   (kJ/mol) = -4.9803
     --------------------
     Terms summing to E_pauli:
     --------------------
        E_kep_pauli       (kJ/mol) = 3.5413
        E_disp_free_pauli (kJ/mol) = -1.0018
  --------------------
  Classical Frozen Decomposition:
  --------------------
     E_cls_elec  (CLS ELEC)  (kJ/mol) = -1.6662
     E_cls_pauli (CLS PAULI) (kJ/mol) = -3.9111
    [E_mod_pauli (MOD PAULI) (kJ/mol) = 1.0691 (CLS PAULI - DISP from orthogonal decomposition) ]
  --------------------
--------------------

Simplified EDA Summary (kJ/mol)
--------------------
 PREPARATION     0.0000
 FROZEN          -0.5970      (does not include dispersion)
[PAULI           2.5395]     (if this is negligible, then frozen describes electrostatics)
 DISPERSION      -4.9803
 POLARIZATION    -0.6817
 CHARGE TRANSFER -0.4672
 TOTAL           -6.7262     (PRP + FRZ + DISP + POL + CT)
--------------------

 --------------------------------------------------------------

                    Orbital Energies (a.u.)
 --------------------------------------------------------------

 Alpha MOs
 -- Occupied --
-19.1757 -19.1567 -14.4489 -14.4436 -10.3818 -10.3663 -10.3102 -10.3038
-10.2837 -10.2726  -1.1676  -1.1484  -1.0549  -1.0507  -0.8938  -0.8901
 -0.8319  -0.8296  -0.7071  -0.7025  -0.6325  -0.6277  -0.5893  -0.5858
 -0.5831  -0.5711  -0.5525  -0.5477  -0.5271  -0.5226  -0.5171  -0.5081
 -0.4968  -0.4858  -0.4715  -0.4638  -0.3678  -0.3598  -0.3574  -0.3436
 -- Virtual --
  0.0391   0.0636   0.0667   0.0750   0.0861   0.0916   0.0987   0.1042
  0.1077   0.1130   0.1196   0.1213   0.1305   0.1315   0.1365   0.1490
  0.1514   0.1557   0.1565   0.1663   0.1710   0.1798   0.1824   0.1901
  0.1929   0.2036   0.2117   0.2133   0.2185   0.2235   0.2251   0.2299
  0.2350   0.2440   0.2496   0.2538   0.2563   0.2609   0.2638   0.2703
  0.2733   0.2814   0.2905   0.2943   0.2988   0.3011   0.3049   0.3118
  0.3203   0.3233   0.3274   0.3325   0.3358   0.3381   0.3412   0.3468
  0.3512   0.3526   0.3571   0.3594   0.3616   0.3675   0.3690   0.3695
  0.3762   0.3799   0.3852   0.3880   0.3918   0.3967   0.4025   0.4080
  0.4152   0.4172   0.4202   0.4247   0.4269   0.4331   0.4390   0.4407
  0.4496   0.4526   0.4589   0.4620   0.4670   0.4724   0.4754   0.4806
  0.4864   0.4891   0.4911   0.4945   0.5004   0.5040   0.5106   0.5156
  0.5169   0.5280   0.5297   0.5354   0.5375   0.5384   0.5441   0.5494
  0.5578   0.5595   0.5650   0.5721   0.5780   0.5816   0.5872   0.5972
  0.6033   0.6125   0.6156   0.6209   0.6290   0.6312   0.6410   0.6470
  0.6503   0.6649   0.6750   0.6820   0.6829   0.6938   0.6972   0.7060
  0.7099   0.7171   0.7246   0.7276   0.7352   0.7375   0.7411   0.7524
  0.7551   0.7608   0.7656   0.7729   0.7769   0.7831   0.7876   0.7914
  0.7979   0.8022   0.8034   0.8105   0.8124   0.8216   0.8279   0.8291
  0.8389   0.8486   0.8511   0.8575   0.8685   0.8707   0.8774   0.8834
  0.8866   0.8909   0.9097   0.9168   0.9352   0.9465   0.9503   0.9574
  0.9706   0.9793   0.9838   0.9977   1.0060   1.0145   1.0351   1.0474
  1.0614   1.0627   1.0786   1.0936   1.1005   1.1209   1.1326   1.1341
  1.1377   1.1557   1.1749   1.1874   1.2006   1.2166   1.2248   1.2293
  1.2397   1.2455   1.2531   1.2606   1.2818   1.2945   1.3032   1.3083
  1.3390   1.3439   1.3538   1.3629   1.3700   1.3796   1.4010   1.4192
  1.4310   1.4372   1.4765   1.4824   1.5181   1.5548   1.5562   1.5767
  1.6136   1.6359   1.6717   1.6761   1.7265   1.7479   1.7610   1.7691
  1.7823   1.8132   1.8377   1.8575   1.8596   1.8706   1.8723   1.8759
  1.8960   1.9011   1.9109   1.9193   1.9296   1.9355   1.9374   1.9465
  1.9568   1.9631   1.9724   1.9871   1.9989   2.0232   2.0260   2.0348
  2.0470   2.0628   2.0684   2.0743   2.0943   2.1004   2.1324   2.1451
  2.1543   2.1566   2.2117   2.2138   2.2443   2.2480   2.2698   2.2807
  2.3036   2.3159   2.3235   2.3346   2.3441   2.3502   2.3757   2.3988
  2.4136   2.4189   2.4554   2.4629   2.4740   2.4780   2.4953   2.5084
  2.5187   2.5425   2.5644   2.5730   2.5783   2.5848   2.6017   2.6099
  2.6193   2.6218   2.6462   2.6576   2.6666   2.6786   2.7149   2.7617
  2.7649   2.7801   2.7835   2.7851   2.8270   2.8343   2.8514   2.8645
  2.8749   2.8892   2.8925   2.9075   2.9179   2.9244   2.9482   2.9601
  2.9683   2.9960   3.0283   3.0392   3.0635   3.0745   3.1162   3.1248
  3.1878   3.1945   3.1979   3.2134   3.2245   3.2303   3.2563   3.2755
  3.2832   3.2890   3.2931   3.3029   3.3303   3.3437   3.3455   3.3485
  3.3648   3.3756   3.3835   3.3853   3.3891   3.4052   3.4124   3.4346
  3.4591   3.4632   3.4697   3.4743   3.4807   3.4821   3.5560   3.5637
  3.5820   3.5905   3.5999   3.6053   3.6195   3.6268   3.6363   3.6520
  3.6622   3.6670   3.6776   3.6902   3.7051   3.7240   3.7694   3.7790
  3.8048   3.8055   3.8320   3.8788   3.9092   3.9226   3.9514   3.9809
  4.0251   4.0403   4.0673   4.0952   4.1153   4.1596   4.1836   4.1951
  4.2370   4.2567   4.3208   4.3396   4.4089   4.4131   4.4567   4.4826
  4.5310   4.5446   4.5867   4.6197   4.6880   4.6915   4.7032   4.7179
  4.7396   4.7955   4.8128   4.8580   4.9316   4.9460   4.9629   4.9879
  5.0197   5.0354   5.1883   5.1987   5.2311   5.2417   5.2586   5.2741
  5.3237   5.3344   5.3965   5.4239   5.4442   5.4533   5.4982   5.5002
  5.5668   5.6118   5.6247   5.6783   5.7154   5.7613   5.7651   5.7817
  5.9532   5.9729   6.1022   6.1231   6.2218   6.2540   6.4955   6.5096
  6.6766   6.6836   6.7314   6.7626   6.8154   6.8431   7.0113   7.0141
  7.2530   7.2735   7.3404   7.3515  22.5985  22.6271  22.6771  22.7184
 23.4949  23.5980  32.6932  32.7537  44.3728  44.3852
 --------------------------------------------------------------

          Ground-State Mulliken Net Atomic Charges

     Atom                 Charge (a.u.)
  ----------------------------------------
      1 C                    -0.417282
      2 H                    -0.035855
      3 C                     0.512133
      4 O                    -0.584722
      5 N                    -0.015663
      6 H                     0.093675
      7 C                    -0.704998
      8 H                     0.265554
      9 H                     0.171069
     10 H                     0.222155
     11 H                     0.236240
     12 H                     0.251855
     13 C                    -0.693817
     14 H                     0.185759
     15 C                     0.474166
     16 O                    -0.547980
     17 N                    -0.074869
     18 H                     0.202287
     19 C                    -0.672726
     20 H                     0.255539
     21 H                     0.241858
     22 H                     0.165946
     23 H                     0.217397
     24 H                     0.252280
  ----------------------------------------
  Sum of atomic charges =     0.000000

 -----------------------------------------------------------------
                    Cartesian Multipole Moments
 -----------------------------------------------------------------
    Charge (ESU x 10^10)
                 0.0000
    Dipole Moment (Debye)
         X       3.3095      Y       2.3584      Z       0.9941
       Tot       4.1837
    Quadrupole Moments (Debye-Ang)
        XX      11.8175     XY     104.6059     YY      13.3945
        XZ      38.3978     YZ      35.5051     ZZ     -36.1767
    Octopole Moments (Debye-Ang^2)
       XXX   -1433.7289    XXY    1125.9241    XYY    1614.7633
       YYY   -1264.1156    XXZ     169.2743    XYZ    1055.2896
       YYZ     322.7896    XZZ    -345.3005    YZZ    -452.7494
       ZZZ   -1221.8389
    Hexadecapole Moments (Debye-Ang^3)
      XXXX  -60582.6130   XXXY   -7168.2610   XXYY   19799.4514
      XYYY    9510.6866   YYYY  -63452.5947   XXXZ  -12353.7251
      XXYZ   10789.6578   XYYZ   16038.6870   YYYZ   -8554.1633
      XXZZ   -9319.3624   XYZZ   -2230.1688   YYZZ  -10474.4756
      XZZZ  -16075.9144   YZZZ  -19184.3345   ZZZZ  -24136.2193
 -----------------------------------------------------------------
Archival summary:
1\1\compute-0-8.local\SP\ProcedureUnspecified\BasisUnspecified\22614\meili\MonMay1013:10:022021MonMay1013:10:022021\0\\#,ProcedureUnspecified,BasisUnspecified,\\0,1\N\H,1,1.0107\C,1,1.30373,2,114.462\O,3,1.25924,1,121.61,2,177.572,0\C,1,1.49905,2,118.699,3,-173.364,0\H,5,1.06946,1,108.975,2,73.6004,0\H,5,1.06977,1,108.265,2,-47.0332,0\H,5,1.12838,1,111.483,2,-166.08,0\C,3,1.54057,1,119,2,-6.1948,0\H,9,1.06014,3,99.2895,1,55.7889,0\H,9,1.06989,3,111.943,1,174.1,0\H,9,1.06992,3,115.34,1,-68.0226,0\H,10,3.01603,9,152.437,3,-162.194,0\N,13,1.03299,10,99.8356,9,156.414,0\C,14,1.36637,13,119.806,10,-86.9018,0\O,15,1.23419,14,119.978,13,168.487,0\C,14,1.45814,13,115.226,10,83.322,0\H,17,1.0703,14,111.019,13,-78.0254,0\H,17,1.07048,14,113.069,13,40.462,0\H,17,1.10584,14,103.221,13,163.002,0\C,15,1.52386,14,121.88,13,-4.15146,0\H,21,1.06972,15,110.124,14,-87.1257,0\H,21,1.07047,15,110.993,14,153.556,0\H,21,1.10088,15,106.857,14,32.4345,0\\\@

 Total job time:  14448.66s(wall), 25588.29s(cpu) 
 Mon May 10 13:10:02 2021

        *************************************************************
        *                                                           *
        *  Thank you very much for using Q-Chem.  Have a nice day.  *
        *                                                           *
        *************************************************************


