                  Welcome to Q-Chem
     A Quantum Leap Into The Future Of Chemistry


 Q-Chem 5.2 (devel), Q-Chem, Inc., Pleasanton, CA (2019)

 Yihan Shao,  Zhengting Gan,  E. Epifanovsky,  A. T. B. Gilbert,  M. Wormit,  
 J. Kussmann,  A. W. Lange,  A. Behn,  Jia Deng,  Xintian Feng,  D. Ghosh,  
 M. Goldey,  P. R. Horn,  L. D. Jacobson,  I. Kaliman,  T. Kus,  A. Landau,  
 Jie Liu,  E. I. Proynov,  R. M. Richard,  R. P. Steele,  E. J. Sundstrom,  
 H. L. Woodcock III,  P. M. Zimmerman,  D. Zuev,  B. Albrecht,  E. Alguire,  
 S. A. Baeppler,  D. Barton,  Z. Benda,  Y. A. Bernard,  E. J. Berquist,  
 K. B. Bravaya,  H. Burton,  D. Casanova,  Chun-Min Chang,  Yunqing Chen,  
 A. Chien,  K. D. Closser,  M. P. Coons,  S. Coriani,  S. Dasgupta,  
 A. L. Dempwolff,  M. Diedenhofen,  Hainam Do,  R. G. Edgar,  Po-Tung Fang,  
 S. Faraji,  S. Fatehi,  Qingguo Feng,  K. D. Fenk,  J. Fosso-Tande,  
 J. Gayvert,  Qinghui Ge,  A. Ghysels,  G. Gidofalvi,  J. Gomes,  
 J. Gonthier,  A. Gunina,  D. Hait,  M. W. D. Hanson-Heine,  
 P. H. P. Harbach,  A. W. Hauser,  M. F. Herbst,  J. E. Herr,  
 E. G. Hohenstein,  Z. C. Holden,  Kerwin Hui,  B. C. Huynh,  T.-C. Jagau,  
 Hyunjun Ji,  B. Kaduk,  K. Khistyaev,  Jaehoon Kim,  P. Klunzinger,  K. Koh,  
 D. Kosenkov,  L. Koulias,  T. Kowalczyk,  C. M. Krauter,  A. Kunitsa,  
 Ka Un Lao,  A. Laurent,  K. V. Lawler,  Joonho Lee,  D. Lefrancois,  
 S. Lehtola,  D. S. Levine,  Yi-Pei Li,  You-Sheng Lin,  Fenglai Liu,  
 E. Livshits,  A. Luenser,  P. Manohar,  E. Mansoor,  S. F. Manzer,  
 Shan-Ping Mao,  Yuezhi Mao,  N. Mardirossian,  A. V. Marenich,  
 T. Markovich,  L. A. Martinez-Martinez,  S. A. Maurer,  N. J. Mayhall,  
 S. C. McKenzie,  J.-M. Mewes,  P. Morgante,  A. F. Morrison,  
 J. W. Mullinax,  K. Nanda,  T. S. Nguyen-Beck,  R. Olivares-Amaya,  
 J. A. Parkhill,  Zheng Pei,  T. M. Perrine,  F. Plasser,  P. Pokhilko,  
 S. Prager,  A. Prociuk,  E. Ramos,  D. R. Rehn,  F. Rob,  M. Scheurer,  
 M. Schneider,  N. Sergueev,  S. M. Sharada,  S. Sharma,  D. W. Small,  
 T. Stauch,  T. Stein,  Yu-Chuan Su,  A. J. W. Thom,  A. Tkatchenko,  
 T. Tsuchimochi,  N. M. Tubman,  L. Vogt,  M. L. Vidal,  O. Vydrov,  
 M. A. Watson,  J. Wenzel,  M. de Wergifosse,  T. A. Wesolowski,  A. White,  
 J. Witte,  A. Yamada,  Jun Yang,  K. Yao,  S. Yeganeh,  S. R. Yost,  
 Zhi-Qiang You,  A. Zech,  Igor Ying Zhang,  Xing Zhang,  Yan Zhao,  
 Ying Zhu,  B. R. Brooks,  G. K. L. Chan,  C. J. Cramer,  M. S. Gordon,  
 W. J. Hehre,  A. Klamt,  M. W. Schmidt,  C. D. Sherrill,  D. G. Truhlar,  
 A. Aspuru-Guzik,  R. Baer,  A. T. Bell,  N. A. Besley,  Jeng-Da Chai,  
 A. E. DePrince, III,  R. A. DiStasio Jr.,  A. Dreuw,  B. D. Dunietz,  
 T. R. Furlani,  Chao-Ping Hsu,  Yousung Jung,  Jing Kong,  D. S. Lambrecht,  
 WanZhen Liang,  C. Ochsenfeld,  V. A. Rassolov,  L. V. Slipchenko,  
 J. E. Subotnik,  T. Van Voorhis,  J. M. Herbert,  A. I. Krylov,  
 P. M. W. Gill,  M. Head-Gordon

 Contributors to earlier versions of Q-Chem not listed above: 
 R. D. Adamson,  B. Austin,  J. Baker,  G. J. O. Beran,  K. Brandhorst,  
 S. T. Brown,  E. F. C. Byrd,  A. K. Chakraborty,  C.-L. Cheng,  
 Siu Hung Chien,  D. M. Chipman,  D. L. Crittenden,  H. Dachsel,  
 R. J. Doerksen,  A. D. Dutoi,  L. Fusti-Molnar,  W. A. Goddard III,  
 A. Golubeva-Zadorozhnaya,  S. R. Gwaltney,  G. Hawkins,  A. Heyden,  
 S. Hirata,  G. Kedziora,  F. J. Keil,  C. Kelley,  Jihan Kim,  R. A. King,  
 R. Z. Khaliullin,  P. P. Korambath,  W. Kurlancheek,  A. M. Lee,  M. S. Lee,  
 S. V. Levchenko,  Ching Yeh Lin,  D. Liotard,  R. C. Lochan,  I. Lotan,  
 P. E. Maslen,  N. Nair,  D. P. O'Neill,  D. Neuhauser,  E. Neuscamman,  
 C. M. Oana,  R. Olson,  B. Peters,  R. Peverati,  P. A. Pieniazek,  
 Y. M. Rhee,  J. Ritchie,  M. A. Rohrdanz,  E. Rosta,  N. J. Russ,  
 H. F. Schaefer III,  N. E. Schultz,  N. Shenvi,  A. C. Simmonett,  A. Sodt,  
 D. Stuck,  K. S. Thanthiriwatte,  V. Vanovschi,  Tao Wang,  A. Warshel,  
 C. F. Williams,  Q. Wu,  X. Xu,  W. Zhang

 Please cite Q-Chem as follows:
 Y. Shao et al., Mol. Phys. 113, 184-215 (2015)
 DOI: 10.1080/00268976.2014.952696

 Q-Chem 5.2.1 for Intel X86 EM64T Linux

 Parts of Q-Chem use Armadillo 8.300.2 (Tropical Shenanigans).
 http://arma.sourceforge.net/

 Q-Chem begins on Mon May 10 09:09:13 2021  

compute-0-7.local
Host: 0

     Scratch files written to /home/meili/scratch/qchem56292//
NAlpha2: 80
NElect   80
Mult     1

 Q-Chem warning in module libgen/rem_setup.C, line 2813:

 Neither GIA nor STOLL is specified by user. Use STOLL as the default


Checking the input file for inconsistencies... 	...done.

--------------------------------------------------------------
User input:
--------------------------------------------------------------
$comment
1vex_ff99sbtip3p_nvt_e8_100ns_m0480_005CYX_006LEU_033SER_034LEU.pdb
$end

$molecule
0 1
--
0 1
C    11.7640000000   28.8540000000   26.5840000000
H    12.7920000000   29.3360000000   26.4360000000
C    11.7040000000   27.5160000000   25.7950000000
O    10.6960000000   26.7680000000   25.6190000000
N    12.9210000000   27.0020000000   25.5490000000
H    13.6950000000   27.5920000000   25.7810000000
C    13.2300000000   25.6570000000   25.0600000000
H    12.6980000000   25.5140000000   24.1880000000
H    11.6060000000   28.6620000000   27.6250000000
H    11.0040000000   29.5160000000   26.2250000000
H    14.2790000000   25.5710000000   24.8660000000
H    12.9630000000   24.9210000000   25.7890000000
--
0 1
C    14.9980000000   30.7250000000   25.0800000000
H    14.0790000000   30.6860000000   25.6630000000
C    14.8290000000   29.8680000000   23.8420000000
O    15.7950000000   29.1680000000   23.4410000000
N    13.6990000000   29.8380000000   23.1250000000
H    12.8780000000   30.2410000000   23.6030000000
C    13.4460000000   29.0000000000   21.9880000000
H    13.7610000000   28.0080000000   22.3060000000
H    15.1990000000   31.7360000000   24.7930000000
H    15.8150000000   30.3590000000   25.6660000000
H    12.4050000000   29.0050000000   21.7390000000
H    13.9660000000   29.3320000000   21.1140000000
$end

$rem
JOBTYPE			EDA
EDA2			1
method			wB97X-V
BASIS			def2-TZVPD
XC_GRID			000099000590
NL_GRID			1
UNRESTRICTED		FALSE
MAX_SCF_CYCLES		200
SYMMETRY		FALSE
SYM_IGNORE		TRUE
MEM_STATIC		2000
BASIS_LIN_DEP_THRESH 	6
THRESH 			14
SCF_CONVERGENCE 	8
SCF_PRINT_FRGM 		TRUE
$end
--------------------------------------------------------------
 ----------------------------------------------------------------
             Standard Nuclear Orientation (Angstroms)
    I     Atom           X                Y                Z
 ----------------------------------------------------------------
    1      C      11.7640000000    28.8540000000    26.5840000000
    2      H      12.7920000000    29.3360000000    26.4360000000
    3      C      11.7040000000    27.5160000000    25.7950000000
    4      O      10.6960000000    26.7680000000    25.6190000000
    5      N      12.9210000000    27.0020000000    25.5490000000
    6      H      13.6950000000    27.5920000000    25.7810000000
    7      C      13.2300000000    25.6570000000    25.0600000000
    8      H      12.6980000000    25.5140000000    24.1880000000
    9      H      11.6060000000    28.6620000000    27.6250000000
   10      H      11.0040000000    29.5160000000    26.2250000000
   11      H      14.2790000000    25.5710000000    24.8660000000
   12      H      12.9630000000    24.9210000000    25.7890000000
   13      C      14.9980000000    30.7250000000    25.0800000000
   14      H      14.0790000000    30.6860000000    25.6630000000
   15      C      14.8290000000    29.8680000000    23.8420000000
   16      O      15.7950000000    29.1680000000    23.4410000000
   17      N      13.6990000000    29.8380000000    23.1250000000
   18      H      12.8780000000    30.2410000000    23.6030000000
   19      C      13.4460000000    29.0000000000    21.9880000000
   20      H      13.7610000000    28.0080000000    22.3060000000
   21      H      15.1990000000    31.7360000000    24.7930000000
   22      H      15.8150000000    30.3590000000    25.6660000000
   23      H      12.4050000000    29.0050000000    21.7390000000
   24      H      13.9660000000    29.3320000000    21.1140000000
 ----------------------------------------------------------------
 Nuclear Repulsion Energy =         543.00051037 hartrees
 There are       40 alpha and       40 beta electrons
 Requested basis set is def2-TZVPD
 There are 202 shells and 502 basis functions

 Total QAlloc Memory Limit   2000 MB
 Mega-Array Size      1956 MB
 MEM_STATIC part      2000 MB
 A cutoff of  1.0D-14 yielded  18511 shell pairs
 There are    115111 function pairs (    143672 Cartesian)
 Smallest overlap matrix eigenvalue = 4.63E-06

 Scale SEOQF with 1.000000e-02/1.000000e-03/1.000000e-03

 Standard Electronic Orientation quadrupole field applied
 Nucleus-field energy     =     0.0000000456 hartrees

 -----------------------------------------------------------------------
  General SCF calculation program by
  Eric Jon Sundstrom, Paul Horn, Yuezhi Mao, Dmitri Zuev, Alec White,
  David Stuck, Shaama M.S., Shane Yost, Joonho Lee, David Small,
  Daniel Levine, Susi Lehtola, Hugh Burton, Evgeny Epifanovsky,
  Bang C. Huynh
 -----------------------------------------------------------------------
================================================================
                 ALMO-EDA with the EDA2 driver                  
================================================================
 The second-generation ALMO-EDA (for DFT):                      
 P. R. Horn, Y. Mao and M. Head-Gordon, PCCP, 18, 23067 (2016)  
 Decomposition of the frozen energy:                            
 P. R. Horn, Y. Mao and M. Head-Gordon, JCP, 144, 114107 (2016) 
 FERF model for polarization:                                   
 P. R. Horn and M. Head-Gordon, JCP, 143, 114111 (2015)         
Using eda2 option set 1
Option set summary: Frozen orbital wavefunction, initial wavefunction decomposition, and nDQ polarization.
--------------------------------
Printing EDA Options
--------------------------------
eda_child_super_basis      0
fragmo_guess_mode          0
child_mp                   1
child_mp_orders            232
cls_elec                   1
cls_disp                   0
scfmi_mode                 1
scfmi_occs                 0
scfmi_virts                0
frz_relax                  0
frz_relax_method           0
dc_pen_start               0
dc_pen_conv                0
dc_pen_increment           0
dc_pen_steps               0
dc_pen_thresh_factor       0
dc_pen_pre_newton_thresh   0
frz_ortho_decomp           1
frz_ortho_decomp_conv      6
frgm_method                2
scfmi_freeze_ss            0
separate_rehyb             0
plot_diff_den              0
eda_nocv                   0
eda_vct_relax              1
disp_free_x                0
disp_free_c                0
eda_bsse                   0
eda_pct_a                  0
eda_covp                   0
--------------------------------
Attempting to make child job directory: /home/meili/scratch/qchem56292//Frg1/
Attempting to make child job directory: /home/meili/scratch/qchem56292//Frg2/
Creating input file /home/meili/scratch/qchem56292/Frg1.input
using default PutDataFrgm: nothing
calling putenv with: QCSCRATCH=/home/meili/scratch/qchem56292/ 
Spawning Job For Fragment 0
                  Welcome to Q-Chem
     A Quantum Leap Into The Future Of Chemistry


 Q-Chem 5.2 (devel), Q-Chem, Inc., Pleasanton, CA (2019)

 Yihan Shao,  Zhengting Gan,  E. Epifanovsky,  A. T. B. Gilbert,  M. Wormit,  
 J. Kussmann,  A. W. Lange,  A. Behn,  Jia Deng,  Xintian Feng,  D. Ghosh,  
 M. Goldey,  P. R. Horn,  L. D. Jacobson,  I. Kaliman,  T. Kus,  A. Landau,  
 Jie Liu,  E. I. Proynov,  R. M. Richard,  R. P. Steele,  E. J. Sundstrom,  
 H. L. Woodcock III,  P. M. Zimmerman,  D. Zuev,  B. Albrecht,  E. Alguire,  
 S. A. Baeppler,  D. Barton,  Z. Benda,  Y. A. Bernard,  E. J. Berquist,  
 K. B. Bravaya,  H. Burton,  D. Casanova,  Chun-Min Chang,  Yunqing Chen,  
 A. Chien,  K. D. Closser,  M. P. Coons,  S. Coriani,  S. Dasgupta,  
 A. L. Dempwolff,  M. Diedenhofen,  Hainam Do,  R. G. Edgar,  Po-Tung Fang,  
 S. Faraji,  S. Fatehi,  Qingguo Feng,  K. D. Fenk,  J. Fosso-Tande,  
 J. Gayvert,  Qinghui Ge,  A. Ghysels,  G. Gidofalvi,  J. Gomes,  
 J. Gonthier,  A. Gunina,  D. Hait,  M. W. D. Hanson-Heine,  
 P. H. P. Harbach,  A. W. Hauser,  M. F. Herbst,  J. E. Herr,  
 E. G. Hohenstein,  Z. C. Holden,  Kerwin Hui,  B. C. Huynh,  T.-C. Jagau,  
 Hyunjun Ji,  B. Kaduk,  K. Khistyaev,  Jaehoon Kim,  P. Klunzinger,  K. Koh,  
 D. Kosenkov,  L. Koulias,  T. Kowalczyk,  C. M. Krauter,  A. Kunitsa,  
 Ka Un Lao,  A. Laurent,  K. V. Lawler,  Joonho Lee,  D. Lefrancois,  
 S. Lehtola,  D. S. Levine,  Yi-Pei Li,  You-Sheng Lin,  Fenglai Liu,  
 E. Livshits,  A. Luenser,  P. Manohar,  E. Mansoor,  S. F. Manzer,  
 Shan-Ping Mao,  Yuezhi Mao,  N. Mardirossian,  A. V. Marenich,  
 T. Markovich,  L. A. Martinez-Martinez,  S. A. Maurer,  N. J. Mayhall,  
 S. C. McKenzie,  J.-M. Mewes,  P. Morgante,  A. F. Morrison,  
 J. W. Mullinax,  K. Nanda,  T. S. Nguyen-Beck,  R. Olivares-Amaya,  
 J. A. Parkhill,  Zheng Pei,  T. M. Perrine,  F. Plasser,  P. Pokhilko,  
 S. Prager,  A. Prociuk,  E. Ramos,  D. R. Rehn,  F. Rob,  M. Scheurer,  
 M. Schneider,  N. Sergueev,  S. M. Sharada,  S. Sharma,  D. W. Small,  
 T. Stauch,  T. Stein,  Yu-Chuan Su,  A. J. W. Thom,  A. Tkatchenko,  
 T. Tsuchimochi,  N. M. Tubman,  L. Vogt,  M. L. Vidal,  O. Vydrov,  
 M. A. Watson,  J. Wenzel,  M. de Wergifosse,  T. A. Wesolowski,  A. White,  
 J. Witte,  A. Yamada,  Jun Yang,  K. Yao,  S. Yeganeh,  S. R. Yost,  
 Zhi-Qiang You,  A. Zech,  Igor Ying Zhang,  Xing Zhang,  Yan Zhao,  
 Ying Zhu,  B. R. Brooks,  G. K. L. Chan,  C. J. Cramer,  M. S. Gordon,  
 W. J. Hehre,  A. Klamt,  M. W. Schmidt,  C. D. Sherrill,  D. G. Truhlar,  
 A. Aspuru-Guzik,  R. Baer,  A. T. Bell,  N. A. Besley,  Jeng-Da Chai,  
 A. E. DePrince, III,  R. A. DiStasio Jr.,  A. Dreuw,  B. D. Dunietz,  
 T. R. Furlani,  Chao-Ping Hsu,  Yousung Jung,  Jing Kong,  D. S. Lambrecht,  
 WanZhen Liang,  C. Ochsenfeld,  V. A. Rassolov,  L. V. Slipchenko,  
 J. E. Subotnik,  T. Van Voorhis,  J. M. Herbert,  A. I. Krylov,  
 P. M. W. Gill,  M. Head-Gordon

 Contributors to earlier versions of Q-Chem not listed above: 
 R. D. Adamson,  B. Austin,  J. Baker,  G. J. O. Beran,  K. Brandhorst,  
 S. T. Brown,  E. F. C. Byrd,  A. K. Chakraborty,  C.-L. Cheng,  
 Siu Hung Chien,  D. M. Chipman,  D. L. Crittenden,  H. Dachsel,  
 R. J. Doerksen,  A. D. Dutoi,  L. Fusti-Molnar,  W. A. Goddard III,  
 A. Golubeva-Zadorozhnaya,  S. R. Gwaltney,  G. Hawkins,  A. Heyden,  
 S. Hirata,  G. Kedziora,  F. J. Keil,  C. Kelley,  Jihan Kim,  R. A. King,  
 R. Z. Khaliullin,  P. P. Korambath,  W. Kurlancheek,  A. M. Lee,  M. S. Lee,  
 S. V. Levchenko,  Ching Yeh Lin,  D. Liotard,  R. C. Lochan,  I. Lotan,  
 P. E. Maslen,  N. Nair,  D. P. O'Neill,  D. Neuhauser,  E. Neuscamman,  
 C. M. Oana,  R. Olson,  B. Peters,  R. Peverati,  P. A. Pieniazek,  
 Y. M. Rhee,  J. Ritchie,  M. A. Rohrdanz,  E. Rosta,  N. J. Russ,  
 H. F. Schaefer III,  N. E. Schultz,  N. Shenvi,  A. C. Simmonett,  A. Sodt,  
 D. Stuck,  K. S. Thanthiriwatte,  V. Vanovschi,  Tao Wang,  A. Warshel,  
 C. F. Williams,  Q. Wu,  X. Xu,  W. Zhang

 Please cite Q-Chem as follows:
 Y. Shao et al., Mol. Phys. 113, 184-215 (2015)
 DOI: 10.1080/00268976.2014.952696

 Q-Chem 5.2.1 for Intel X86 EM64T Linux

 Parts of Q-Chem use Armadillo 8.300.2 (Tropical Shenanigans).
 http://arma.sourceforge.net/

 Q-Chem begins on Mon May 10 09:10:44 2021  

compute-0-7.local
Host: 0

     Scratch files written to /home/meili/scratch/qchem56292//Frg1//
NAlpha2: 40
NElect   40
Mult     1

Checking the input file for inconsistencies... 	...done.

--------------------------------------------------------------
User input:
--------------------------------------------------------------
$molecule
0 1
 6	11.7640000000	28.8540000000	26.5840000000
 1	12.7920000000	29.3360000000	26.4360000000
 6	11.7040000000	27.5160000000	25.7950000000
 8	10.6960000000	26.7680000000	25.6190000000
 7	12.9210000000	27.0020000000	25.5490000000
 1	13.6950000000	27.5920000000	25.7810000000
 6	13.2300000000	25.6570000000	25.0600000000
 1	12.6980000000	25.5140000000	24.1880000000
 1	11.6060000000	28.6620000000	27.6250000000
 1	11.0040000000	29.5160000000	26.2250000000
 1	14.2790000000	25.5710000000	24.8660000000
 1	12.9630000000	24.9210000000	25.7890000000
$end
$rem
EDA2		1
METHOD		WB97X-V
BASIS		DEF2-TZVPD
XC_GRID		000099000590
NL_GRID		1
UNRESTRICTED		FALSE
MAX_SCF_CYCLES		200
SYMMETRY		FALSE
SYM_IGNORE		TRUE
BASIS_LIN_DEP_THRESH		6
THRESH		14
SCF_CONVERGENCE		8
SCF_PRINT_FRGM		TRUE
!required keywords
JOBTYPE		SP
SYM_IGNORE		TRUE
SUBSYSTEM		TRUE
GEN_SCFMAN		TRUE
CHILD_INSTRUCTION		2
SYM_IGNORE		TRUE
SCFMI		0
RI_K 0		
PARI_K 0		
MIN_PARI_K 0		
IARI_K 0		
OCC_RI_K 0		
PURECART		1111
MEM_STATIC		2000
MEM_TOTAL		2000
GUI		0
CHILD_MP		1
CHILD_MP_ORDERS		232
FRZ_RELAX		0
FRZ_RELAX_METHOD		0
EDA_CLS_ELEC		1
EDA_CLS_DISP		0
FRZ_ORTHO_DECOMP		1
EDA2		FALSE
FRGM_METHOD		FALSE
CIS_N_ROOTS  0
LOCAL_CIS    0
CIS_RLX_DNS  1
$end
--------------------------------------------------------------
 ----------------------------------------------------------------
             Standard Nuclear Orientation (Angstroms)
    I     Atom           X                Y                Z
 ----------------------------------------------------------------
    1      C      11.7640000000    28.8540000000    26.5840000000
    2      H      12.7920000000    29.3360000000    26.4360000000
    3      C      11.7040000000    27.5160000000    25.7950000000
    4      O      10.6960000000    26.7680000000    25.6190000000
    5      N      12.9210000000    27.0020000000    25.5490000000
    6      H      13.6950000000    27.5920000000    25.7810000000
    7      C      13.2300000000    25.6570000000    25.0600000000
    8      H      12.6980000000    25.5140000000    24.1880000000
    9      H      11.6060000000    28.6620000000    27.6250000000
   10      H      11.0040000000    29.5160000000    26.2250000000
   11      H      14.2790000000    25.5710000000    24.8660000000
   12      H      12.9630000000    24.9210000000    25.7890000000
 ----------------------------------------------------------------
 Nuclear Repulsion Energy =         178.75562114 hartrees
 There are       20 alpha and       20 beta electrons
 Requested basis set is def2-TZVPD
 There are 101 shells and 251 basis functions

 Total QAlloc Memory Limit   2000 MB
 Mega-Array Size      1956 MB
 MEM_STATIC part      2000 MB

                       Distance Matrix (Angstroms)
             C (  1)   H (  2)   C (  3)   O (  4)   N (  5)   H (  6)
   H (  2)  1.144994
   C (  3)  1.554466  2.215181
   O (  4)  2.534412  3.413990  1.267495
   N (  5)  2.416563  2.500193  1.343801  2.238366
   H (  6)  2.442583  2.070258  1.992499  3.114357  1.000500
   C (  7)  3.833085  3.952248  2.514912  2.822757  1.464113  2.116670
   H (  8)  4.215302  4.435090  2.752906  2.761934  2.028841  2.801739
   H (  9)  1.070285  1.809584  2.161439  2.905060  2.965569  2.984821
   H ( 10)  1.069918  1.809382  2.162152  2.830831  3.232965  3.337723
   H ( 11)  4.478263  4.341808  3.358078  3.851974  2.087681  2.294062
   H ( 12)  4.187853  4.465431  2.884292  2.929095  2.095215  2.769500
             C (  7)   H (  8)   H (  9)   H ( 10)   H ( 11)
   H (  8)  1.031434
   H (  9)  4.271607  4.786997
   H ( 10)  4.604800  4.799480  1.746917
   H ( 11)  1.070249  1.721190  4.930648  5.304294
   H ( 12)  1.069778  1.727737  4.382628  5.014160  1.733864

 A cutoff of  1.0D-14 yielded   5025 shell pairs
 There are     31609 function pairs (     39761 Cartesian)
 Smallest overlap matrix eigenvalue = 1.01E-05

 Scale SEOQF with 1.000000e-02/1.000000e-03/1.000000e-03

 Standard Electronic Orientation quadrupole field applied
 Nucleus-field energy     =     0.0000000139 hartrees
 Guess from superposition of atomic densities
 Warning:  Energy on first SCF cycle will be non-variational
 SAD guess density has 40.000000 electrons

 -----------------------------------------------------------------------
  General SCF calculation program by
  Eric Jon Sundstrom, Paul Horn, Yuezhi Mao, Dmitri Zuev, Alec White,
  David Stuck, Shaama M.S., Shane Yost, Joonho Lee, David Small,
  Daniel Levine, Susi Lehtola, Hugh Burton, Evgeny Epifanovsky,
  Bang C. Huynh
 -----------------------------------------------------------------------
 Exchange:     0.1670 Hartree-Fock + 1.0000 wB97X-V + LR-HF
 Correlation:  1.0000 wB97X-V
 Using Euler-Maclaurin-Lebedev (99,590) quadrature formula
 Nonlocal Correlation:  VV10 with C = 0.0100 and b = 6.00 and scale = 1.00000
 Grid used for NLC:  SG-1 standard quadrature
Energy prior to optimization (guess energy) = -248.405256278588
Begin Timing: Total SCF Calculation
begin iterations for algorithm: DIIS         
the SCF tolerance is set to 1.00e-08
    1    -248.4052562786      4.32e-03     00000 
    2    -248.3172982730      6.23e-03     00000 
    3    -248.5294344276      5.31e-04     00000 
    4    -248.5311181033      2.41e-04     00000 
    5    -248.5315007122      5.83e-05     00000 
    6    -248.5315316073      2.08e-05     00000 
    7    -248.5315370673      5.89e-06     00000 
    8    -248.5315378427      1.97e-06     00000 
    9    -248.5315379066      7.38e-07     00000 
   10    -248.5315379134      1.55e-07     00000 
   11    -248.5315379138      3.21e-08     00000 
   12    -248.5315379138      1.23e-08     00000 
   13    -248.5315379138      3.14e-09     00000 Convergence criterion met
Timing for Total SCF: 257.00s (wall), 1648.40s (cpu)
Multipole orders to be included
        2
        3
computing dipole RHS
computing quadrupole RHS
total number of RHS in solve_reponses: 8
RHS batch sizes
        8
Beginning Block Conjugate Gradient Iterations. Batch Number: 0
computing hessian-vector products by finite difference
              1      5.17e-01     00000 Conjugate Gradient Iteration
computing hessian-vector products by finite difference
              2      1.81e-01     00000 Conjugate Gradient Iteration
computing hessian-vector products by finite difference
              3      4.82e-02     00000 Conjugate Gradient Iteration
computing hessian-vector products by finite difference
              4      1.21e-02     00000 Conjugate Gradient Iteration
computing hessian-vector products by finite difference
              5      2.17e-03     00000 Conjugate Gradient Iteration
computing hessian-vector products by finite difference
              6      4.42e-04     00000 Conjugate Gradient Iteration
computing hessian-vector products by finite difference
              7      6.36e-05     00000 Conjugate Gradient Iteration
computing hessian-vector products by finite difference
              8      1.04e-05     00000 Conjugate Gradient Iteration
computing hessian-vector products by finite difference
              9      1.50e-06     00000 Conjugate Gradient Iteration
computing hessian-vector products by finite difference
             10      2.10e-07     00000 Conjugate Gradient Iteration
computing hessian-vector products by finite difference
             11      3.60e-08     00000 Conjugate Gradient Iteration
computing hessian-vector products by finite difference
             12      6.19e-09     00000 CG Converged
batch 0 complete
Done Calculating Responses
TESTING ORTHOGONALIZATION OF MULTIPOLE BASIS
Multipole virts passed orthogonality test
Virts Per Order
           60
          100

 --------------------------------------------------------------

                    Orbital Energies (a.u.)
 --------------------------------------------------------------

 Alpha MOs
 -- Occupied --
-19.1673 -14.4375 -10.3754 -10.2949 -10.2855  -1.1455  -1.0479  -0.8899
 -0.8269  -0.7033  -0.6245  -0.5834  -0.5752  -0.5444  -0.5205  -0.5065
 -0.4923  -0.4614  -0.3575  -0.3518
 -- Virtual --
  0.0531   0.0767   0.0918   0.1007   0.1075   0.1223   0.1345   0.1367
  0.1557   0.1614   0.1678   0.1836   0.1893   0.1986   0.2009   0.2109
  0.2387   0.2474   0.2553   0.2750   0.2778   0.2789   0.2863   0.2924
  0.3002   0.3079   0.3136   0.3281   0.3363   0.3536   0.3572   0.3615
  0.3716   0.3756   0.3819   0.3870   0.3898   0.3952   0.4057   0.4160
  0.4287   0.4394   0.4416   0.4550   0.4620   0.4665   0.4774   0.4905
  0.4922   0.4984   0.5021   0.5179   0.5217   0.5336   0.5386   0.5495
  0.5574   0.5781   0.5931   0.6062   0.6362   0.6463   0.6584   0.6737
  0.6779   0.7040   0.7132   0.7212   0.7296   0.7380   0.7437   0.7635
  0.7749   0.7813   0.7990   0.8065   0.8159   0.8261   0.8310   0.8437
  0.8546   0.8714   0.8773   0.8986   0.9197   0.9479   0.9870   1.0156
  1.0352   1.0490   1.0692   1.0831   1.1319   1.1426   1.1721   1.1769
  1.2262   1.2479   1.2687   1.3024   1.3069   1.3307   1.3480   1.3613
  1.3982   1.4356   1.4962   1.5355   1.5978   1.6814   1.7132   1.7370
  1.7605   1.8146   1.8356   1.8524   1.8682   1.8859   1.8967   1.9152
  1.9445   1.9715   2.0000   2.0113   2.0344   2.0418   2.0889   2.1237
  2.1742   2.1808   2.1927   2.2256   2.2905   2.3286   2.3602   2.3757
  2.3954   2.4323   2.4671   2.4918   2.5120   2.5600   2.5807   2.5928
  2.6146   2.6362   2.6401   2.6700   2.7646   2.8111   2.8282   2.8405
  2.8554   2.8699   2.9311   2.9355   2.9613   3.0075   3.0534   3.0762
  3.1070   3.1533   3.1866   3.2339   3.2853   3.2969   3.3191   3.3394
  3.3465   3.3883   3.4007   3.4282   3.4508   3.4523   3.4904   3.5161
  3.5537   3.5611   3.5783   3.5916   3.6471   3.6634   3.6907   3.7452
  3.8311   3.8782   3.9305   3.9614   3.9931   4.0430   4.1176   4.1642
  4.2775   4.3312   4.4005   4.4939   4.5139   4.5810   4.6416   4.7251
  4.7677   4.8296   4.9283   4.9679   5.0047   5.1920   5.2107   5.2599
  5.3397   5.3861   5.4164   5.4824   5.6231   5.6941   5.7351   5.7392
  5.9583   6.1277   6.2122   6.4516   6.6731   6.6796   6.7922   6.9894
  7.2148   7.3366  22.5384  22.7982  23.4192  32.6794  44.2905
 --------------------------------------------------------------

          Ground-State Mulliken Net Atomic Charges

     Atom                 Charge (a.u.)
  ----------------------------------------
      1 C                    -0.633287
      2 H                     0.200027
      3 C                     0.481948
      4 O                    -0.564290
      5 N                    -0.069900
      6 H                     0.187236
      7 C                    -0.693085
      8 H                     0.234829
      9 H                     0.174023
     10 H                     0.215127
     11 H                     0.254859
     12 H                     0.212512
  ----------------------------------------
  Sum of atomic charges =     0.000000

 -----------------------------------------------------------------
                    Cartesian Multipole Moments
 -----------------------------------------------------------------
    Charge (ESU x 10^10)
                -0.0000
    Dipole Moment (Debye)
         X       4.0729      Y       1.3478      Z       0.5138
       Tot       4.3208
    Quadrupole Moments (Debye-Ang)
        XX      65.2187     XY     124.0789     YY      45.1381
        XZ     109.9430     YZ      50.2267     ZZ      -4.0497
    Octopole Moments (Debye-Ang^2)
       XXX     590.3386    XXY    1901.9605    XYY    3396.2184
       YYY     692.7954    XXZ    1726.9534    XYZ    3352.5958
       YYZ    1626.5760    XZZ    2590.1633    YZZ     863.3432
       ZZZ   -1332.5891
    Hexadecapole Moments (Debye-Ang^3)
      XXXX     -71.0472   XXXY   17293.0623   XXYY   51024.7400
      XYYY   83748.3548   YYYY  -16799.9381   XXXZ   15634.9113
      XXYZ   50504.4446   XYYZ   92283.4120   YYYZ   31552.0482
      XXZZ   41121.7282   XYZZ   80303.1400   YYZZ   31210.5330
      XZZZ   50983.2224   YZZZ  -10201.2452   ZZZZ  -86153.4960
 -----------------------------------------------------------------
Archival summary:
1\1\compute-0-7.local\SP\ProcedureUnspecified\BasisUnspecified\1137\meili\MonMay1010:27:522021MonMay1010:27:522021\0\\#,ProcedureUnspecified,BasisUnspecified,\\0,1\N\H,1,1.0005\C,1,1.3438,2,115.633\O,3,1.2675,1,117.975,2,-174.454,0\C,1,1.46411,2,117.123,3,-176.436,0\H,5,1.03143,1,107.51,2,-129.478,0\H,5,1.06978,1,110.594,2,109.668,0\H,5,1.07025,1,109.951,2,-9.8022,0\C,3,1.55447,1,112.78,2,-8.25494,0\H,9,1.06992,3,109.563,1,142.462,0\H,9,1.07028,3,109.486,1,-97.5347,0\H,9,1.14499,3,109.353,1,22.4351,0\\\@

 Total job time:  4627.82s(wall), 28903.16s(cpu) 
 Mon May 10 10:27:52 2021

        *************************************************************
        *                                                           *
        *  Thank you very much for using Q-Chem.  Have a nice day.  *
        *                                                           *
        *************************************************************


Done Job For Fragment 0
calling putenv with: QCSCRATCH=/home/meili/scratch 
calling putenv with: QCTHREADS=8 
Creating input file /home/meili/scratch/qchem56292/Frg2.input
using default PutDataFrgm: nothing
calling putenv with: QCSCRATCH=/home/meili/scratch/qchem56292/ 
Spawning Job For Fragment 1
                  Welcome to Q-Chem
     A Quantum Leap Into The Future Of Chemistry


 Q-Chem 5.2 (devel), Q-Chem, Inc., Pleasanton, CA (2019)

 Yihan Shao,  Zhengting Gan,  E. Epifanovsky,  A. T. B. Gilbert,  M. Wormit,  
 J. Kussmann,  A. W. Lange,  A. Behn,  Jia Deng,  Xintian Feng,  D. Ghosh,  
 M. Goldey,  P. R. Horn,  L. D. Jacobson,  I. Kaliman,  T. Kus,  A. Landau,  
 Jie Liu,  E. I. Proynov,  R. M. Richard,  R. P. Steele,  E. J. Sundstrom,  
 H. L. Woodcock III,  P. M. Zimmerman,  D. Zuev,  B. Albrecht,  E. Alguire,  
 S. A. Baeppler,  D. Barton,  Z. Benda,  Y. A. Bernard,  E. J. Berquist,  
 K. B. Bravaya,  H. Burton,  D. Casanova,  Chun-Min Chang,  Yunqing Chen,  
 A. Chien,  K. D. Closser,  M. P. Coons,  S. Coriani,  S. Dasgupta,  
 A. L. Dempwolff,  M. Diedenhofen,  Hainam Do,  R. G. Edgar,  Po-Tung Fang,  
 S. Faraji,  S. Fatehi,  Qingguo Feng,  K. D. Fenk,  J. Fosso-Tande,  
 J. Gayvert,  Qinghui Ge,  A. Ghysels,  G. Gidofalvi,  J. Gomes,  
 J. Gonthier,  A. Gunina,  D. Hait,  M. W. D. Hanson-Heine,  
 P. H. P. Harbach,  A. W. Hauser,  M. F. Herbst,  J. E. Herr,  
 E. G. Hohenstein,  Z. C. Holden,  Kerwin Hui,  B. C. Huynh,  T.-C. Jagau,  
 Hyunjun Ji,  B. Kaduk,  K. Khistyaev,  Jaehoon Kim,  P. Klunzinger,  K. Koh,  
 D. Kosenkov,  L. Koulias,  T. Kowalczyk,  C. M. Krauter,  A. Kunitsa,  
 Ka Un Lao,  A. Laurent,  K. V. Lawler,  Joonho Lee,  D. Lefrancois,  
 S. Lehtola,  D. S. Levine,  Yi-Pei Li,  You-Sheng Lin,  Fenglai Liu,  
 E. Livshits,  A. Luenser,  P. Manohar,  E. Mansoor,  S. F. Manzer,  
 Shan-Ping Mao,  Yuezhi Mao,  N. Mardirossian,  A. V. Marenich,  
 T. Markovich,  L. A. Martinez-Martinez,  S. A. Maurer,  N. J. Mayhall,  
 S. C. McKenzie,  J.-M. Mewes,  P. Morgante,  A. F. Morrison,  
 J. W. Mullinax,  K. Nanda,  T. S. Nguyen-Beck,  R. Olivares-Amaya,  
 J. A. Parkhill,  Zheng Pei,  T. M. Perrine,  F. Plasser,  P. Pokhilko,  
 S. Prager,  A. Prociuk,  E. Ramos,  D. R. Rehn,  F. Rob,  M. Scheurer,  
 M. Schneider,  N. Sergueev,  S. M. Sharada,  S. Sharma,  D. W. Small,  
 T. Stauch,  T. Stein,  Yu-Chuan Su,  A. J. W. Thom,  A. Tkatchenko,  
 T. Tsuchimochi,  N. M. Tubman,  L. Vogt,  M. L. Vidal,  O. Vydrov,  
 M. A. Watson,  J. Wenzel,  M. de Wergifosse,  T. A. Wesolowski,  A. White,  
 J. Witte,  A. Yamada,  Jun Yang,  K. Yao,  S. Yeganeh,  S. R. Yost,  
 Zhi-Qiang You,  A. Zech,  Igor Ying Zhang,  Xing Zhang,  Yan Zhao,  
 Ying Zhu,  B. R. Brooks,  G. K. L. Chan,  C. J. Cramer,  M. S. Gordon,  
 W. J. Hehre,  A. Klamt,  M. W. Schmidt,  C. D. Sherrill,  D. G. Truhlar,  
 A. Aspuru-Guzik,  R. Baer,  A. T. Bell,  N. A. Besley,  Jeng-Da Chai,  
 A. E. DePrince, III,  R. A. DiStasio Jr.,  A. Dreuw,  B. D. Dunietz,  
 T. R. Furlani,  Chao-Ping Hsu,  Yousung Jung,  Jing Kong,  D. S. Lambrecht,  
 WanZhen Liang,  C. Ochsenfeld,  V. A. Rassolov,  L. V. Slipchenko,  
 J. E. Subotnik,  T. Van Voorhis,  J. M. Herbert,  A. I. Krylov,  
 P. M. W. Gill,  M. Head-Gordon

 Contributors to earlier versions of Q-Chem not listed above: 
 R. D. Adamson,  B. Austin,  J. Baker,  G. J. O. Beran,  K. Brandhorst,  
 S. T. Brown,  E. F. C. Byrd,  A. K. Chakraborty,  C.-L. Cheng,  
 Siu Hung Chien,  D. M. Chipman,  D. L. Crittenden,  H. Dachsel,  
 R. J. Doerksen,  A. D. Dutoi,  L. Fusti-Molnar,  W. A. Goddard III,  
 A. Golubeva-Zadorozhnaya,  S. R. Gwaltney,  G. Hawkins,  A. Heyden,  
 S. Hirata,  G. Kedziora,  F. J. Keil,  C. Kelley,  Jihan Kim,  R. A. King,  
 R. Z. Khaliullin,  P. P. Korambath,  W. Kurlancheek,  A. M. Lee,  M. S. Lee,  
 S. V. Levchenko,  Ching Yeh Lin,  D. Liotard,  R. C. Lochan,  I. Lotan,  
 P. E. Maslen,  N. Nair,  D. P. O'Neill,  D. Neuhauser,  E. Neuscamman,  
 C. M. Oana,  R. Olson,  B. Peters,  R. Peverati,  P. A. Pieniazek,  
 Y. M. Rhee,  J. Ritchie,  M. A. Rohrdanz,  E. Rosta,  N. J. Russ,  
 H. F. Schaefer III,  N. E. Schultz,  N. Shenvi,  A. C. Simmonett,  A. Sodt,  
 D. Stuck,  K. S. Thanthiriwatte,  V. Vanovschi,  Tao Wang,  A. Warshel,  
 C. F. Williams,  Q. Wu,  X. Xu,  W. Zhang

 Please cite Q-Chem as follows:
 Y. Shao et al., Mol. Phys. 113, 184-215 (2015)
 DOI: 10.1080/00268976.2014.952696

 Q-Chem 5.2.1 for Intel X86 EM64T Linux

 Parts of Q-Chem use Armadillo 8.300.2 (Tropical Shenanigans).
 http://arma.sourceforge.net/

 Q-Chem begins on Mon May 10 10:27:52 2021  

compute-0-7.local
Host: 0

     Scratch files written to /home/meili/scratch/qchem56292//Frg2//
NAlpha2: 40
NElect   40
Mult     1

Checking the input file for inconsistencies... 	...done.

--------------------------------------------------------------
User input:
--------------------------------------------------------------
$molecule
0 1
 6	14.9980000000	30.7250000000	25.0800000000
 1	14.0790000000	30.6860000000	25.6630000000
 6	14.8290000000	29.8680000000	23.8420000000
 8	15.7950000000	29.1680000000	23.4410000000
 7	13.6990000000	29.8380000000	23.1250000000
 1	12.8780000000	30.2410000000	23.6030000000
 6	13.4460000000	29.0000000000	21.9880000000
 1	13.7610000000	28.0080000000	22.3060000000
 1	15.1990000000	31.7360000000	24.7930000000
 1	15.8150000000	30.3590000000	25.6660000000
 1	12.4050000000	29.0050000000	21.7390000000
 1	13.9660000000	29.3320000000	21.1140000000
$end
$rem
EDA2		1
METHOD		WB97X-V
BASIS		DEF2-TZVPD
XC_GRID		000099000590
NL_GRID		1
UNRESTRICTED		FALSE
MAX_SCF_CYCLES		200
SYMMETRY		FALSE
SYM_IGNORE		TRUE
BASIS_LIN_DEP_THRESH		6
THRESH		14
SCF_CONVERGENCE		8
SCF_PRINT_FRGM		TRUE
!required keywords
JOBTYPE		SP
SYM_IGNORE		TRUE
SUBSYSTEM		TRUE
GEN_SCFMAN		TRUE
CHILD_INSTRUCTION		2
SYM_IGNORE		TRUE
SCFMI		0
RI_K 0		
PARI_K 0		
MIN_PARI_K 0		
IARI_K 0		
OCC_RI_K 0		
PURECART		1111
MEM_STATIC		2000
MEM_TOTAL		2000
GUI		0
CHILD_MP		1
CHILD_MP_ORDERS		232
FRZ_RELAX		0
FRZ_RELAX_METHOD		0
EDA_CLS_ELEC		1
EDA_CLS_DISP		0
FRZ_ORTHO_DECOMP		1
EDA2		FALSE
FRGM_METHOD		FALSE
CIS_N_ROOTS  0
LOCAL_CIS    0
CIS_RLX_DNS  1
$end
--------------------------------------------------------------
 ----------------------------------------------------------------
             Standard Nuclear Orientation (Angstroms)
    I     Atom           X                Y                Z
 ----------------------------------------------------------------
    1      C      14.9980000000    30.7250000000    25.0800000000
    2      H      14.0790000000    30.6860000000    25.6630000000
    3      C      14.8290000000    29.8680000000    23.8420000000
    4      O      15.7950000000    29.1680000000    23.4410000000
    5      N      13.6990000000    29.8380000000    23.1250000000
    6      H      12.8780000000    30.2410000000    23.6030000000
    7      C      13.4460000000    29.0000000000    21.9880000000
    8      H      13.7610000000    28.0080000000    22.3060000000
    9      H      15.1990000000    31.7360000000    24.7930000000
   10      H      15.8150000000    30.3590000000    25.6660000000
   11      H      12.4050000000    29.0050000000    21.7390000000
   12      H      13.9660000000    29.3320000000    21.1140000000
 ----------------------------------------------------------------
 Nuclear Repulsion Energy =         180.24374092 hartrees
 There are       20 alpha and       20 beta electrons
 Requested basis set is def2-TZVPD
 There are 101 shells and 251 basis functions

 Total QAlloc Memory Limit   2000 MB
 Mega-Array Size      1956 MB
 MEM_STATIC part      2000 MB

                       Distance Matrix (Angstroms)
             C (  1)   H (  2)   C (  3)   O (  4)   N (  5)   H (  6)
   H (  2)  1.089023
   C (  3)  1.515142  2.132525
   O (  4)  2.397035  3.191593  1.258554
   N (  5)  2.509222  2.702767  1.338615  2.223055
   H (  6)  2.628723  2.425701  2.000663  3.112308  1.031956
   C (  7)  3.865850  4.092543  2.470512  2.767171  1.434929  2.114457
   H (  8)  4.075210  4.306072  2.638090  2.602111  2.005868  2.729137
   H (  9)  1.069996  1.764596  2.128550  2.962726  2.938474  3.006354
   H ( 10)  1.069972  1.766532  2.130787  2.523788  3.347473  3.591081
   H ( 11)  4.565559  4.585391  3.323124  3.796771  2.071068  2.286027
   H ( 12)  4.328352  4.747577  2.911022  2.964299  2.090800  2.864463
             C (  7)   H (  8)   H (  9)   H ( 10)   H ( 11)
   H (  8)  1.088307
   H (  9)  4.292637  4.706485
   H ( 10)  4.581127  4.586471  1.742904
   H ( 11)  1.070377  1.776016  4.959003  5.374267
   H ( 12)  1.069813  1.793283  4.564487  5.019386  1.712973

 A cutoff of  1.0D-14 yielded   5027 shell pairs
 There are     31631 function pairs (     39786 Cartesian)
 Smallest overlap matrix eigenvalue = 7.50E-06

 Scale SEOQF with 1.000000e-02/1.000000e-03/1.000000e-03

 Standard Electronic Orientation quadrupole field applied
 Nucleus-field energy     =     0.0000000317 hartrees
 Guess from superposition of atomic densities
 Warning:  Energy on first SCF cycle will be non-variational
 SAD guess density has 40.000000 electrons

 -----------------------------------------------------------------------
  General SCF calculation program by
  Eric Jon Sundstrom, Paul Horn, Yuezhi Mao, Dmitri Zuev, Alec White,
  David Stuck, Shaama M.S., Shane Yost, Joonho Lee, David Small,
  Daniel Levine, Susi Lehtola, Hugh Burton, Evgeny Epifanovsky,
  Bang C. Huynh
 -----------------------------------------------------------------------
 Exchange:     0.1670 Hartree-Fock + 1.0000 wB97X-V + LR-HF
 Correlation:  1.0000 wB97X-V
 Using Euler-Maclaurin-Lebedev (99,590) quadrature formula
 Nonlocal Correlation:  VV10 with C = 0.0100 and b = 6.00 and scale = 1.00000
 Grid used for NLC:  SG-1 standard quadrature
Energy prior to optimization (guess energy) = -248.407287227570
Begin Timing: Total SCF Calculation
begin iterations for algorithm: DIIS         
the SCF tolerance is set to 1.00e-08
    1    -248.4072872276      4.38e-03     00000 
    2    -248.3223378516      6.24e-03     00000 
    3    -248.5352291370      5.18e-04     00000 
    4    -248.5368529723      2.35e-04     00000 
    5    -248.5372197129      5.71e-05     00000 
    6    -248.5372490575      2.09e-05     00000 
    7    -248.5372545548      5.71e-06     00000 
    8    -248.5372552828      1.68e-06     00000 
    9    -248.5372553333      5.96e-07     00000 
   10    -248.5372553373      1.34e-07     00000 
   11    -248.5372553376      2.39e-08     00000 
   12    -248.5372553376      9.31e-09     00000 Convergence criterion met
Timing for Total SCF: 253.00s (wall), 1516.21s (cpu)
Multipole orders to be included
        2
        3
computing dipole RHS
computing quadrupole RHS
total number of RHS in solve_reponses: 8
RHS batch sizes
        8
Beginning Block Conjugate Gradient Iterations. Batch Number: 0
computing hessian-vector products by finite difference
              1      4.93e-01     00000 Conjugate Gradient Iteration
computing hessian-vector products by finite difference
              2      1.68e-01     00000 Conjugate Gradient Iteration
computing hessian-vector products by finite difference
              3      4.44e-02     00000 Conjugate Gradient Iteration
computing hessian-vector products by finite difference
              4      1.11e-02     00000 Conjugate Gradient Iteration
computing hessian-vector products by finite difference
              5      2.01e-03     00000 Conjugate Gradient Iteration
computing hessian-vector products by finite difference
              6      3.84e-04     00000 Conjugate Gradient Iteration
computing hessian-vector products by finite difference
              7      5.87e-05     00000 Conjugate Gradient Iteration
computing hessian-vector products by finite difference
              8      1.01e-05     00000 Conjugate Gradient Iteration
computing hessian-vector products by finite difference
              9      1.65e-06     00000 Conjugate Gradient Iteration
computing hessian-vector products by finite difference
             10      2.44e-07     00000 Conjugate Gradient Iteration
computing hessian-vector products by finite difference
             11      4.42e-08     00000 Conjugate Gradient Iteration
computing hessian-vector products by finite difference
             12      5.78e-09     00000 CG Converged
batch 0 complete
Done Calculating Responses
TESTING ORTHOGONALIZATION OF MULTIPOLE BASIS
Multipole virts passed orthogonality test
Virts Per Order
           60
          100

 --------------------------------------------------------------

                    Orbital Energies (a.u.)
 --------------------------------------------------------------

 Alpha MOs
 -- Occupied --
-19.1605 -14.4406 -10.3683 -10.2977 -10.2738  -1.1504  -1.0498  -0.8905
 -0.8288  -0.6966  -0.6279  -0.5866  -0.5779  -0.5439  -0.5183  -0.5155
 -0.4835  -0.4565  -0.3559  -0.3481
 -- Virtual --
  0.0541   0.0771   0.0916   0.1035   0.1085   0.1226   0.1339   0.1409
  0.1552   0.1646   0.1665   0.1795   0.1871   0.2014   0.2059   0.2231
  0.2385   0.2429   0.2542   0.2648   0.2756   0.2815   0.2871   0.2891
  0.3039   0.3086   0.3195   0.3334   0.3440   0.3512   0.3562   0.3599
  0.3716   0.3741   0.3811   0.3906   0.3969   0.4007   0.4088   0.4175
  0.4250   0.4413   0.4512   0.4543   0.4591   0.4693   0.4740   0.4845
  0.4866   0.5030   0.5109   0.5154   0.5257   0.5338   0.5402   0.5577
  0.5650   0.5767   0.6072   0.6152   0.6238   0.6454   0.6537   0.6760
  0.6868   0.6982   0.7098   0.7162   0.7241   0.7415   0.7567   0.7619
  0.7795   0.7833   0.7949   0.8074   0.8202   0.8247   0.8434   0.8463
  0.8590   0.8746   0.8886   0.8950   0.9444   0.9577   0.9817   1.0161
  1.0189   1.0392   1.0610   1.0734   1.1082   1.1441   1.1569   1.1877
  1.2185   1.2534   1.2716   1.2934   1.3243   1.3263   1.3611   1.3849
  1.3872   1.4527   1.5124   1.5626   1.6331   1.6771   1.7233   1.7386
  1.7431   1.8236   1.8556   1.8620   1.8792   1.9064   1.9203   1.9298
  1.9384   1.9555   1.9944   2.0124   2.0338   2.0633   2.1045   2.1317
  2.1550   2.1985   2.2380   2.2495   2.2834   2.2910   2.3553   2.3745
  2.4105   2.4314   2.4593   2.4978   2.5091   2.5516   2.5893   2.6018
  2.6087   2.6272   2.6483   2.7189   2.7797   2.8070   2.8093   2.8452
  2.8538   2.8936   2.9279   2.9524   2.9768   3.0279   3.0393   3.1094
  3.1474   3.1910   3.2160   3.2517   3.2806   3.3021   3.3225   3.3323
  3.3529   3.3710   3.3900   3.4316   3.4442   3.4746   3.4987   3.5195
  3.5526   3.5639   3.6076   3.6259   3.6731   3.6853   3.7160   3.7494
  3.8323   3.8805   3.9200   4.0166   4.0262   4.0867   4.1356   4.1819
  4.2392   4.3016   4.3504   4.5155   4.5471   4.6280   4.6939   4.7161
  4.7213   4.8507   4.9613   5.0306   5.0590   5.2035   5.2539   5.2685
  5.3593   5.4203   5.4291   5.4599   5.6100   5.6878   5.7277   5.7807
  5.9853   6.0768   6.2111   6.4690   6.6864   6.7226   6.8191   7.0085
  7.2659   7.3441  22.6332  22.7447  23.5201  32.7056  44.3290
 --------------------------------------------------------------

          Ground-State Mulliken Net Atomic Charges

     Atom                 Charge (a.u.)
  ----------------------------------------
      1 C                    -0.711626
      2 H                     0.245393
      3 C                     0.468670
      4 O                    -0.559353
      5 N                    -0.091764
      6 H                     0.229522
      7 C                    -0.654259
      8 H                     0.222410
      9 H                     0.199825
     10 H                     0.185524
     11 H                     0.264847
     12 H                     0.200811
  ----------------------------------------
  Sum of atomic charges =     0.000000

 -----------------------------------------------------------------
                    Cartesian Multipole Moments
 -----------------------------------------------------------------
    Charge (ESU x 10^10)
                 0.0000
    Dipole Moment (Debye)
         X      -3.8140      Y       1.6456      Z       0.6535
       Tot       4.2049
    Quadrupole Moments (Debye-Ang)
        XX    -142.9943     XY     -86.9666     YY      66.5412
        XZ     -78.2748     YZ      59.7246     ZZ       2.7737
    Octopole Moments (Debye-Ang^2)
       XXX   -3826.9369    XXY   -3826.9808    XYY   -2254.0597
       YYY    1571.7312    XXZ   -3167.9956    XYZ   -1683.4820
       YYZ    2238.5318    XZZ   -1978.0315    YZZ    1067.0949
       ZZZ    -888.9027
    Hexadecapole Moments (Debye-Ang^3)
      XXXX  -88279.8475   XXXY -106983.1560   XXYY -107807.4274
      XYYY  -70665.5271   YYYY    6865.6998   XXXZ  -86789.1137
      XXYZ  -83917.8651   XYYZ  -41597.9444   YYYZ   58403.5708
      XXZZ  -75882.5099   XYZZ  -43159.2160   YYZZ   43664.8266
      XZZZ  -59347.2536   YZZZ   -2480.9210   ZZZZ  -59093.3344
 -----------------------------------------------------------------
Archival summary:
1\1\compute-0-7.local\SP\ProcedureUnspecified\BasisUnspecified\1137\meili\MonMay1011:49:152021MonMay1011:49:152021\0\\#,ProcedureUnspecified,BasisUnspecified,\\0,1\N\H,1,1.03196\C,1,1.33861,2,114.503\O,3,1.25855,1,117.698,2,166.272,0\C,1,1.43493,2,117.053,3,163.001,0\H,5,1.06981,1,112.359,2,124.872,0\H,5,1.07038,1,110.676,2,6.17077,0\H,5,1.08831,1,104.463,2,-113.025,0\C,3,1.51514,1,122.99,2,-15.2257,0\H,9,1.06997,3,109.827,1,160.893,0\H,9,1.07,3,109.647,1,-79.276,0\H,9,1.08902,3,108.847,1,40.644,0\\\@

 Total job time:  4882.51s(wall), 30174.20s(cpu) 
 Mon May 10 11:49:15 2021

        *************************************************************
        *                                                           *
        *  Thank you very much for using Q-Chem.  Have a nice day.  *
        *                                                           *
        *************************************************************


Done Job For Fragment 1
calling putenv with: QCSCRATCH=/home/meili/scratch 
calling putenv with: QCTHREADS=8 
Doing General SCFMI
 Exchange:     0.1670 Hartree-Fock + 1.0000 wB97X-V + LR-HF
 Correlation:  1.0000 wB97X-V
 Using Euler-Maclaurin-Lebedev (99,590) quadrature formula
 Nonlocal Correlation:  VV10 with C = 0.0100 and b = 6.00 and scale = 1.00000
 Grid used for NLC:  SG-1 standard quadrature
performing fock build before subrot guess so that all methods have access
Printing subrot_rss_gen Method Specification:
Occupied Subspace Method is 0
Virtual Subspace Method is 0
Energy of the unrelaxed supersystem initial determinant -497.071183466473
write pseudocanon occs and virts to disk
write pseudocanon orbital energies to disk
Tolerance of ortho_decomp_scf: 1.00e-06
GDM subspace size: 20
Beginning the Orthogonal Decomposition of the Initial Supersystem Wavefunction
    1    -497.0563588282      1.78e-02     ortho_decomp Preconditoned Steepest Descent
    2    -497.0573553380      4.69e-04     ortho_decomp BFGS Step
    3    -497.0573582447      2.78e-05     ortho_decomp BFGS Step
    4    -497.0573582485      1.15e-06     ortho_decomp BFGS Step
    5    -497.0573582485      3.40e-08     ortho_decomp 00000 Convergence criterion met
 Hartree-Fock
 Hartree-Fock
 Hartree-Fock
Doing General SCFMI
 Exchange:     0.1670 Hartree-Fock + 1.0000 wB97X-V + LR-HF
 Correlation:  1.0000 wB97X-V
 Using Euler-Maclaurin-Lebedev (99,590) quadrature formula
 Nonlocal Correlation:  VV10 with C = 0.0100 and b = 6.00 and scale = 1.00000
 Grid used for NLC:  SG-1 standard quadrature
performing fock build at end of subrot_r(subrot) constructor so that all methods have access
<S^2> of initial wavefunction before polarization iterations 0.0000000000
Beginning iterations for the determination of the polarized wavefunction
Energy prior to optimization (guess energy) = -497.071183466473
Begin Timing: Total SCF Calculation
begin iterations for algorithm: DIIS         
the SCF tolerance is set to 1.00e-08
    1    -497.0711834665      9.92e-05     00000 
    2    -497.0718770671      4.33e-05     00000 
    3    -497.0719444314      1.86e-05     00000 
    4    -497.0719595482      9.15e-06     00000 
    5    -497.0719626928      3.67e-06     00000 
    6    -497.0719634173      1.99e-06     00000 
    7    -497.0719636331      7.59e-07     00000 
    8    -497.0719636723      2.58e-07     00000 
    9    -497.0719636763      9.85e-08     00000 
   10    -497.0719636768      4.44e-08     00000 
   11    -497.0719636768      3.08e-08     00000 
   12    -497.0719636768      9.12e-09     00000 Convergence criterion met
write pseudocanon occs and virts to disk
write pseudocanon orbital energies to disk
Timing for Total SCF: 1758.00s (wall), 10975.90s (cpu)
<S^2> of polarized wavefunction after polarization iterations 0.0000000000
relaxing scfmi constraint to allow all rotations in the entire AO span
Doing General SCFMI
 Exchange:     0.1670 Hartree-Fock + 1.0000 wB97X-V + LR-HF
 Correlation:  1.0000 wB97X-V
 Using Euler-Maclaurin-Lebedev (99,590) quadrature formula
 Nonlocal Correlation:  VV10 with C = 0.0100 and b = 6.00 and scale = 1.00000
 Grid used for NLC:  SG-1 standard quadrature
performing fock build at end of subrot_r(subrot) constructor so that all methods have access
<S^2> of polarized wavefunction before ct-allowed iterations 0.0000000000
Beginning iterations for the determination of the CT-Allowed wavefunction
Energy prior to optimization (guess energy) = -497.071963676827
Begin Timing: Total SCF Calculation
begin iterations for algorithm: DIIS         
the SCF tolerance is set to 1.00e-08
    1    -497.0719636768      8.58e-05     00000 
    2    -497.0728557370      9.24e-06     00000 
    3    -497.0728815955      1.39e-06     00000 
    4    -497.0728822476      6.69e-07     00000 
    5    -497.0728822874      2.62e-07     00000 
    6    -497.0728822945      8.48e-08     00000 
    7    -497.0728822954      1.64e-08     00000 
    8    -497.0728822954      7.23e-09     00000 Convergence criterion met
write pseudocanon occs and virts to disk
write pseudocanon orbital energies to disk
Timing for Total SCF: 971.00s (wall), 6701.84s (cpu)
<S^2> of ct_allowed wavefunction after ct-allowed iterations 0.0000000000

================================
        Results of EDA2         
================================
Basic EDA Quantities
--------------------
Fragment Energies (Ha):
1 -248.5315379138
2 -248.5372553376
--------------------
  E_prp (kJ/mol) = 0.0000
  E_frz (kJ/mol) = -6.2756
  E_pol (kJ/mol) = -2.0485
  E_vct (kJ/mol) = -2.4119
  E_int (kJ/mol) = -10.7359
--------------------


Initial Wavefunction Decomposition
--------------------
  --------------------
  Orthogonal Fragment Subspace Decomposition:
  --------------------
     E_elec   (ELEC)   (kJ/mol) = -14.4767
     E_pauli  (PAULI)  (kJ/mol) = 22.8750
     E_disp   (DISP)   (kJ/mol) = -14.6739
     --------------------
     Terms summing to E_pauli:
     --------------------
        E_kep_pauli       (kJ/mol) = 30.0230
        E_disp_free_pauli (kJ/mol) = -7.1480
  --------------------
  Classical Frozen Decomposition:
  --------------------
     E_cls_elec  (CLS ELEC)  (kJ/mol) = -5.2094
     E_cls_pauli (CLS PAULI) (kJ/mol) = -1.0662
    [E_mod_pauli (MOD PAULI) (kJ/mol) = 13.6077 (CLS PAULI - DISP from orthogonal decomposition) ]
  --------------------
--------------------

Simplified EDA Summary (kJ/mol)
--------------------
 PREPARATION     0.0000
 FROZEN          8.3983      (does not include dispersion)
[PAULI           22.8750]     (if this is negligible, then frozen describes electrostatics)
 DISPERSION      -14.6739
 POLARIZATION    -2.0485
 CHARGE TRANSFER -2.4119
 TOTAL           -10.7359     (PRP + FRZ + DISP + POL + CT)
--------------------

 --------------------------------------------------------------

                    Orbital Energies (a.u.)
 --------------------------------------------------------------

 Alpha MOs
 -- Occupied --
-19.1725 -19.1713 -14.4492 -14.4409 -10.3808 -10.3786 -10.3027 -10.2948
-10.2946 -10.2860  -1.1606  -1.1503  -1.0585  -1.0513  -0.9018  -0.8955
 -0.8368  -0.8309  -0.7063  -0.7047  -0.6364  -0.6284  -0.6003  -0.5894
 -0.5859  -0.5794  -0.5557  -0.5489  -0.5314  -0.5229  -0.5210  -0.5120
 -0.4960  -0.4919  -0.4682  -0.4649  -0.3655  -0.3612  -0.3587  -0.3564
 -- Virtual --
  0.0425   0.0658   0.0701   0.0715   0.0896   0.0919   0.0935   0.0982
  0.1044   0.1082   0.1184   0.1295   0.1342   0.1390   0.1414   0.1483
  0.1521   0.1541   0.1557   0.1652   0.1754   0.1800   0.1865   0.1926
  0.1984   0.2017   0.2136   0.2202   0.2236   0.2276   0.2337   0.2480
  0.2518   0.2546   0.2611   0.2627   0.2670   0.2690   0.2761   0.2790
  0.2831   0.2879   0.2915   0.3014   0.3054   0.3122   0.3144   0.3179
  0.3301   0.3328   0.3339   0.3400   0.3428   0.3473   0.3493   0.3509
  0.3568   0.3605   0.3644   0.3670   0.3715   0.3764   0.3807   0.3850
  0.3862   0.3883   0.3947   0.3979   0.4028   0.4072   0.4130   0.4189
  0.4264   0.4311   0.4333   0.4372   0.4453   0.4468   0.4504   0.4581
  0.4609   0.4660   0.4684   0.4765   0.4789   0.4838   0.4869   0.4905
  0.4937   0.4972   0.5006   0.5099   0.5142   0.5215   0.5223   0.5282
  0.5317   0.5370   0.5416   0.5453   0.5517   0.5534   0.5599   0.5685
  0.5793   0.5829   0.5895   0.5962   0.6016   0.6050   0.6106   0.6122
  0.6242   0.6282   0.6334   0.6436   0.6512   0.6583   0.6687   0.6754
  0.6810   0.6849   0.6945   0.7056   0.7067   0.7117   0.7183   0.7207
  0.7266   0.7311   0.7351   0.7398   0.7493   0.7505   0.7613   0.7650
  0.7700   0.7747   0.7799   0.7810   0.7871   0.7934   0.7996   0.8057
  0.8138   0.8166   0.8216   0.8268   0.8337   0.8376   0.8423   0.8505
  0.8593   0.8659   0.8773   0.8790   0.8901   0.8989   0.9023   0.9039
  0.9107   0.9210   0.9337   0.9431   0.9472   0.9710   0.9771   0.9851
  0.9964   1.0100   1.0170   1.0250   1.0298   1.0390   1.0531   1.0675
  1.0784   1.0871   1.0919   1.0965   1.1084   1.1155   1.1325   1.1505
  1.1556   1.1665   1.1804   1.1928   1.2014   1.2234   1.2273   1.2464
  1.2572   1.2739   1.2841   1.2989   1.3166   1.3176   1.3272   1.3433
  1.3579   1.3670   1.3774   1.3921   1.4107   1.4110   1.4182   1.4336
  1.4514   1.4570   1.4763   1.4848   1.5360   1.5426   1.5819   1.6199
  1.6289   1.6619   1.6887   1.7119   1.7551   1.7639   1.7786   1.7859
  1.7994   1.8219   1.8449   1.8673   1.8736   1.8820   1.8901   1.8912
  1.9043   1.9219   1.9232   1.9300   1.9458   1.9482   1.9592   1.9609
  1.9723   1.9880   1.9939   2.0112   2.0210   2.0273   2.0321   2.0482
  2.0651   2.0807   2.0909   2.0995   2.1269   2.1460   2.1573   2.1725
  2.1861   2.2000   2.2117   2.2314   2.2519   2.2546   2.2656   2.2788
  2.3038   2.3211   2.3580   2.3645   2.3844   2.3989   2.4042   2.4271
  2.4321   2.4637   2.4722   2.4805   2.4842   2.5050   2.5211   2.5330
  2.5399   2.5627   2.5892   2.5981   2.6216   2.6402   2.6442   2.6521
  2.6549   2.6681   2.6768   2.6815   2.6952   2.6982   2.7092   2.7661
  2.7984   2.8070   2.8194   2.8306   2.8385   2.8642   2.8747   2.8776
  2.8874   2.9094   2.9249   2.9291   2.9489   2.9555   2.9743   2.9859
  2.9927   3.0035   3.0503   3.0749   3.0920   3.1023   3.1250   3.1267
  3.1542   3.1646   3.1850   3.2085   3.2375   3.2562   3.2705   3.2849
  3.2930   3.2965   3.3216   3.3314   3.3443   3.3478   3.3632   3.3684
  3.3824   3.3898   3.4049   3.4072   3.4145   3.4461   3.4500   3.4568
  3.4650   3.4686   3.4793   3.4850   3.5080   3.5221   3.5328   3.5384
  3.5701   3.5748   3.5764   3.5863   3.6098   3.6242   3.6430   3.6680
  3.6831   3.6907   3.6955   3.7030   3.7240   3.7354   3.7735   3.7809
  3.8414   3.8712   3.8893   3.8994   3.9331   3.9408   3.9855   4.0008
  4.0236   4.0429   4.0618   4.0883   4.1476   4.1570   4.1878   4.1979
  4.2422   4.2918   4.3113   4.3497   4.3745   4.4274   4.5110   4.5279
  4.5379   4.5810   4.5997   4.6482   4.6534   4.7056   4.7336   4.7355
  4.7460   4.7904   4.8453   4.8563   4.9512   4.9715   4.9861   5.0469
  5.0517   5.0680   5.2017   5.2137   5.2399   5.2683   5.2708   5.2752
  5.3414   5.3605   5.4004   5.4192   5.4246   5.4463   5.4744   5.5034
  5.6112   5.6335   5.6947   5.7082   5.7283   5.7383   5.7500   5.7825
  5.9669   5.9875   6.0987   6.1647   6.2117   6.2118   6.4562   6.4691
  6.6756   6.6828   6.6933   6.7168   6.7979   6.8241   7.0077   7.0234
  7.2177   7.2618   7.3376   7.3471  22.5974  22.6873  22.7614  22.8285
 23.4375  23.5318  32.7372  32.7662  44.4052  44.4201
 --------------------------------------------------------------

          Ground-State Mulliken Net Atomic Charges

     Atom                 Charge (a.u.)
  ----------------------------------------
      1 C                    -0.322882
      2 H                    -0.141426
      3 C                     0.456709
      4 O                    -0.573409
      5 N                    -0.003167
      6 H                     0.169900
      7 C                    -0.774339
      8 H                     0.264744
      9 H                     0.186467
     10 H                     0.202398
     11 H                     0.279536
     12 H                     0.214659
     13 C                    -0.607967
     14 H                     0.111538
     15 C                     0.467622
     16 O                    -0.573175
     17 N                    -0.033603
     18 H                     0.234069
     19 C                    -0.646597
     20 H                     0.208033
     21 H                     0.236943
     22 H                     0.167700
     23 H                     0.268622
     24 H                     0.207622
  ----------------------------------------
  Sum of atomic charges =     0.000000

 -----------------------------------------------------------------
                    Cartesian Multipole Moments
 -----------------------------------------------------------------
    Charge (ESU x 10^10)
                -0.0000
    Dipole Moment (Debye)
         X       0.3421      Y       2.8866      Z       0.9933
       Tot       3.0718
    Quadrupole Moments (Debye-Ang)
        XX     -75.6495     XY      38.1468     YY     106.3066
        XZ      31.3794     YZ     101.9282     ZZ      -9.2106
    Octopole Moments (Debye-Ang^2)
       XXX   -3195.2364    XXY   -1880.8950    XYY    1144.3196
       YYY    2065.2808    XXZ   -1420.3542    XYZ    1622.2438
       YYZ    3566.4047    XZZ     555.5107    YZZ    1618.0014
       ZZZ   -2492.2198
    Hexadecapole Moments (Debye-Ang^3)
      XXXX  -87625.5426   XXXY  -88710.2484   XXYY  -55833.7877
      XYYY   12671.9271   YYYY  -16339.4474   XXXZ  -70569.9065
      XXYZ  -33306.9895   XYYZ   48509.3259   YYYZ   79939.3808
      XXZZ  -34928.7944   XYZZ   34436.2313   YYZZ   63934.9702
      XZZZ  -10793.9212   YZZZ  -22790.4989   ZZZZ -153424.7354
 -----------------------------------------------------------------
Archival summary:
1\1\compute-0-7.local\SP\ProcedureUnspecified\BasisUnspecified\22614\meili\MonMay1013:12:212021MonMay1013:12:212021\0\\#,ProcedureUnspecified,BasisUnspecified,\\0,1\N\H,1,1.0005\C,1,1.3438,2,115.633\O,3,1.2675,1,117.975,2,-174.454,0\C,1,1.46411,2,117.123,3,-176.436,0\H,5,1.03143,1,107.51,2,-129.478,0\H,5,1.06978,1,110.594,2,109.668,0\H,5,1.07025,1,109.951,2,-9.8022,0\C,3,1.55447,1,112.78,2,-8.25494,0\H,9,1.06992,3,109.563,1,142.462,0\H,9,1.07028,3,109.486,1,-97.5347,0\H,9,1.14499,3,109.353,1,22.4351,0\H,12,2.01901,9,154.591,3,105.249,0\C,13,1.08902,12,140.07,9,-122.82,0\H,14,1.06997,13,109.811,12,-69.4916,0\H,14,1.07,13,109.63,12,170.698,0\C,14,1.51514,13,108.847,12,50.7675,0\O,17,1.25855,14,119.296,13,-140.877,0\N,17,1.33861,14,122.99,13,40.644,0\H,19,1.03196,17,114.503,14,-15.2257,0\C,19,1.43493,17,125.898,14,-176.477,0\H,21,1.06981,19,112.359,17,-74.2996,0\H,21,1.07038,19,110.676,17,166.999,0\H,21,1.08831,19,104.463,17,47.8032,0\\\@

 Total job time:  14587.62s(wall), 32065.13s(cpu) 
 Mon May 10 13:12:21 2021

        *************************************************************
        *                                                           *
        *  Thank you very much for using Q-Chem.  Have a nice day.  *
        *                                                           *
        *************************************************************


