                  Welcome to Q-Chem
     A Quantum Leap Into The Future Of Chemistry


 Q-Chem 5.2 (devel), Q-Chem, Inc., Pleasanton, CA (2019)

 Yihan Shao,  Zhengting Gan,  E. Epifanovsky,  A. T. B. Gilbert,  M. Wormit,  
 J. Kussmann,  A. W. Lange,  A. Behn,  Jia Deng,  Xintian Feng,  D. Ghosh,  
 M. Goldey,  P. R. Horn,  L. D. Jacobson,  I. Kaliman,  T. Kus,  A. Landau,  
 Jie Liu,  E. I. Proynov,  R. M. Richard,  R. P. Steele,  E. J. Sundstrom,  
 H. L. Woodcock III,  P. M. Zimmerman,  D. Zuev,  B. Albrecht,  E. Alguire,  
 S. A. Baeppler,  D. Barton,  Z. Benda,  Y. A. Bernard,  E. J. Berquist,  
 K. B. Bravaya,  H. Burton,  D. Casanova,  Chun-Min Chang,  Yunqing Chen,  
 A. Chien,  K. D. Closser,  M. P. Coons,  S. Coriani,  S. Dasgupta,  
 A. L. Dempwolff,  M. Diedenhofen,  Hainam Do,  R. G. Edgar,  Po-Tung Fang,  
 S. Faraji,  S. Fatehi,  Qingguo Feng,  K. D. Fenk,  J. Fosso-Tande,  
 J. Gayvert,  Qinghui Ge,  A. Ghysels,  G. Gidofalvi,  J. Gomes,  
 J. Gonthier,  A. Gunina,  D. Hait,  M. W. D. Hanson-Heine,  
 P. H. P. Harbach,  A. W. Hauser,  M. F. Herbst,  J. E. Herr,  
 E. G. Hohenstein,  Z. C. Holden,  Kerwin Hui,  B. C. Huynh,  T.-C. Jagau,  
 Hyunjun Ji,  B. Kaduk,  K. Khistyaev,  Jaehoon Kim,  P. Klunzinger,  K. Koh,  
 D. Kosenkov,  L. Koulias,  T. Kowalczyk,  C. M. Krauter,  A. Kunitsa,  
 Ka Un Lao,  A. Laurent,  K. V. Lawler,  Joonho Lee,  D. Lefrancois,  
 S. Lehtola,  D. S. Levine,  Yi-Pei Li,  You-Sheng Lin,  Fenglai Liu,  
 E. Livshits,  A. Luenser,  P. Manohar,  E. Mansoor,  S. F. Manzer,  
 Shan-Ping Mao,  Yuezhi Mao,  N. Mardirossian,  A. V. Marenich,  
 T. Markovich,  L. A. Martinez-Martinez,  S. A. Maurer,  N. J. Mayhall,  
 S. C. McKenzie,  J.-M. Mewes,  P. Morgante,  A. F. Morrison,  
 J. W. Mullinax,  K. Nanda,  T. S. Nguyen-Beck,  R. Olivares-Amaya,  
 J. A. Parkhill,  Zheng Pei,  T. M. Perrine,  F. Plasser,  P. Pokhilko,  
 S. Prager,  A. Prociuk,  E. Ramos,  D. R. Rehn,  F. Rob,  M. Scheurer,  
 M. Schneider,  N. Sergueev,  S. M. Sharada,  S. Sharma,  D. W. Small,  
 T. Stauch,  T. Stein,  Yu-Chuan Su,  A. J. W. Thom,  A. Tkatchenko,  
 T. Tsuchimochi,  N. M. Tubman,  L. Vogt,  M. L. Vidal,  O. Vydrov,  
 M. A. Watson,  J. Wenzel,  M. de Wergifosse,  T. A. Wesolowski,  A. White,  
 J. Witte,  A. Yamada,  Jun Yang,  K. Yao,  S. Yeganeh,  S. R. Yost,  
 Zhi-Qiang You,  A. Zech,  Igor Ying Zhang,  Xing Zhang,  Yan Zhao,  
 Ying Zhu,  B. R. Brooks,  G. K. L. Chan,  C. J. Cramer,  M. S. Gordon,  
 W. J. Hehre,  A. Klamt,  M. W. Schmidt,  C. D. Sherrill,  D. G. Truhlar,  
 A. Aspuru-Guzik,  R. Baer,  A. T. Bell,  N. A. Besley,  Jeng-Da Chai,  
 A. E. DePrince, III,  R. A. DiStasio Jr.,  A. Dreuw,  B. D. Dunietz,  
 T. R. Furlani,  Chao-Ping Hsu,  Yousung Jung,  Jing Kong,  D. S. Lambrecht,  
 WanZhen Liang,  C. Ochsenfeld,  V. A. Rassolov,  L. V. Slipchenko,  
 J. E. Subotnik,  T. Van Voorhis,  J. M. Herbert,  A. I. Krylov,  
 P. M. W. Gill,  M. Head-Gordon

 Contributors to earlier versions of Q-Chem not listed above: 
 R. D. Adamson,  B. Austin,  J. Baker,  G. J. O. Beran,  K. Brandhorst,  
 S. T. Brown,  E. F. C. Byrd,  A. K. Chakraborty,  C.-L. Cheng,  
 Siu Hung Chien,  D. M. Chipman,  D. L. Crittenden,  H. Dachsel,  
 R. J. Doerksen,  A. D. Dutoi,  L. Fusti-Molnar,  W. A. Goddard III,  
 A. Golubeva-Zadorozhnaya,  S. R. Gwaltney,  G. Hawkins,  A. Heyden,  
 S. Hirata,  G. Kedziora,  F. J. Keil,  C. Kelley,  Jihan Kim,  R. A. King,  
 R. Z. Khaliullin,  P. P. Korambath,  W. Kurlancheek,  A. M. Lee,  M. S. Lee,  
 S. V. Levchenko,  Ching Yeh Lin,  D. Liotard,  R. C. Lochan,  I. Lotan,  
 P. E. Maslen,  N. Nair,  D. P. O'Neill,  D. Neuhauser,  E. Neuscamman,  
 C. M. Oana,  R. Olson,  B. Peters,  R. Peverati,  P. A. Pieniazek,  
 Y. M. Rhee,  J. Ritchie,  M. A. Rohrdanz,  E. Rosta,  N. J. Russ,  
 H. F. Schaefer III,  N. E. Schultz,  N. Shenvi,  A. C. Simmonett,  A. Sodt,  
 D. Stuck,  K. S. Thanthiriwatte,  V. Vanovschi,  Tao Wang,  A. Warshel,  
 C. F. Williams,  Q. Wu,  X. Xu,  W. Zhang

 Please cite Q-Chem as follows:
 Y. Shao et al., Mol. Phys. 113, 184-215 (2015)
 DOI: 10.1080/00268976.2014.952696

 Q-Chem 5.2.1 for Intel X86 EM64T Linux

 Parts of Q-Chem use Armadillo 8.300.2 (Tropical Shenanigans).
 http://arma.sourceforge.net/

 Q-Chem begins on Mon May 10 09:09:13 2021  

compute-0-12.local
Host: 0

     Scratch files written to /home/meili/scratch/qchem28992//
NAlpha2: 80
NElect   80
Mult     1

 Q-Chem warning in module libgen/rem_setup.C, line 2813:

 Neither GIA nor STOLL is specified by user. Use STOLL as the default


Checking the input file for inconsistencies... 	...done.

--------------------------------------------------------------
User input:
--------------------------------------------------------------
$comment
1vex_ff99sbtip3p_nvt_e8_100ns_m0484_005CYX_006LEU_033SER_034LEU.pdb
$end

$molecule
0 1
--
0 1
C    10.8690000000   28.4670000000   26.8360000000
H    11.8200000000   28.9050000000   26.5650000000
C    10.8570000000   27.1150000000   26.1300000000
O     9.9300000000   26.6350000000   25.4990000000
N    12.0000000000   26.4260000000   26.3460000000
H    12.7360000000   26.9690000000   26.8270000000
C    12.3440000000   25.1230000000   25.7880000000
H    11.6880000000   25.0140000000   24.9150000000
H    10.7990000000   28.3410000000   27.8960000000
H    10.0410000000   29.0820000000   26.5510000000
H    13.3720000000   25.0980000000   25.4930000000
H    12.2130000000   24.3310000000   26.4960000000
--
0 1
C    14.3430000000   30.2370000000   24.9580000000
H    13.4190000000   30.3420000000   25.4340000000
C    14.2060000000   29.1090000000   23.8780000000
O    15.1820000000   28.3990000000   23.6390000000
N    12.9990000000   28.8560000000   23.3530000000
H    12.1910000000   29.3430000000   23.7260000000
C    12.6750000000   27.8400000000   22.3250000000
H    12.9210000000   26.8730000000   22.7520000000
H    14.6160000000   31.1590000000   24.4880000000
H    15.1000000000   29.9810000000   25.6690000000
H    11.6340000000   27.8810000000   22.0820000000
H    13.2270000000   28.0140000000   21.4250000000
$end

$rem
JOBTYPE			EDA
EDA2			1
method			wB97X-V
BASIS			def2-TZVPD
XC_GRID			000099000590
NL_GRID			1
UNRESTRICTED		FALSE
MAX_SCF_CYCLES		200
SYMMETRY		FALSE
SYM_IGNORE		TRUE
MEM_STATIC		2000
BASIS_LIN_DEP_THRESH 	6
THRESH 			14
SCF_CONVERGENCE 	8
SCF_PRINT_FRGM 		TRUE
$end
--------------------------------------------------------------
 ----------------------------------------------------------------
             Standard Nuclear Orientation (Angstroms)
    I     Atom           X                Y                Z
 ----------------------------------------------------------------
    1      C      10.8690000000    28.4670000000    26.8360000000
    2      H      11.8200000000    28.9050000000    26.5650000000
    3      C      10.8570000000    27.1150000000    26.1300000000
    4      O       9.9300000000    26.6350000000    25.4990000000
    5      N      12.0000000000    26.4260000000    26.3460000000
    6      H      12.7360000000    26.9690000000    26.8270000000
    7      C      12.3440000000    25.1230000000    25.7880000000
    8      H      11.6880000000    25.0140000000    24.9150000000
    9      H      10.7990000000    28.3410000000    27.8960000000
   10      H      10.0410000000    29.0820000000    26.5510000000
   11      H      13.3720000000    25.0980000000    25.4930000000
   12      H      12.2130000000    24.3310000000    26.4960000000
   13      C      14.3430000000    30.2370000000    24.9580000000
   14      H      13.4190000000    30.3420000000    25.4340000000
   15      C      14.2060000000    29.1090000000    23.8780000000
   16      O      15.1820000000    28.3990000000    23.6390000000
   17      N      12.9990000000    28.8560000000    23.3530000000
   18      H      12.1910000000    29.3430000000    23.7260000000
   19      C      12.6750000000    27.8400000000    22.3250000000
   20      H      12.9210000000    26.8730000000    22.7520000000
   21      H      14.6160000000    31.1590000000    24.4880000000
   22      H      15.1000000000    29.9810000000    25.6690000000
   23      H      11.6340000000    27.8810000000    22.0820000000
   24      H      13.2270000000    28.0140000000    21.4250000000
 ----------------------------------------------------------------
 Nuclear Repulsion Energy =         540.40321674 hartrees
 There are       40 alpha and       40 beta electrons
 Requested basis set is def2-TZVPD
 There are 202 shells and 502 basis functions

 Total QAlloc Memory Limit   2000 MB
 Mega-Array Size      1956 MB
 MEM_STATIC part      2000 MB
 A cutoff of  1.0D-14 yielded  18454 shell pairs
 There are    114760 function pairs (    143207 Cartesian)
 Smallest overlap matrix eigenvalue = 3.38E-06

 Scale SEOQF with 1.000000e-02/1.000000e-03/1.000000e-03

 Standard Electronic Orientation quadrupole field applied
 Nucleus-field energy     =     0.0000000368 hartrees

 -----------------------------------------------------------------------
  General SCF calculation program by
  Eric Jon Sundstrom, Paul Horn, Yuezhi Mao, Dmitri Zuev, Alec White,
  David Stuck, Shaama M.S., Shane Yost, Joonho Lee, David Small,
  Daniel Levine, Susi Lehtola, Hugh Burton, Evgeny Epifanovsky,
  Bang C. Huynh
 -----------------------------------------------------------------------
================================================================
                 ALMO-EDA with the EDA2 driver                  
================================================================
 The second-generation ALMO-EDA (for DFT):                      
 P. R. Horn, Y. Mao and M. Head-Gordon, PCCP, 18, 23067 (2016)  
 Decomposition of the frozen energy:                            
 P. R. Horn, Y. Mao and M. Head-Gordon, JCP, 144, 114107 (2016) 
 FERF model for polarization:                                   
 P. R. Horn and M. Head-Gordon, JCP, 143, 114111 (2015)         
Using eda2 option set 1
Option set summary: Frozen orbital wavefunction, initial wavefunction decomposition, and nDQ polarization.
--------------------------------
Printing EDA Options
--------------------------------
eda_child_super_basis      0
fragmo_guess_mode          0
child_mp                   1
child_mp_orders            232
cls_elec                   1
cls_disp                   0
scfmi_mode                 1
scfmi_occs                 0
scfmi_virts                0
frz_relax                  0
frz_relax_method           0
dc_pen_start               0
dc_pen_conv                0
dc_pen_increment           0
dc_pen_steps               0
dc_pen_thresh_factor       0
dc_pen_pre_newton_thresh   0
frz_ortho_decomp           1
frz_ortho_decomp_conv      6
frgm_method                2
scfmi_freeze_ss            0
separate_rehyb             0
plot_diff_den              0
eda_nocv                   0
eda_vct_relax              1
disp_free_x                0
disp_free_c                0
eda_bsse                   0
eda_pct_a                  0
eda_covp                   0
--------------------------------
Attempting to make child job directory: /home/meili/scratch/qchem28992//Frg1/
Attempting to make child job directory: /home/meili/scratch/qchem28992//Frg2/
Creating input file /home/meili/scratch/qchem28992/Frg1.input
using default PutDataFrgm: nothing
calling putenv with: QCSCRATCH=/home/meili/scratch/qchem28992/ 
Spawning Job For Fragment 0
                  Welcome to Q-Chem
     A Quantum Leap Into The Future Of Chemistry


 Q-Chem 5.2 (devel), Q-Chem, Inc., Pleasanton, CA (2019)

 Yihan Shao,  Zhengting Gan,  E. Epifanovsky,  A. T. B. Gilbert,  M. Wormit,  
 J. Kussmann,  A. W. Lange,  A. Behn,  Jia Deng,  Xintian Feng,  D. Ghosh,  
 M. Goldey,  P. R. Horn,  L. D. Jacobson,  I. Kaliman,  T. Kus,  A. Landau,  
 Jie Liu,  E. I. Proynov,  R. M. Richard,  R. P. Steele,  E. J. Sundstrom,  
 H. L. Woodcock III,  P. M. Zimmerman,  D. Zuev,  B. Albrecht,  E. Alguire,  
 S. A. Baeppler,  D. Barton,  Z. Benda,  Y. A. Bernard,  E. J. Berquist,  
 K. B. Bravaya,  H. Burton,  D. Casanova,  Chun-Min Chang,  Yunqing Chen,  
 A. Chien,  K. D. Closser,  M. P. Coons,  S. Coriani,  S. Dasgupta,  
 A. L. Dempwolff,  M. Diedenhofen,  Hainam Do,  R. G. Edgar,  Po-Tung Fang,  
 S. Faraji,  S. Fatehi,  Qingguo Feng,  K. D. Fenk,  J. Fosso-Tande,  
 J. Gayvert,  Qinghui Ge,  A. Ghysels,  G. Gidofalvi,  J. Gomes,  
 J. Gonthier,  A. Gunina,  D. Hait,  M. W. D. Hanson-Heine,  
 P. H. P. Harbach,  A. W. Hauser,  M. F. Herbst,  J. E. Herr,  
 E. G. Hohenstein,  Z. C. Holden,  Kerwin Hui,  B. C. Huynh,  T.-C. Jagau,  
 Hyunjun Ji,  B. Kaduk,  K. Khistyaev,  Jaehoon Kim,  P. Klunzinger,  K. Koh,  
 D. Kosenkov,  L. Koulias,  T. Kowalczyk,  C. M. Krauter,  A. Kunitsa,  
 Ka Un Lao,  A. Laurent,  K. V. Lawler,  Joonho Lee,  D. Lefrancois,  
 S. Lehtola,  D. S. Levine,  Yi-Pei Li,  You-Sheng Lin,  Fenglai Liu,  
 E. Livshits,  A. Luenser,  P. Manohar,  E. Mansoor,  S. F. Manzer,  
 Shan-Ping Mao,  Yuezhi Mao,  N. Mardirossian,  A. V. Marenich,  
 T. Markovich,  L. A. Martinez-Martinez,  S. A. Maurer,  N. J. Mayhall,  
 S. C. McKenzie,  J.-M. Mewes,  P. Morgante,  A. F. Morrison,  
 J. W. Mullinax,  K. Nanda,  T. S. Nguyen-Beck,  R. Olivares-Amaya,  
 J. A. Parkhill,  Zheng Pei,  T. M. Perrine,  F. Plasser,  P. Pokhilko,  
 S. Prager,  A. Prociuk,  E. Ramos,  D. R. Rehn,  F. Rob,  M. Scheurer,  
 M. Schneider,  N. Sergueev,  S. M. Sharada,  S. Sharma,  D. W. Small,  
 T. Stauch,  T. Stein,  Yu-Chuan Su,  A. J. W. Thom,  A. Tkatchenko,  
 T. Tsuchimochi,  N. M. Tubman,  L. Vogt,  M. L. Vidal,  O. Vydrov,  
 M. A. Watson,  J. Wenzel,  M. de Wergifosse,  T. A. Wesolowski,  A. White,  
 J. Witte,  A. Yamada,  Jun Yang,  K. Yao,  S. Yeganeh,  S. R. Yost,  
 Zhi-Qiang You,  A. Zech,  Igor Ying Zhang,  Xing Zhang,  Yan Zhao,  
 Ying Zhu,  B. R. Brooks,  G. K. L. Chan,  C. J. Cramer,  M. S. Gordon,  
 W. J. Hehre,  A. Klamt,  M. W. Schmidt,  C. D. Sherrill,  D. G. Truhlar,  
 A. Aspuru-Guzik,  R. Baer,  A. T. Bell,  N. A. Besley,  Jeng-Da Chai,  
 A. E. DePrince, III,  R. A. DiStasio Jr.,  A. Dreuw,  B. D. Dunietz,  
 T. R. Furlani,  Chao-Ping Hsu,  Yousung Jung,  Jing Kong,  D. S. Lambrecht,  
 WanZhen Liang,  C. Ochsenfeld,  V. A. Rassolov,  L. V. Slipchenko,  
 J. E. Subotnik,  T. Van Voorhis,  J. M. Herbert,  A. I. Krylov,  
 P. M. W. Gill,  M. Head-Gordon

 Contributors to earlier versions of Q-Chem not listed above: 
 R. D. Adamson,  B. Austin,  J. Baker,  G. J. O. Beran,  K. Brandhorst,  
 S. T. Brown,  E. F. C. Byrd,  A. K. Chakraborty,  C.-L. Cheng,  
 Siu Hung Chien,  D. M. Chipman,  D. L. Crittenden,  H. Dachsel,  
 R. J. Doerksen,  A. D. Dutoi,  L. Fusti-Molnar,  W. A. Goddard III,  
 A. Golubeva-Zadorozhnaya,  S. R. Gwaltney,  G. Hawkins,  A. Heyden,  
 S. Hirata,  G. Kedziora,  F. J. Keil,  C. Kelley,  Jihan Kim,  R. A. King,  
 R. Z. Khaliullin,  P. P. Korambath,  W. Kurlancheek,  A. M. Lee,  M. S. Lee,  
 S. V. Levchenko,  Ching Yeh Lin,  D. Liotard,  R. C. Lochan,  I. Lotan,  
 P. E. Maslen,  N. Nair,  D. P. O'Neill,  D. Neuhauser,  E. Neuscamman,  
 C. M. Oana,  R. Olson,  B. Peters,  R. Peverati,  P. A. Pieniazek,  
 Y. M. Rhee,  J. Ritchie,  M. A. Rohrdanz,  E. Rosta,  N. J. Russ,  
 H. F. Schaefer III,  N. E. Schultz,  N. Shenvi,  A. C. Simmonett,  A. Sodt,  
 D. Stuck,  K. S. Thanthiriwatte,  V. Vanovschi,  Tao Wang,  A. Warshel,  
 C. F. Williams,  Q. Wu,  X. Xu,  W. Zhang

 Please cite Q-Chem as follows:
 Y. Shao et al., Mol. Phys. 113, 184-215 (2015)
 DOI: 10.1080/00268976.2014.952696

 Q-Chem 5.2.1 for Intel X86 EM64T Linux

 Parts of Q-Chem use Armadillo 8.300.2 (Tropical Shenanigans).
 http://arma.sourceforge.net/

 Q-Chem begins on Mon May 10 09:10:38 2021  

compute-0-12.local
Host: 0

     Scratch files written to /home/meili/scratch/qchem28992//Frg1//
NAlpha2: 40
NElect   40
Mult     1

Checking the input file for inconsistencies... 	...done.

--------------------------------------------------------------
User input:
--------------------------------------------------------------
$molecule
0 1
 6	10.8690000000	28.4670000000	26.8360000000
 1	11.8200000000	28.9050000000	26.5650000000
 6	10.8570000000	27.1150000000	26.1300000000
 8	9.9300000000	26.6350000000	25.4990000000
 7	12.0000000000	26.4260000000	26.3460000000
 1	12.7360000000	26.9690000000	26.8270000000
 6	12.3440000000	25.1230000000	25.7880000000
 1	11.6880000000	25.0140000000	24.9150000000
 1	10.7990000000	28.3410000000	27.8960000000
 1	10.0410000000	29.0820000000	26.5510000000
 1	13.3720000000	25.0980000000	25.4930000000
 1	12.2130000000	24.3310000000	26.4960000000
$end
$rem
EDA2		1
METHOD		WB97X-V
BASIS		DEF2-TZVPD
XC_GRID		000099000590
NL_GRID		1
UNRESTRICTED		FALSE
MAX_SCF_CYCLES		200
SYMMETRY		FALSE
SYM_IGNORE		TRUE
BASIS_LIN_DEP_THRESH		6
THRESH		14
SCF_CONVERGENCE		8
SCF_PRINT_FRGM		TRUE
!required keywords
JOBTYPE		SP
SYM_IGNORE		TRUE
SUBSYSTEM		TRUE
GEN_SCFMAN		TRUE
CHILD_INSTRUCTION		2
SYM_IGNORE		TRUE
SCFMI		0
RI_K 0		
PARI_K 0		
MIN_PARI_K 0		
IARI_K 0		
OCC_RI_K 0		
PURECART		1111
MEM_STATIC		2000
MEM_TOTAL		2000
GUI		0
CHILD_MP		1
CHILD_MP_ORDERS		232
FRZ_RELAX		0
FRZ_RELAX_METHOD		0
EDA_CLS_ELEC		1
EDA_CLS_DISP		0
FRZ_ORTHO_DECOMP		1
EDA2		FALSE
FRGM_METHOD		FALSE
CIS_N_ROOTS  0
LOCAL_CIS    0
CIS_RLX_DNS  1
$end
--------------------------------------------------------------
 ----------------------------------------------------------------
             Standard Nuclear Orientation (Angstroms)
    I     Atom           X                Y                Z
 ----------------------------------------------------------------
    1      C      10.8690000000    28.4670000000    26.8360000000
    2      H      11.8200000000    28.9050000000    26.5650000000
    3      C      10.8570000000    27.1150000000    26.1300000000
    4      O       9.9300000000    26.6350000000    25.4990000000
    5      N      12.0000000000    26.4260000000    26.3460000000
    6      H      12.7360000000    26.9690000000    26.8270000000
    7      C      12.3440000000    25.1230000000    25.7880000000
    8      H      11.6880000000    25.0140000000    24.9150000000
    9      H      10.7990000000    28.3410000000    27.8960000000
   10      H      10.0410000000    29.0820000000    26.5510000000
   11      H      13.3720000000    25.0980000000    25.4930000000
   12      H      12.2130000000    24.3310000000    26.4960000000
 ----------------------------------------------------------------
 Nuclear Repulsion Energy =         180.27108535 hartrees
 There are       20 alpha and       20 beta electrons
 Requested basis set is def2-TZVPD
 There are 101 shells and 251 basis functions

 Total QAlloc Memory Limit   2000 MB
 Mega-Array Size      1956 MB
 MEM_STATIC part      2000 MB

                       Distance Matrix (Angstroms)
             C (  1)   H (  2)   C (  3)   O (  4)   N (  5)   H (  6)
   H (  2)  1.081520
   C (  3)  1.525282  2.078628
   O (  4)  2.454692  3.140280  1.219791
   N (  5)  2.384312  2.495156  1.351971  2.246328
   H (  6)  2.393695  2.157729  2.009419  3.122303  1.033395
   C (  7)  3.802140  3.896387  2.509222  2.863051  1.458598  2.154275
   H (  8)  4.035370  4.228452  2.565343  2.461557  2.034416  2.928493
   H (  9)  1.069755  1.769773  2.150627  3.067769  2.740826  2.603289
   H ( 10)  1.070063  1.787838  2.170757  2.665865  3.306666  3.435691
   H ( 11)  4.406679  4.248663  3.286226  3.769585  2.091310  2.384259
   H ( 12)  4.362159  4.591371  3.118228  3.393304  2.111136  2.709637
             C (  7)   H (  8)   H (  9)   H ( 10)   H ( 11)
   H (  8)  1.097427
   H (  9)  4.145626  4.554735
   H ( 10)  4.643238  4.683773  1.712504
   H ( 11)  1.069782  1.782413  4.786626  5.299734
   H ( 12)  1.070369  1.800465  4.476550  5.224233  1.713937

 A cutoff of  1.0D-14 yielded   5031 shell pairs
 There are     31653 function pairs (     39811 Cartesian)
 Smallest overlap matrix eigenvalue = 7.09E-06

 Scale SEOQF with 1.000000e-02/1.000000e-03/1.000000e-03

 Standard Electronic Orientation quadrupole field applied
 Nucleus-field energy     =     0.0000000094 hartrees
 Guess from superposition of atomic densities
 Warning:  Energy on first SCF cycle will be non-variational
 SAD guess density has 40.000000 electrons

 -----------------------------------------------------------------------
  General SCF calculation program by
  Eric Jon Sundstrom, Paul Horn, Yuezhi Mao, Dmitri Zuev, Alec White,
  David Stuck, Shaama M.S., Shane Yost, Joonho Lee, David Small,
  Daniel Levine, Susi Lehtola, Hugh Burton, Evgeny Epifanovsky,
  Bang C. Huynh
 -----------------------------------------------------------------------
 Exchange:     0.1670 Hartree-Fock + 1.0000 wB97X-V + LR-HF
 Correlation:  1.0000 wB97X-V
 Using Euler-Maclaurin-Lebedev (99,590) quadrature formula
 Nonlocal Correlation:  VV10 with C = 0.0100 and b = 6.00 and scale = 1.00000
 Grid used for NLC:  SG-1 standard quadrature
Energy prior to optimization (guess energy) = -248.424708745629
Begin Timing: Total SCF Calculation
begin iterations for algorithm: DIIS         
the SCF tolerance is set to 1.00e-08
    1    -248.4247087456      4.17e-03     00000 
    2    -248.3731279935      5.59e-03     00000 
    3    -248.5387819770      5.15e-04     00000 
    4    -248.5403896826      2.23e-04     00000 
    5    -248.5407247278      5.58e-05     00000 
    6    -248.5407527847      1.97e-05     00000 
    7    -248.5407577829      5.41e-06     00000 
    8    -248.5407584346      1.60e-06     00000 
    9    -248.5407584773      5.84e-07     00000 
   10    -248.5407584813      1.07e-07     00000 
   11    -248.5407584815      2.15e-08     00000 
   12    -248.5407584815      7.33e-09     00000 Convergence criterion met
Timing for Total SCF: 265.00s (wall), 1463.57s (cpu)
Multipole orders to be included
        2
        3
computing dipole RHS
computing quadrupole RHS
total number of RHS in solve_reponses: 8
RHS batch sizes
        8
Beginning Block Conjugate Gradient Iterations. Batch Number: 0
computing hessian-vector products by finite difference
              1      4.85e-01     00000 Conjugate Gradient Iteration
computing hessian-vector products by finite difference
              2      1.63e-01     00000 Conjugate Gradient Iteration
computing hessian-vector products by finite difference
              3      4.18e-02     00000 Conjugate Gradient Iteration
computing hessian-vector products by finite difference
              4      1.03e-02     00000 Conjugate Gradient Iteration
computing hessian-vector products by finite difference
              5      1.97e-03     00000 Conjugate Gradient Iteration
computing hessian-vector products by finite difference
              6      4.00e-04     00000 Conjugate Gradient Iteration
computing hessian-vector products by finite difference
              7      5.71e-05     00000 Conjugate Gradient Iteration
computing hessian-vector products by finite difference
              8      8.81e-06     00000 Conjugate Gradient Iteration
computing hessian-vector products by finite difference
              9      1.38e-06     00000 Conjugate Gradient Iteration
computing hessian-vector products by finite difference
             10      1.91e-07     00000 Conjugate Gradient Iteration
computing hessian-vector products by finite difference
             11      3.14e-08     00000 Conjugate Gradient Iteration
computing hessian-vector products by finite difference
             12      5.26e-09     00000 CG Converged
batch 0 complete
Done Calculating Responses
TESTING ORTHOGONALIZATION OF MULTIPOLE BASIS
Multipole virts passed orthogonality test
Virts Per Order
           60
          100

 --------------------------------------------------------------

                    Orbital Energies (a.u.)
 --------------------------------------------------------------

 Alpha MOs
 -- Occupied --
-19.1694 -14.4345 -10.3678 -10.2983 -10.2709  -1.1640  -1.0510  -0.8928
 -0.8207  -0.6923  -0.6254  -0.5839  -0.5777  -0.5425  -0.5183  -0.5116
 -0.4940  -0.4672  -0.3585  -0.3560
 -- Virtual --
  0.0537   0.0782   0.0938   0.1044   0.1091   0.1243   0.1335   0.1391
  0.1474   0.1647   0.1658   0.1825   0.1903   0.2002   0.2097   0.2294
  0.2315   0.2396   0.2533   0.2646   0.2744   0.2812   0.2944   0.2979
  0.3021   0.3117   0.3173   0.3309   0.3409   0.3529   0.3599   0.3608
  0.3680   0.3758   0.3804   0.3861   0.3941   0.4066   0.4099   0.4136
  0.4311   0.4382   0.4527   0.4590   0.4696   0.4708   0.4757   0.4876
  0.4992   0.5070   0.5101   0.5158   0.5261   0.5401   0.5502   0.5597
  0.5628   0.5809   0.5915   0.6037   0.6165   0.6302   0.6497   0.6611
  0.6761   0.6914   0.7116   0.7229   0.7287   0.7416   0.7611   0.7631
  0.7777   0.7885   0.8006   0.8133   0.8226   0.8232   0.8354   0.8487
  0.8564   0.8822   0.8918   0.8938   0.9305   0.9566   0.9656   1.0090
  1.0329   1.0452   1.0658   1.0801   1.1215   1.1440   1.1735   1.1885
  1.2197   1.2484   1.2617   1.2830   1.3075   1.3388   1.3588   1.3825
  1.4203   1.4597   1.5105   1.5353   1.6122   1.6688   1.7328   1.7434
  1.7687   1.8180   1.8313   1.8632   1.8744   1.8892   1.9066   1.9183
  1.9342   1.9590   1.9798   2.0034   2.0405   2.0845   2.0962   2.1380
  2.1576   2.2087   2.2357   2.2548   2.2874   2.3171   2.3453   2.3514
  2.4040   2.4339   2.4777   2.4846   2.5110   2.5452   2.5812   2.6235
  2.6346   2.6373   2.6613   2.7083   2.7327   2.7847   2.8218   2.8310
  2.8713   2.8809   2.9209   2.9290   2.9709   3.0411   3.0560   3.0878
  3.1669   3.2225   3.2320   3.2659   3.2747   3.3052   3.3103   3.3271
  3.3418   3.3582   3.3682   3.4050   3.4330   3.4653   3.4881   3.5431
  3.5743   3.5946   3.6243   3.6340   3.6527   3.6747   3.6941   3.7719
  3.8187   3.8900   3.9132   3.9915   4.0308   4.0612   4.1536   4.1658
  4.2619   4.3795   4.4307   4.4698   4.5214   4.5845   4.6892   4.7200
  4.7527   4.8712   4.9270   4.9766   4.9977   5.1926   5.2276   5.2386
  5.3039   5.4066   5.4276   5.4949   5.5605   5.6886   5.7368   5.8137
  6.0130   6.0992   6.3127   6.5580   6.6689   6.7738   6.8894   7.0104
  7.2697   7.3533  22.6558  22.6866  23.6104  32.7020  44.3610
 --------------------------------------------------------------

          Ground-State Mulliken Net Atomic Charges

     Atom                 Charge (a.u.)
  ----------------------------------------
      1 C                    -0.809529
      2 H                     0.242630
      3 C                     0.561016
      4 O                    -0.532902
      5 N                    -0.083798
      6 H                     0.197879
      7 C                    -0.745179
      8 H                     0.279877
      9 H                     0.224265
     10 H                     0.196264
     11 H                     0.257683
     12 H                     0.211794
  ----------------------------------------
  Sum of atomic charges =     0.000000

 -----------------------------------------------------------------
                    Cartesian Multipole Moments
 -----------------------------------------------------------------
    Charge (ESU x 10^10)
                -0.0000
    Dipole Moment (Debye)
         X       3.5744      Y       0.7417      Z       1.7557
       Tot       4.0508
    Quadrupole Moments (Debye-Ang)
        XX      47.7466     XY     102.0068     YY      11.7382
        XZ     111.2468     YZ      67.4494     ZZ      60.1785
    Octopole Moments (Debye-Ang^2)
       XXX     263.6166    XXY    1327.8575    XYY    2585.1913
       YYY    -652.4488    XXZ    1430.9515    XYZ    3155.6326
       YYZ    1621.6680    XZZ    3018.4473    YZZ    2173.8960
       ZZZ    1120.7422
    Hexadecapole Moments (Debye-Ang^3)
      XXXX   -4234.2932   XXXY    7445.5442   XXYY   33255.0330
      XYYY   56929.3790   YYYY  -63734.7026   XXXZ    8792.1172
      XXYZ   39735.4574   XYYZ   80997.0681   YYYZ   18846.4457
      XXZZ   38144.1386   XYZZ   85793.4826   YYZZ   54071.8538
      XZZZ   72505.4451   YZZZ   45432.1596   ZZZZ   -4189.4056
 -----------------------------------------------------------------
Archival summary:
1\1\compute-0-12.local\SP\ProcedureUnspecified\BasisUnspecified\1137\meili\MonMay1010:38:062021MonMay1010:38:062021\0\\#,ProcedureUnspecified,BasisUnspecified,\\0,1\N\H,1,1.0334\C,1,1.35197,2,114.124\O,3,1.21979,1,121.642,2,175.318,0\C,1,1.4586,2,118.652,3,170.321,0\H,5,1.06978,1,110.671,2,-29.7231,0\H,5,1.07037,1,112.277,2,89.0345,0\H,5,1.09743,1,104.6,2,-148.923,0\C,3,1.52528,1,111.785,2,-8.35555,0\H,9,1.06976,3,110.715,1,-70.1943,0\H,9,1.07006,3,112.338,1,171.11,0\H,9,1.08152,3,104.472,1,49.0122,0\\\@

 Total job time:  5248.53s(wall), 29112.64s(cpu) 
 Mon May 10 10:38:06 2021

        *************************************************************
        *                                                           *
        *  Thank you very much for using Q-Chem.  Have a nice day.  *
        *                                                           *
        *************************************************************


Done Job For Fragment 0
calling putenv with: QCSCRATCH=/home/meili/scratch 
calling putenv with: QCTHREADS=8 
Creating input file /home/meili/scratch/qchem28992/Frg2.input
using default PutDataFrgm: nothing
calling putenv with: QCSCRATCH=/home/meili/scratch/qchem28992/ 
Spawning Job For Fragment 1
                  Welcome to Q-Chem
     A Quantum Leap Into The Future Of Chemistry


 Q-Chem 5.2 (devel), Q-Chem, Inc., Pleasanton, CA (2019)

 Yihan Shao,  Zhengting Gan,  E. Epifanovsky,  A. T. B. Gilbert,  M. Wormit,  
 J. Kussmann,  A. W. Lange,  A. Behn,  Jia Deng,  Xintian Feng,  D. Ghosh,  
 M. Goldey,  P. R. Horn,  L. D. Jacobson,  I. Kaliman,  T. Kus,  A. Landau,  
 Jie Liu,  E. I. Proynov,  R. M. Richard,  R. P. Steele,  E. J. Sundstrom,  
 H. L. Woodcock III,  P. M. Zimmerman,  D. Zuev,  B. Albrecht,  E. Alguire,  
 S. A. Baeppler,  D. Barton,  Z. Benda,  Y. A. Bernard,  E. J. Berquist,  
 K. B. Bravaya,  H. Burton,  D. Casanova,  Chun-Min Chang,  Yunqing Chen,  
 A. Chien,  K. D. Closser,  M. P. Coons,  S. Coriani,  S. Dasgupta,  
 A. L. Dempwolff,  M. Diedenhofen,  Hainam Do,  R. G. Edgar,  Po-Tung Fang,  
 S. Faraji,  S. Fatehi,  Qingguo Feng,  K. D. Fenk,  J. Fosso-Tande,  
 J. Gayvert,  Qinghui Ge,  A. Ghysels,  G. Gidofalvi,  J. Gomes,  
 J. Gonthier,  A. Gunina,  D. Hait,  M. W. D. Hanson-Heine,  
 P. H. P. Harbach,  A. W. Hauser,  M. F. Herbst,  J. E. Herr,  
 E. G. Hohenstein,  Z. C. Holden,  Kerwin Hui,  B. C. Huynh,  T.-C. Jagau,  
 Hyunjun Ji,  B. Kaduk,  K. Khistyaev,  Jaehoon Kim,  P. Klunzinger,  K. Koh,  
 D. Kosenkov,  L. Koulias,  T. Kowalczyk,  C. M. Krauter,  A. Kunitsa,  
 Ka Un Lao,  A. Laurent,  K. V. Lawler,  Joonho Lee,  D. Lefrancois,  
 S. Lehtola,  D. S. Levine,  Yi-Pei Li,  You-Sheng Lin,  Fenglai Liu,  
 E. Livshits,  A. Luenser,  P. Manohar,  E. Mansoor,  S. F. Manzer,  
 Shan-Ping Mao,  Yuezhi Mao,  N. Mardirossian,  A. V. Marenich,  
 T. Markovich,  L. A. Martinez-Martinez,  S. A. Maurer,  N. J. Mayhall,  
 S. C. McKenzie,  J.-M. Mewes,  P. Morgante,  A. F. Morrison,  
 J. W. Mullinax,  K. Nanda,  T. S. Nguyen-Beck,  R. Olivares-Amaya,  
 J. A. Parkhill,  Zheng Pei,  T. M. Perrine,  F. Plasser,  P. Pokhilko,  
 S. Prager,  A. Prociuk,  E. Ramos,  D. R. Rehn,  F. Rob,  M. Scheurer,  
 M. Schneider,  N. Sergueev,  S. M. Sharada,  S. Sharma,  D. W. Small,  
 T. Stauch,  T. Stein,  Yu-Chuan Su,  A. J. W. Thom,  A. Tkatchenko,  
 T. Tsuchimochi,  N. M. Tubman,  L. Vogt,  M. L. Vidal,  O. Vydrov,  
 M. A. Watson,  J. Wenzel,  M. de Wergifosse,  T. A. Wesolowski,  A. White,  
 J. Witte,  A. Yamada,  Jun Yang,  K. Yao,  S. Yeganeh,  S. R. Yost,  
 Zhi-Qiang You,  A. Zech,  Igor Ying Zhang,  Xing Zhang,  Yan Zhao,  
 Ying Zhu,  B. R. Brooks,  G. K. L. Chan,  C. J. Cramer,  M. S. Gordon,  
 W. J. Hehre,  A. Klamt,  M. W. Schmidt,  C. D. Sherrill,  D. G. Truhlar,  
 A. Aspuru-Guzik,  R. Baer,  A. T. Bell,  N. A. Besley,  Jeng-Da Chai,  
 A. E. DePrince, III,  R. A. DiStasio Jr.,  A. Dreuw,  B. D. Dunietz,  
 T. R. Furlani,  Chao-Ping Hsu,  Yousung Jung,  Jing Kong,  D. S. Lambrecht,  
 WanZhen Liang,  C. Ochsenfeld,  V. A. Rassolov,  L. V. Slipchenko,  
 J. E. Subotnik,  T. Van Voorhis,  J. M. Herbert,  A. I. Krylov,  
 P. M. W. Gill,  M. Head-Gordon

 Contributors to earlier versions of Q-Chem not listed above: 
 R. D. Adamson,  B. Austin,  J. Baker,  G. J. O. Beran,  K. Brandhorst,  
 S. T. Brown,  E. F. C. Byrd,  A. K. Chakraborty,  C.-L. Cheng,  
 Siu Hung Chien,  D. M. Chipman,  D. L. Crittenden,  H. Dachsel,  
 R. J. Doerksen,  A. D. Dutoi,  L. Fusti-Molnar,  W. A. Goddard III,  
 A. Golubeva-Zadorozhnaya,  S. R. Gwaltney,  G. Hawkins,  A. Heyden,  
 S. Hirata,  G. Kedziora,  F. J. Keil,  C. Kelley,  Jihan Kim,  R. A. King,  
 R. Z. Khaliullin,  P. P. Korambath,  W. Kurlancheek,  A. M. Lee,  M. S. Lee,  
 S. V. Levchenko,  Ching Yeh Lin,  D. Liotard,  R. C. Lochan,  I. Lotan,  
 P. E. Maslen,  N. Nair,  D. P. O'Neill,  D. Neuhauser,  E. Neuscamman,  
 C. M. Oana,  R. Olson,  B. Peters,  R. Peverati,  P. A. Pieniazek,  
 Y. M. Rhee,  J. Ritchie,  M. A. Rohrdanz,  E. Rosta,  N. J. Russ,  
 H. F. Schaefer III,  N. E. Schultz,  N. Shenvi,  A. C. Simmonett,  A. Sodt,  
 D. Stuck,  K. S. Thanthiriwatte,  V. Vanovschi,  Tao Wang,  A. Warshel,  
 C. F. Williams,  Q. Wu,  X. Xu,  W. Zhang

 Please cite Q-Chem as follows:
 Y. Shao et al., Mol. Phys. 113, 184-215 (2015)
 DOI: 10.1080/00268976.2014.952696

 Q-Chem 5.2.1 for Intel X86 EM64T Linux

 Parts of Q-Chem use Armadillo 8.300.2 (Tropical Shenanigans).
 http://arma.sourceforge.net/

 Q-Chem begins on Mon May 10 10:38:06 2021  

compute-0-12.local
Host: 0

     Scratch files written to /home/meili/scratch/qchem28992//Frg2//
NAlpha2: 40
NElect   40
Mult     1

Checking the input file for inconsistencies... 	...done.

--------------------------------------------------------------
User input:
--------------------------------------------------------------
$molecule
0 1
 6	14.3430000000	30.2370000000	24.9580000000
 1	13.4190000000	30.3420000000	25.4340000000
 6	14.2060000000	29.1090000000	23.8780000000
 8	15.1820000000	28.3990000000	23.6390000000
 7	12.9990000000	28.8560000000	23.3530000000
 1	12.1910000000	29.3430000000	23.7260000000
 6	12.6750000000	27.8400000000	22.3250000000
 1	12.9210000000	26.8730000000	22.7520000000
 1	14.6160000000	31.1590000000	24.4880000000
 1	15.1000000000	29.9810000000	25.6690000000
 1	11.6340000000	27.8810000000	22.0820000000
 1	13.2270000000	28.0140000000	21.4250000000
$end
$rem
EDA2		1
METHOD		WB97X-V
BASIS		DEF2-TZVPD
XC_GRID		000099000590
NL_GRID		1
UNRESTRICTED		FALSE
MAX_SCF_CYCLES		200
SYMMETRY		FALSE
SYM_IGNORE		TRUE
BASIS_LIN_DEP_THRESH		6
THRESH		14
SCF_CONVERGENCE		8
SCF_PRINT_FRGM		TRUE
!required keywords
JOBTYPE		SP
SYM_IGNORE		TRUE
SUBSYSTEM		TRUE
GEN_SCFMAN		TRUE
CHILD_INSTRUCTION		2
SYM_IGNORE		TRUE
SCFMI		0
RI_K 0		
PARI_K 0		
MIN_PARI_K 0		
IARI_K 0		
OCC_RI_K 0		
PURECART		1111
MEM_STATIC		2000
MEM_TOTAL		2000
GUI		0
CHILD_MP		1
CHILD_MP_ORDERS		232
FRZ_RELAX		0
FRZ_RELAX_METHOD		0
EDA_CLS_ELEC		1
EDA_CLS_DISP		0
FRZ_ORTHO_DECOMP		1
EDA2		FALSE
FRGM_METHOD		FALSE
CIS_N_ROOTS  0
LOCAL_CIS    0
CIS_RLX_DNS  1
$end
--------------------------------------------------------------
 ----------------------------------------------------------------
             Standard Nuclear Orientation (Angstroms)
    I     Atom           X                Y                Z
 ----------------------------------------------------------------
    1      C      14.3430000000    30.2370000000    24.9580000000
    2      H      13.4190000000    30.3420000000    25.4340000000
    3      C      14.2060000000    29.1090000000    23.8780000000
    4      O      15.1820000000    28.3990000000    23.6390000000
    5      N      12.9990000000    28.8560000000    23.3530000000
    6      H      12.1910000000    29.3430000000    23.7260000000
    7      C      12.6750000000    27.8400000000    22.3250000000
    8      H      12.9210000000    26.8730000000    22.7520000000
    9      H      14.6160000000    31.1590000000    24.4880000000
   10      H      15.1000000000    29.9810000000    25.6690000000
   11      H      11.6340000000    27.8810000000    22.0820000000
   12      H      13.2270000000    28.0140000000    21.4250000000
 ----------------------------------------------------------------
 Nuclear Repulsion Energy =         178.61295298 hartrees
 There are       20 alpha and       20 beta electrons
 Requested basis set is def2-TZVPD
 There are 101 shells and 251 basis functions

 Total QAlloc Memory Limit   2000 MB
 Mega-Array Size      1956 MB
 MEM_STATIC part      2000 MB

                       Distance Matrix (Angstroms)
             C (  1)   H (  2)   C (  3)   O (  4)   N (  5)   H (  6)
   H (  2)  1.044690
   C (  3)  1.567658  2.135602
   O (  4)  2.412867  3.178906  1.230365
   N (  5)  2.507892  2.591362  1.340329  2.248585
   H (  6)  2.635937  2.328787  2.034228  3.137640  1.014476
   C (  7)  3.931987  4.059485  2.523119  2.885156  1.481221  2.110940
   H (  8)  4.266734  4.413059  2.814036  2.868373  2.073541  2.753630
   H (  9)  1.070286  1.730669  2.177774  2.942577  3.034258  3.123960
   H ( 10)  1.069629  1.735312  2.183415  2.574946  3.323204  3.555921
   H ( 11)  4.600086  4.525334  3.368796  3.909076  2.104588  2.269456
   H ( 12)  4.320796  4.639885  2.859139  2.978598  2.116160  2.852041
             C (  7)   H (  8)   H (  9)   H ( 10)   H ( 11)
   H (  8)  1.085327
   H (  9)  4.411554  4.925091
   H ( 10)  4.652617  4.787128  1.736865
   H ( 11)  1.069771  1.766729  5.042464  5.411998
   H ( 12)  1.070037  1.776639  4.604597  5.038725  1.728290

 A cutoff of  1.0D-14 yielded   5016 shell pairs
 There are     31570 function pairs (     39712 Cartesian)
 Smallest overlap matrix eigenvalue = 8.85E-06

 Scale SEOQF with 1.000000e-02/1.000000e-03/1.000000e-03

 Standard Electronic Orientation quadrupole field applied
 Nucleus-field energy     =     0.0000000274 hartrees
 Guess from superposition of atomic densities
 Warning:  Energy on first SCF cycle will be non-variational
 SAD guess density has 40.000000 electrons

 -----------------------------------------------------------------------
  General SCF calculation program by
  Eric Jon Sundstrom, Paul Horn, Yuezhi Mao, Dmitri Zuev, Alec White,
  David Stuck, Shaama M.S., Shane Yost, Joonho Lee, David Small,
  Daniel Levine, Susi Lehtola, Hugh Burton, Evgeny Epifanovsky,
  Bang C. Huynh
 -----------------------------------------------------------------------
 Exchange:     0.1670 Hartree-Fock + 1.0000 wB97X-V + LR-HF
 Correlation:  1.0000 wB97X-V
 Using Euler-Maclaurin-Lebedev (99,590) quadrature formula
 Nonlocal Correlation:  VV10 with C = 0.0100 and b = 6.00 and scale = 1.00000
 Grid used for NLC:  SG-1 standard quadrature
Energy prior to optimization (guess energy) = -248.414204501427
Begin Timing: Total SCF Calculation
begin iterations for algorithm: DIIS         
the SCF tolerance is set to 1.00e-08
    1    -248.4142045014      4.30e-03     00000 
    2    -248.3480924851      5.91e-03     00000 
    3    -248.5356243978      5.17e-04     00000 
    4    -248.5372496632      2.25e-04     00000 
    5    -248.5375917095      5.53e-05     00000 
    6    -248.5376193593      2.00e-05     00000 
    7    -248.5376244732      5.48e-06     00000 
    8    -248.5376251213      1.78e-06     00000 
    9    -248.5376251704      6.45e-07     00000 
   10    -248.5376251756      1.22e-07     00000 
   11    -248.5376251758      2.94e-08     00000 
   12    -248.5376251758      1.21e-08     00000 
   13    -248.5376251759      2.84e-09     00000 Convergence criterion met
Timing for Total SCF: 271.00s (wall), 1504.94s (cpu)
Multipole orders to be included
        2
        3
computing dipole RHS
computing quadrupole RHS
total number of RHS in solve_reponses: 8
RHS batch sizes
        8
Beginning Block Conjugate Gradient Iterations. Batch Number: 0
computing hessian-vector products by finite difference
              1      4.95e-01     00000 Conjugate Gradient Iteration
computing hessian-vector products by finite difference
              2      1.72e-01     00000 Conjugate Gradient Iteration
computing hessian-vector products by finite difference
              3      4.53e-02     00000 Conjugate Gradient Iteration
computing hessian-vector products by finite difference
              4      1.09e-02     00000 Conjugate Gradient Iteration
computing hessian-vector products by finite difference
              5      1.94e-03     00000 Conjugate Gradient Iteration
computing hessian-vector products by finite difference
              6      3.67e-04     00000 Conjugate Gradient Iteration
computing hessian-vector products by finite difference
              7      5.50e-05     00000 Conjugate Gradient Iteration
computing hessian-vector products by finite difference
              8      9.73e-06     00000 Conjugate Gradient Iteration
computing hessian-vector products by finite difference
              9      1.64e-06     00000 Conjugate Gradient Iteration
computing hessian-vector products by finite difference
             10      2.53e-07     00000 Conjugate Gradient Iteration
computing hessian-vector products by finite difference
             11      7.04e-08     00000 Conjugate Gradient Iteration
computing hessian-vector products by finite difference
             12      1.06e-08     00000 Conjugate Gradient Iteration
computing hessian-vector products by finite difference
             13      1.41e-09     00000 CG Converged
batch 0 complete
Done Calculating Responses
TESTING ORTHOGONALIZATION OF MULTIPOLE BASIS
Multipole virts passed orthogonality test
Virts Per Order
           60
          100

 --------------------------------------------------------------

                    Orbital Energies (a.u.)
 --------------------------------------------------------------

 Alpha MOs
 -- Occupied --
-19.1639 -14.4400 -10.3694 -10.3040 -10.2659  -1.1567  -1.0504  -0.8815
 -0.8279  -0.7036  -0.6208  -0.5805  -0.5732  -0.5394  -0.5217  -0.5139
 -0.4921  -0.4657  -0.3593  -0.3496
 -- Virtual --
  0.0545   0.0770   0.0929   0.1078   0.1108   0.1239   0.1334   0.1396
  0.1573   0.1640   0.1670   0.1787   0.1874   0.1981   0.2035   0.2220
  0.2389   0.2456   0.2533   0.2669   0.2739   0.2759   0.2850   0.2910
  0.3011   0.3056   0.3197   0.3297   0.3444   0.3530   0.3582   0.3598
  0.3692   0.3717   0.3798   0.3878   0.3909   0.4004   0.4067   0.4147
  0.4243   0.4343   0.4534   0.4560   0.4588   0.4684   0.4763   0.4858
  0.4874   0.5004   0.5076   0.5167   0.5259   0.5327   0.5374   0.5494
  0.5563   0.5807   0.6008   0.6189   0.6331   0.6419   0.6513   0.6717
  0.6781   0.6989   0.7073   0.7146   0.7272   0.7391   0.7502   0.7627
  0.7751   0.7894   0.7947   0.8122   0.8185   0.8276   0.8443   0.8491
  0.8563   0.8732   0.8815   0.9016   0.9327   0.9475   0.9840   1.0179
  1.0352   1.0433   1.0602   1.0816   1.1115   1.1300   1.1614   1.1849
  1.2276   1.2513   1.2701   1.2793   1.3139   1.3401   1.3486   1.3713
  1.3931   1.4359   1.5047   1.5433   1.6193   1.6858   1.7236   1.7449
  1.7486   1.8197   1.8437   1.8542   1.8689   1.8914   1.9150   1.9192
  1.9414   1.9531   1.9981   2.0082   2.0240   2.0519   2.1112   2.1402
  2.1577   2.1804   2.2279   2.2386   2.2639   2.3148   2.3366   2.3775
  2.4021   2.4226   2.4464   2.5046   2.5254   2.5622   2.5763   2.5935
  2.6145   2.6286   2.6388   2.6766   2.7696   2.8003   2.8175   2.8230
  2.8535   2.8839   2.9242   2.9455   2.9524   3.0267   3.0499   3.1006
  3.1640   3.1972   3.2171   3.2470   3.2805   3.2991   3.3151   3.3259
  3.3514   3.3626   3.3773   3.4292   3.4658   3.4744   3.4865   3.5061
  3.5209   3.5553   3.5927   3.6151   3.6372   3.6632   3.7131   3.7374
  3.8168   3.8829   3.9304   3.9765   4.0120   4.0325   4.1441   4.1682
  4.2750   4.3269   4.3452   4.5063   4.5547   4.6395   4.6718   4.6857
  4.7306   4.7991   4.9258   4.9722   5.0076   5.1744   5.2141   5.2503
  5.3274   5.3973   5.4173   5.4806   5.6062   5.6806   5.7403   5.7965
  5.9680   6.1327   6.2761   6.5336   6.6790   6.7544   6.8294   7.0169
  7.2583   7.3538  22.6479  22.6924  23.5529  32.6742  44.3278
 --------------------------------------------------------------

          Ground-State Mulliken Net Atomic Charges

     Atom                 Charge (a.u.)
  ----------------------------------------
      1 C                    -0.712227
      2 H                     0.243901
      3 C                     0.463682
      4 O                    -0.530176
      5 N                    -0.091156
      6 H                     0.214601
      7 C                    -0.645762
      8 H                     0.205454
      9 H                     0.190879
     10 H                     0.194701
     11 H                     0.250126
     12 H                     0.215977
  ----------------------------------------
  Sum of atomic charges =     0.000000

 -----------------------------------------------------------------
                    Cartesian Multipole Moments
 -----------------------------------------------------------------
    Charge (ESU x 10^10)
                 0.0000
    Dipole Moment (Debye)
         X      -3.9054      Y       1.4525      Z       0.1499
       Tot       4.1695
    Quadrupole Moments (Debye-Ang)
        XX    -140.3400     XY     -89.9956     YY      53.6771
        XZ     -88.6227     YZ      40.6414     ZZ     -21.7479
    Octopole Moments (Debye-Ang^2)
       XXX   -3594.8572    XXY   -3697.6774    XYY   -2358.9239
       YYY    1013.6719    XXZ   -3243.9184    XYZ   -1994.6275
       YYZ    1508.0239    XZZ   -2406.0001    YZZ     275.1815
       ZZZ   -1794.6154
    Hexadecapole Moments (Debye-Ang^3)
      XXXX  -79347.0729   XXXY  -98343.7153   XXYY -102379.7353
      XYYY  -73328.7379   YYYY  -11761.3069   XXXZ  -83701.6968
      XXYZ  -84964.5373   XYYZ  -51194.9506   YYYZ   32437.5749
      XXZZ  -80515.7297   XYZZ  -55552.7538   YYZZ   17076.1159
      XZZZ  -73711.9696   YZZZ  -29531.4913   ZZZZ  -89057.6601
 -----------------------------------------------------------------
Archival summary:
1\1\compute-0-12.local\SP\ProcedureUnspecified\BasisUnspecified\1137\meili\MonMay1012:01:142021MonMay1012:01:142021\0\\#,ProcedureUnspecified,BasisUnspecified,\\0,1\N\H,1,1.01448\C,1,1.34033,2,118.856\O,3,1.23036,1,121.961,2,167.264,0\C,1,1.48122,2,114.22,3,175.499,0\H,5,1.06977,1,110.134,2,6.26402,0\H,5,1.07004,1,111.061,2,125.536,0\H,5,1.08533,1,106.769,2,-113.288,0\C,3,1.56766,1,118.971,2,-5.36882,0\H,9,1.04469,3,107.994,1,25.871,0\H,9,1.06963,3,110.339,1,146.513,0\H,9,1.07029,3,109.853,1,-93.8884,0\\\@

 Total job time:  4987.17s(wall), 28137.46s(cpu) 
 Mon May 10 12:01:14 2021

        *************************************************************
        *                                                           *
        *  Thank you very much for using Q-Chem.  Have a nice day.  *
        *                                                           *
        *************************************************************


Done Job For Fragment 1
calling putenv with: QCSCRATCH=/home/meili/scratch 
calling putenv with: QCTHREADS=8 
Doing General SCFMI
 Exchange:     0.1670 Hartree-Fock + 1.0000 wB97X-V + LR-HF
 Correlation:  1.0000 wB97X-V
 Using Euler-Maclaurin-Lebedev (99,590) quadrature formula
 Nonlocal Correlation:  VV10 with C = 0.0100 and b = 6.00 and scale = 1.00000
 Grid used for NLC:  SG-1 standard quadrature
performing fock build before subrot guess so that all methods have access
Printing subrot_rss_gen Method Specification:
Occupied Subspace Method is 0
Virtual Subspace Method is 0
Energy of the unrelaxed supersystem initial determinant -497.082726636511
write pseudocanon occs and virts to disk
write pseudocanon orbital energies to disk
Tolerance of ortho_decomp_scf: 1.00e-06
GDM subspace size: 20
Beginning the Orthogonal Decomposition of the Initial Supersystem Wavefunction
    1    -497.0730943064      1.13e-02     ortho_decomp Preconditoned Steepest Descent
    2    -497.0735037792      2.91e-04     ortho_decomp BFGS Step
    3    -497.0735048906      1.55e-05     ortho_decomp BFGS Step
    4    -497.0735048916      5.69e-07     ortho_decomp 00000 Convergence criterion met
 Hartree-Fock
 Hartree-Fock
 Hartree-Fock
Doing General SCFMI
 Exchange:     0.1670 Hartree-Fock + 1.0000 wB97X-V + LR-HF
 Correlation:  1.0000 wB97X-V
 Using Euler-Maclaurin-Lebedev (99,590) quadrature formula
 Nonlocal Correlation:  VV10 with C = 0.0100 and b = 6.00 and scale = 1.00000
 Grid used for NLC:  SG-1 standard quadrature
performing fock build at end of subrot_r(subrot) constructor so that all methods have access
<S^2> of initial wavefunction before polarization iterations 0.0000000000
Beginning iterations for the determination of the polarized wavefunction
Energy prior to optimization (guess energy) = -497.082726636511
Begin Timing: Total SCF Calculation
begin iterations for algorithm: DIIS         
the SCF tolerance is set to 1.00e-08
    1    -497.0827266365      7.80e-05     00000 
    2    -497.0831866583      3.21e-05     00000 
    3    -497.0832287804      1.46e-05     00000 
    4    -497.0832385699      6.99e-06     00000 
    5    -497.0832403932      2.59e-06     00000 
    6    -497.0832407099      1.33e-06     00000 
    7    -497.0832407811      3.84e-07     00000 
    8    -497.0832407891      1.21e-07     00000 
    9    -497.0832407899      3.74e-08     00000 
   10    -497.0832407900      1.24e-08     00000 
   11    -497.0832407900      9.40e-09     00000 Convergence criterion met
write pseudocanon occs and virts to disk
write pseudocanon orbital energies to disk
Timing for Total SCF: 1558.00s (wall), 9230.15s (cpu)
<S^2> of polarized wavefunction after polarization iterations 0.0000000000
relaxing scfmi constraint to allow all rotations in the entire AO span
Doing General SCFMI
 Exchange:     0.1670 Hartree-Fock + 1.0000 wB97X-V + LR-HF
 Correlation:  1.0000 wB97X-V
 Using Euler-Maclaurin-Lebedev (99,590) quadrature formula
 Nonlocal Correlation:  VV10 with C = 0.0100 and b = 6.00 and scale = 1.00000
 Grid used for NLC:  SG-1 standard quadrature
performing fock build at end of subrot_r(subrot) constructor so that all methods have access
<S^2> of polarized wavefunction before ct-allowed iterations 0.0000000000
Beginning iterations for the determination of the CT-Allowed wavefunction
Energy prior to optimization (guess energy) = -497.083240790009
Begin Timing: Total SCF Calculation
begin iterations for algorithm: DIIS         
the SCF tolerance is set to 1.00e-08
    1    -497.0832407900      6.24e-05     00000 
    2    -497.0836000030      4.98e-06     00000 
    3    -497.0836073903      7.24e-07     00000 
    4    -497.0836075803      3.22e-07     00000 
    5    -497.0836075908      1.11e-07     00000 
    6    -497.0836075926      5.40e-08     00000 
    7    -497.0836075929      1.17e-08     00000 
    8    -497.0836075929      5.14e-09     00000 Convergence criterion met
write pseudocanon occs and virts to disk
write pseudocanon orbital energies to disk
Timing for Total SCF: 1081.00s (wall), 6469.80s (cpu)
<S^2> of ct_allowed wavefunction after ct-allowed iterations 0.0000000000

================================
        Results of EDA2         
================================
Basic EDA Quantities
--------------------
Fragment Energies (Ha):
1 -248.5407584815
2 -248.5376251759
--------------------
  E_prp (kJ/mol) = 0.0000
  E_frz (kJ/mol) = -11.4026
  E_pol (kJ/mol) = -1.3499
  E_vct (kJ/mol) = -0.9631
  E_int (kJ/mol) = -13.7156
--------------------


Initial Wavefunction Decomposition
--------------------
  --------------------
  Orthogonal Fragment Subspace Decomposition:
  --------------------
     E_elec   (ELEC)   (kJ/mol) = -9.5010
     E_pauli  (PAULI)  (kJ/mol) = 9.4328
     E_disp   (DISP)   (kJ/mol) = -11.3344
     --------------------
     Terms summing to E_pauli:
     --------------------
        E_kep_pauli       (kJ/mol) = 12.8094
        E_disp_free_pauli (kJ/mol) = -3.3766
  --------------------
  Classical Frozen Decomposition:
  --------------------
     E_cls_elec  (CLS ELEC)  (kJ/mol) = -4.6921
     E_cls_pauli (CLS PAULI) (kJ/mol) = -6.7105
    [E_mod_pauli (MOD PAULI) (kJ/mol) = 4.6239 (CLS PAULI - DISP from orthogonal decomposition) ]
  --------------------
--------------------

Simplified EDA Summary (kJ/mol)
--------------------
 PREPARATION     0.0000
 FROZEN          -0.0682      (does not include dispersion)
[PAULI           9.4328]     (if this is negligible, then frozen describes electrostatics)
 DISPERSION      -11.3344
 POLARIZATION    -1.3499
 CHARGE TRANSFER -0.9631
 TOTAL           -13.7156     (PRP + FRZ + DISP + POL + CT)
--------------------

 --------------------------------------------------------------

                    Orbital Energies (a.u.)
 --------------------------------------------------------------

 Alpha MOs
 -- Occupied --
-19.1763 -19.1693 -14.4434 -14.4387 -10.3748 -10.3743 -10.3035 -10.2996
-10.2799 -10.2735  -1.1705  -1.1619  -1.0553  -1.0537  -0.8996  -0.8867
 -0.8308  -0.8249  -0.7065  -0.6963  -0.6302  -0.6242  -0.5942  -0.5843
 -0.5805  -0.5783  -0.5493  -0.5424  -0.5251  -0.5226  -0.5195  -0.5178
 -0.4977  -0.4961  -0.4742  -0.4705  -0.3652  -0.3635  -0.3602  -0.3552
 -- Virtual --
  0.0438   0.0672   0.0713   0.0758   0.0923   0.0942   0.0994   0.1014
  0.1086   0.1118   0.1181   0.1317   0.1337   0.1373   0.1454   0.1467
  0.1545   0.1573   0.1582   0.1669   0.1782   0.1817   0.1877   0.1902
  0.1981   0.2062   0.2143   0.2218   0.2235   0.2273   0.2385   0.2442
  0.2496   0.2532   0.2567   0.2610   0.2637   0.2682   0.2752   0.2797
  0.2901   0.2904   0.2981   0.3024   0.3057   0.3091   0.3134   0.3168
  0.3269   0.3283   0.3394   0.3404   0.3412   0.3436   0.3464   0.3552
  0.3565   0.3578   0.3627   0.3655   0.3695   0.3776   0.3824   0.3833
  0.3871   0.3892   0.3926   0.3963   0.4031   0.4107   0.4152   0.4176
  0.4231   0.4286   0.4372   0.4402   0.4450   0.4469   0.4512   0.4559
  0.4588   0.4663   0.4672   0.4778   0.4794   0.4833   0.4847   0.4906
  0.4951   0.5018   0.5051   0.5088   0.5138   0.5165   0.5216   0.5258
  0.5292   0.5312   0.5378   0.5459   0.5490   0.5516   0.5575   0.5626
  0.5638   0.5727   0.5837   0.5890   0.5957   0.5977   0.6099   0.6156
  0.6330   0.6343   0.6393   0.6432   0.6484   0.6565   0.6572   0.6623
  0.6690   0.6791   0.6885   0.6927   0.6986   0.7044   0.7099   0.7168
  0.7201   0.7251   0.7335   0.7442   0.7484   0.7544   0.7593   0.7654
  0.7683   0.7743   0.7782   0.7858   0.7887   0.7967   0.8008   0.8062
  0.8142   0.8150   0.8221   0.8294   0.8307   0.8370   0.8424   0.8484
  0.8590   0.8668   0.8738   0.8889   0.8976   0.9008   0.9070   0.9082
  0.9139   0.9212   0.9364   0.9420   0.9470   0.9542   0.9665   0.9755
  0.9821   0.9965   1.0104   1.0255   1.0385   1.0478   1.0543   1.0784
  1.0798   1.0850   1.0909   1.1026   1.1093   1.1202   1.1251   1.1402
  1.1578   1.1637   1.1794   1.1845   1.1962   1.2193   1.2362   1.2470
  1.2564   1.2742   1.2774   1.2926   1.3033   1.3223   1.3246   1.3463
  1.3564   1.3587   1.3747   1.3922   1.3970   1.3979   1.4187   1.4403
  1.4557   1.4635   1.4781   1.4921   1.5299   1.5436   1.5921   1.6041
  1.6289   1.6422   1.6840   1.7126   1.7527   1.7737   1.7863   1.7927
  1.8082   1.8327   1.8476   1.8527   1.8731   1.8764   1.8925   1.9008
  1.9063   1.9112   1.9223   1.9321   1.9345   1.9447   1.9583   1.9618
  1.9701   1.9761   1.9826   1.9934   2.0131   2.0273   2.0420   2.0497
  2.0702   2.0767   2.0900   2.1155   2.1279   2.1505   2.1673   2.1687
  2.1823   2.2028   2.2262   2.2467   2.2538   2.2591   2.2750   2.2946
  2.3008   2.3273   2.3409   2.3472   2.3691   2.3786   2.3890   2.4225
  2.4279   2.4457   2.4614   2.4704   2.4792   2.4994   2.5186   2.5329
  2.5540   2.5696   2.5777   2.6038   2.6178   2.6365   2.6428   2.6461
  2.6600   2.6659   2.6796   2.6922   2.6981   2.7157   2.7259   2.7469
  2.7750   2.7906   2.8107   2.8340   2.8377   2.8512   2.8619   2.8757
  2.8931   2.9024   2.9167   2.9272   2.9441   2.9481   2.9553   2.9574
  2.9775   2.9905   3.0685   3.0874   3.0961   3.1132   3.1289   3.1544
  3.1767   3.1834   3.2148   3.2433   3.2479   3.2742   3.2857   3.2875
  3.2969   3.3090   3.3251   3.3339   3.3362   3.3489   3.3574   3.3651
  3.3739   3.3789   3.3812   3.3880   3.4065   3.4084   3.4253   3.4437
  3.4588   3.4777   3.4872   3.4966   3.5030   3.5088   3.5232   3.5418
  3.5621   3.5809   3.5916   3.6080   3.6103   3.6378   3.6459   3.6671
  3.6758   3.6835   3.6977   3.7115   3.7299   3.7388   3.7663   3.7896
  3.8302   3.8348   3.8975   3.9048   3.9304   3.9395   3.9909   4.0025
  4.0191   4.0410   4.0514   4.0740   4.1501   4.1639   4.1822   4.1924
  4.2721   4.2808   4.3463   4.3810   4.3934   4.4376   4.4963   4.5242
  4.5355   4.5842   4.6085   4.6563   4.6931   4.7020   4.7025   4.7261
  4.7551   4.7701   4.8124   4.8781   4.9404   4.9501   4.9861   4.9929
  5.0186   5.0375   5.1809   5.2073   5.2350   5.2481   5.2497   5.2636
  5.3091   5.3274   5.4062   5.4148   5.4241   5.4394   5.5019   5.5038
  5.5638   5.6137   5.6898   5.6980   5.7435   5.7524   5.7995   5.8118
  5.9726   6.0159   6.1142   6.1539   6.2765   6.3151   6.5355   6.5608
  6.6862   6.6900   6.7537   6.7774   6.8311   6.8912   7.0287   7.0326
  7.2584   7.2718   7.3530   7.3557  22.6819  22.6955  22.7178  22.7291
 23.5658  23.6284  32.7252  32.7367  44.4028  44.4343
 --------------------------------------------------------------

          Ground-State Mulliken Net Atomic Charges

     Atom                 Charge (a.u.)
  ----------------------------------------
      1 C                    -0.477263
      2 H                    -0.063763
      3 C                     0.543956
      4 O                    -0.547186
      5 N                    -0.056385
      6 H                     0.206141
      7 C                    -0.766366
      8 H                     0.268549
      9 H                     0.250538
     10 H                     0.164479
     11 H                     0.274941
     12 H                     0.208752
     13 C                    -0.662464
     14 H                     0.131571
     15 C                     0.456253
     16 O                    -0.544899
     17 N                    -0.037820
     18 H                     0.222686
     19 C                    -0.632010
     20 H                     0.180943
     21 H                     0.221134
     22 H                     0.181964
     23 H                     0.261432
     24 H                     0.214816
  ----------------------------------------
  Sum of atomic charges =     0.000000

 -----------------------------------------------------------------
                    Cartesian Multipole Moments
 -----------------------------------------------------------------
    Charge (ESU x 10^10)
                -0.0000
    Dipole Moment (Debye)
         X      -0.3148      Y       2.0291      Z       1.8362
       Tot       2.7546
    Quadrupole Moments (Debye-Ang)
        XX     -92.4228     XY      10.3804     YY      56.6014
        XZ      22.1663     YZ     101.6199     ZZ      35.6571
    Octopole Moments (Debye-Ang^2)
       XXX   -3332.3585    XXY   -2391.4577    XYY     128.4743
       YYY       8.3160    XXZ   -1819.4827    XYZ    1090.8176
       YYZ    2832.5275    XZZ     587.4121    YZZ    2247.9520
       ZZZ    -752.0567
    Hexadecapole Moments (Debye-Ang^3)
      XXXX  -83672.8426   XXXY  -91264.4652   XXYY  -70380.1228
      XYYY  -20432.4202   YYYY  -88050.0131   XXXZ  -75073.4653
      XXYZ  -46141.4953   XYYZ   26386.5174   YYYZ   39994.5515
      XXZZ  -42711.8978   XYZZ   27970.7793   YYZZ   62329.6998
      XZZZ   -1976.6370   YZZZ   10359.4402   ZZZZ  -94997.1749
 -----------------------------------------------------------------
Archival summary:
1\1\compute-0-12.local\SP\ProcedureUnspecified\BasisUnspecified\22614\meili\MonMay1013:18:472021MonMay1013:18:472021\0\\#,ProcedureUnspecified,BasisUnspecified,\\0,1\N\H,1,1.01448\C,1,1.34033,2,118.856\O,3,1.23036,1,121.961,2,167.264,0\C,1,1.48122,2,114.22,3,175.499,0\H,5,1.06977,1,110.134,2,6.26402,0\H,5,1.07004,1,111.061,2,125.536,0\H,5,1.08533,1,106.769,2,-113.288,0\C,3,1.56766,1,118.971,2,-5.36882,0\H,9,1.04469,3,107.994,1,25.871,0\H,9,1.06963,3,110.339,1,146.513,0\H,9,1.07029,3,109.853,1,-93.8884,0\H,10,2.42918,9,137.297,3,52.8595,0\C,13,1.08152,10,159.235,9,-133.023,0\H,14,1.06976,13,110.703,10,-137.249,0\H,14,1.07006,13,112.39,10,-18.5278,0\C,14,1.52528,13,104.472,10,103.536,0\O,17,1.21979,14,126.457,13,-134.877,0\N,17,1.35197,14,111.785,13,49.0122,0\H,19,1.0334,17,114.124,14,-8.35555,0\C,19,1.4586,17,126.408,14,-177.792,0\H,21,1.06978,19,110.671,17,139.285,0\H,21,1.07037,19,112.277,17,-101.957,0\H,21,1.09743,19,104.6,17,20.0852,0\\\@

 Total job time:  14974.01s(wall), 27570.32s(cpu) 
 Mon May 10 13:18:47 2021

        *************************************************************
        *                                                           *
        *  Thank you very much for using Q-Chem.  Have a nice day.  *
        *                                                           *
        *************************************************************


