                  Welcome to Q-Chem
     A Quantum Leap Into The Future Of Chemistry


 Q-Chem 5.2 (devel), Q-Chem, Inc., Pleasanton, CA (2019)

 Yihan Shao,  Zhengting Gan,  E. Epifanovsky,  A. T. B. Gilbert,  M. Wormit,  
 J. Kussmann,  A. W. Lange,  A. Behn,  Jia Deng,  Xintian Feng,  D. Ghosh,  
 M. Goldey,  P. R. Horn,  L. D. Jacobson,  I. Kaliman,  T. Kus,  A. Landau,  
 Jie Liu,  E. I. Proynov,  R. M. Richard,  R. P. Steele,  E. J. Sundstrom,  
 H. L. Woodcock III,  P. M. Zimmerman,  D. Zuev,  B. Albrecht,  E. Alguire,  
 S. A. Baeppler,  D. Barton,  Z. Benda,  Y. A. Bernard,  E. J. Berquist,  
 K. B. Bravaya,  H. Burton,  D. Casanova,  Chun-Min Chang,  Yunqing Chen,  
 A. Chien,  K. D. Closser,  M. P. Coons,  S. Coriani,  S. Dasgupta,  
 A. L. Dempwolff,  M. Diedenhofen,  Hainam Do,  R. G. Edgar,  Po-Tung Fang,  
 S. Faraji,  S. Fatehi,  Qingguo Feng,  K. D. Fenk,  J. Fosso-Tande,  
 J. Gayvert,  Qinghui Ge,  A. Ghysels,  G. Gidofalvi,  J. Gomes,  
 J. Gonthier,  A. Gunina,  D. Hait,  M. W. D. Hanson-Heine,  
 P. H. P. Harbach,  A. W. Hauser,  M. F. Herbst,  J. E. Herr,  
 E. G. Hohenstein,  Z. C. Holden,  Kerwin Hui,  B. C. Huynh,  T.-C. Jagau,  
 Hyunjun Ji,  B. Kaduk,  K. Khistyaev,  Jaehoon Kim,  P. Klunzinger,  K. Koh,  
 D. Kosenkov,  L. Koulias,  T. Kowalczyk,  C. M. Krauter,  A. Kunitsa,  
 Ka Un Lao,  A. Laurent,  K. V. Lawler,  Joonho Lee,  D. Lefrancois,  
 S. Lehtola,  D. S. Levine,  Yi-Pei Li,  You-Sheng Lin,  Fenglai Liu,  
 E. Livshits,  A. Luenser,  P. Manohar,  E. Mansoor,  S. F. Manzer,  
 Shan-Ping Mao,  Yuezhi Mao,  N. Mardirossian,  A. V. Marenich,  
 T. Markovich,  L. A. Martinez-Martinez,  S. A. Maurer,  N. J. Mayhall,  
 S. C. McKenzie,  J.-M. Mewes,  P. Morgante,  A. F. Morrison,  
 J. W. Mullinax,  K. Nanda,  T. S. Nguyen-Beck,  R. Olivares-Amaya,  
 J. A. Parkhill,  Zheng Pei,  T. M. Perrine,  F. Plasser,  P. Pokhilko,  
 S. Prager,  A. Prociuk,  E. Ramos,  D. R. Rehn,  F. Rob,  M. Scheurer,  
 M. Schneider,  N. Sergueev,  S. M. Sharada,  S. Sharma,  D. W. Small,  
 T. Stauch,  T. Stein,  Yu-Chuan Su,  A. J. W. Thom,  A. Tkatchenko,  
 T. Tsuchimochi,  N. M. Tubman,  L. Vogt,  M. L. Vidal,  O. Vydrov,  
 M. A. Watson,  J. Wenzel,  M. de Wergifosse,  T. A. Wesolowski,  A. White,  
 J. Witte,  A. Yamada,  Jun Yang,  K. Yao,  S. Yeganeh,  S. R. Yost,  
 Zhi-Qiang You,  A. Zech,  Igor Ying Zhang,  Xing Zhang,  Yan Zhao,  
 Ying Zhu,  B. R. Brooks,  G. K. L. Chan,  C. J. Cramer,  M. S. Gordon,  
 W. J. Hehre,  A. Klamt,  M. W. Schmidt,  C. D. Sherrill,  D. G. Truhlar,  
 A. Aspuru-Guzik,  R. Baer,  A. T. Bell,  N. A. Besley,  Jeng-Da Chai,  
 A. E. DePrince, III,  R. A. DiStasio Jr.,  A. Dreuw,  B. D. Dunietz,  
 T. R. Furlani,  Chao-Ping Hsu,  Yousung Jung,  Jing Kong,  D. S. Lambrecht,  
 WanZhen Liang,  C. Ochsenfeld,  V. A. Rassolov,  L. V. Slipchenko,  
 J. E. Subotnik,  T. Van Voorhis,  J. M. Herbert,  A. I. Krylov,  
 P. M. W. Gill,  M. Head-Gordon

 Contributors to earlier versions of Q-Chem not listed above: 
 R. D. Adamson,  B. Austin,  J. Baker,  G. J. O. Beran,  K. Brandhorst,  
 S. T. Brown,  E. F. C. Byrd,  A. K. Chakraborty,  C.-L. Cheng,  
 Siu Hung Chien,  D. M. Chipman,  D. L. Crittenden,  H. Dachsel,  
 R. J. Doerksen,  A. D. Dutoi,  L. Fusti-Molnar,  W. A. Goddard III,  
 A. Golubeva-Zadorozhnaya,  S. R. Gwaltney,  G. Hawkins,  A. Heyden,  
 S. Hirata,  G. Kedziora,  F. J. Keil,  C. Kelley,  Jihan Kim,  R. A. King,  
 R. Z. Khaliullin,  P. P. Korambath,  W. Kurlancheek,  A. M. Lee,  M. S. Lee,  
 S. V. Levchenko,  Ching Yeh Lin,  D. Liotard,  R. C. Lochan,  I. Lotan,  
 P. E. Maslen,  N. Nair,  D. P. O'Neill,  D. Neuhauser,  E. Neuscamman,  
 C. M. Oana,  R. Olson,  B. Peters,  R. Peverati,  P. A. Pieniazek,  
 Y. M. Rhee,  J. Ritchie,  M. A. Rohrdanz,  E. Rosta,  N. J. Russ,  
 H. F. Schaefer III,  N. E. Schultz,  N. Shenvi,  A. C. Simmonett,  A. Sodt,  
 D. Stuck,  K. S. Thanthiriwatte,  V. Vanovschi,  Tao Wang,  A. Warshel,  
 C. F. Williams,  Q. Wu,  X. Xu,  W. Zhang

 Please cite Q-Chem as follows:
 Y. Shao et al., Mol. Phys. 113, 184-215 (2015)
 DOI: 10.1080/00268976.2014.952696

 Q-Chem 5.2.1 for Intel X86 EM64T Linux

 Parts of Q-Chem use Armadillo 8.300.2 (Tropical Shenanigans).
 http://arma.sourceforge.net/

 Q-Chem begins on Mon May 10 09:09:10 2021  

compute-0-1.local
Host: 0

     Scratch files written to /home/meili/scratch/qchem42415//
NAlpha2: 80
NElect   80
Mult     1

 Q-Chem warning in module libgen/rem_setup.C, line 2813:

 Neither GIA nor STOLL is specified by user. Use STOLL as the default


Checking the input file for inconsistencies... 	...done.

--------------------------------------------------------------
User input:
--------------------------------------------------------------
$comment
1vex_ff99sbtip3p_nvt_e9_100ns_m3220_005CYX_006LEU_033SER_034LEU.pdb
$end

$molecule
0 1
--
0 1
C    12.0410000000   30.3490000000   28.9090000000
H    13.1050000000   30.1620000000   29.0790000000
C    11.6280000000   30.0140000000   27.4570000000
O    10.8220000000   30.6630000000   26.7780000000
N    12.2820000000   28.9590000000   26.9080000000
H    12.9440000000   28.4220000000   27.4490000000
C    11.6890000000   28.2240000000   25.7510000000
H    11.3000000000   28.9900000000   25.0140000000
H    11.4700000000   29.7420000000   29.5810000000
H    11.8530000000   31.3890000000   29.0790000000
H    12.4370000000   27.6170000000   25.2840000000
H    10.8940000000   27.5880000000   26.0810000000
--
0 1
C    16.1250000000   30.3890000000   28.1030000000
H    15.1700000000   30.7910000000   28.5240000000
C    15.5750000000   30.2000000000   26.6990000000
O    15.7700000000   29.2010000000   26.0610000000
N    14.8580000000   31.1720000000   26.1100000000
H    14.6650000000   31.9800000000   26.6990000000
C    14.6270000000   31.3200000000   24.6940000000
H    14.2980000000   30.3410000000   24.3040000000
H    16.9300000000   31.0930000000   28.1460000000
H    16.5650000000   29.5410000000   28.5850000000
H    13.8680000000   32.0540000000   24.5230000000
H    15.5200000000   31.6400000000   24.2000000000
$end

$rem
JOBTYPE			EDA
EDA2			1
method			wB97X-V
BASIS			def2-TZVPD
XC_GRID			000099000590
NL_GRID			1
UNRESTRICTED		FALSE
MAX_SCF_CYCLES		200
SYMMETRY		FALSE
SYM_IGNORE		TRUE
MEM_STATIC		2000
BASIS_LIN_DEP_THRESH 	6
THRESH 			14
SCF_CONVERGENCE 	8
SCF_PRINT_FRGM 		TRUE
$end
--------------------------------------------------------------
 ----------------------------------------------------------------
             Standard Nuclear Orientation (Angstroms)
    I     Atom           X                Y                Z
 ----------------------------------------------------------------
    1      C      12.0410000000    30.3490000000    28.9090000000
    2      H      13.1050000000    30.1620000000    29.0790000000
    3      C      11.6280000000    30.0140000000    27.4570000000
    4      O      10.8220000000    30.6630000000    26.7780000000
    5      N      12.2820000000    28.9590000000    26.9080000000
    6      H      12.9440000000    28.4220000000    27.4490000000
    7      C      11.6890000000    28.2240000000    25.7510000000
    8      H      11.3000000000    28.9900000000    25.0140000000
    9      H      11.4700000000    29.7420000000    29.5810000000
   10      H      11.8530000000    31.3890000000    29.0790000000
   11      H      12.4370000000    27.6170000000    25.2840000000
   12      H      10.8940000000    27.5880000000    26.0810000000
   13      C      16.1250000000    30.3890000000    28.1030000000
   14      H      15.1700000000    30.7910000000    28.5240000000
   15      C      15.5750000000    30.2000000000    26.6990000000
   16      O      15.7700000000    29.2010000000    26.0610000000
   17      N      14.8580000000    31.1720000000    26.1100000000
   18      H      14.6650000000    31.9800000000    26.6990000000
   19      C      14.6270000000    31.3200000000    24.6940000000
   20      H      14.2980000000    30.3410000000    24.3040000000
   21      H      16.9300000000    31.0930000000    28.1460000000
   22      H      16.5650000000    29.5410000000    28.5850000000
   23      H      13.8680000000    32.0540000000    24.5230000000
   24      H      15.5200000000    31.6400000000    24.2000000000
 ----------------------------------------------------------------
 Nuclear Repulsion Energy =         554.18901495 hartrees
 There are       40 alpha and       40 beta electrons
 Requested basis set is def2-TZVPD
 There are 202 shells and 502 basis functions

 Total QAlloc Memory Limit   2000 MB
 Mega-Array Size      1956 MB
 MEM_STATIC part      2000 MB
 A cutoff of  1.0D-14 yielded  18657 shell pairs
 There are    116693 function pairs (    145962 Cartesian)
 Smallest overlap matrix eigenvalue = 5.10E-06

 Scale SEOQF with 1.000000e-03/1.000000e-03/1.000000e-03

 Standard Electronic Orientation quadrupole field applied
 Nucleus-field energy     =    -0.0000000045 hartrees

 -----------------------------------------------------------------------
  General SCF calculation program by
  Eric Jon Sundstrom, Paul Horn, Yuezhi Mao, Dmitri Zuev, Alec White,
  David Stuck, Shaama M.S., Shane Yost, Joonho Lee, David Small,
  Daniel Levine, Susi Lehtola, Hugh Burton, Evgeny Epifanovsky,
  Bang C. Huynh
 -----------------------------------------------------------------------
================================================================
                 ALMO-EDA with the EDA2 driver                  
================================================================
 The second-generation ALMO-EDA (for DFT):                      
 P. R. Horn, Y. Mao and M. Head-Gordon, PCCP, 18, 23067 (2016)  
 Decomposition of the frozen energy:                            
 P. R. Horn, Y. Mao and M. Head-Gordon, JCP, 144, 114107 (2016) 
 FERF model for polarization:                                   
 P. R. Horn and M. Head-Gordon, JCP, 143, 114111 (2015)         
Using eda2 option set 1
Option set summary: Frozen orbital wavefunction, initial wavefunction decomposition, and nDQ polarization.
--------------------------------
Printing EDA Options
--------------------------------
eda_child_super_basis      0
fragmo_guess_mode          0
child_mp                   1
child_mp_orders            232
cls_elec                   1
cls_disp                   0
scfmi_mode                 1
scfmi_occs                 0
scfmi_virts                0
frz_relax                  0
frz_relax_method           0
dc_pen_start               0
dc_pen_conv                0
dc_pen_increment           0
dc_pen_steps               0
dc_pen_thresh_factor       0
dc_pen_pre_newton_thresh   0
frz_ortho_decomp           1
frz_ortho_decomp_conv      6
frgm_method                2
scfmi_freeze_ss            0
separate_rehyb             0
plot_diff_den              0
eda_nocv                   0
eda_vct_relax              1
disp_free_x                0
disp_free_c                0
eda_bsse                   0
eda_pct_a                  0
eda_covp                   0
--------------------------------
Attempting to make child job directory: /home/meili/scratch/qchem42415//Frg1/
Attempting to make child job directory: /home/meili/scratch/qchem42415//Frg2/
Creating input file /home/meili/scratch/qchem42415/Frg1.input
using default PutDataFrgm: nothing
calling putenv with: QCSCRATCH=/home/meili/scratch/qchem42415/ 
Spawning Job For Fragment 0
                  Welcome to Q-Chem
     A Quantum Leap Into The Future Of Chemistry


 Q-Chem 5.2 (devel), Q-Chem, Inc., Pleasanton, CA (2019)

 Yihan Shao,  Zhengting Gan,  E. Epifanovsky,  A. T. B. Gilbert,  M. Wormit,  
 J. Kussmann,  A. W. Lange,  A. Behn,  Jia Deng,  Xintian Feng,  D. Ghosh,  
 M. Goldey,  P. R. Horn,  L. D. Jacobson,  I. Kaliman,  T. Kus,  A. Landau,  
 Jie Liu,  E. I. Proynov,  R. M. Richard,  R. P. Steele,  E. J. Sundstrom,  
 H. L. Woodcock III,  P. M. Zimmerman,  D. Zuev,  B. Albrecht,  E. Alguire,  
 S. A. Baeppler,  D. Barton,  Z. Benda,  Y. A. Bernard,  E. J. Berquist,  
 K. B. Bravaya,  H. Burton,  D. Casanova,  Chun-Min Chang,  Yunqing Chen,  
 A. Chien,  K. D. Closser,  M. P. Coons,  S. Coriani,  S. Dasgupta,  
 A. L. Dempwolff,  M. Diedenhofen,  Hainam Do,  R. G. Edgar,  Po-Tung Fang,  
 S. Faraji,  S. Fatehi,  Qingguo Feng,  K. D. Fenk,  J. Fosso-Tande,  
 J. Gayvert,  Qinghui Ge,  A. Ghysels,  G. Gidofalvi,  J. Gomes,  
 J. Gonthier,  A. Gunina,  D. Hait,  M. W. D. Hanson-Heine,  
 P. H. P. Harbach,  A. W. Hauser,  M. F. Herbst,  J. E. Herr,  
 E. G. Hohenstein,  Z. C. Holden,  Kerwin Hui,  B. C. Huynh,  T.-C. Jagau,  
 Hyunjun Ji,  B. Kaduk,  K. Khistyaev,  Jaehoon Kim,  P. Klunzinger,  K. Koh,  
 D. Kosenkov,  L. Koulias,  T. Kowalczyk,  C. M. Krauter,  A. Kunitsa,  
 Ka Un Lao,  A. Laurent,  K. V. Lawler,  Joonho Lee,  D. Lefrancois,  
 S. Lehtola,  D. S. Levine,  Yi-Pei Li,  You-Sheng Lin,  Fenglai Liu,  
 E. Livshits,  A. Luenser,  P. Manohar,  E. Mansoor,  S. F. Manzer,  
 Shan-Ping Mao,  Yuezhi Mao,  N. Mardirossian,  A. V. Marenich,  
 T. Markovich,  L. A. Martinez-Martinez,  S. A. Maurer,  N. J. Mayhall,  
 S. C. McKenzie,  J.-M. Mewes,  P. Morgante,  A. F. Morrison,  
 J. W. Mullinax,  K. Nanda,  T. S. Nguyen-Beck,  R. Olivares-Amaya,  
 J. A. Parkhill,  Zheng Pei,  T. M. Perrine,  F. Plasser,  P. Pokhilko,  
 S. Prager,  A. Prociuk,  E. Ramos,  D. R. Rehn,  F. Rob,  M. Scheurer,  
 M. Schneider,  N. Sergueev,  S. M. Sharada,  S. Sharma,  D. W. Small,  
 T. Stauch,  T. Stein,  Yu-Chuan Su,  A. J. W. Thom,  A. Tkatchenko,  
 T. Tsuchimochi,  N. M. Tubman,  L. Vogt,  M. L. Vidal,  O. Vydrov,  
 M. A. Watson,  J. Wenzel,  M. de Wergifosse,  T. A. Wesolowski,  A. White,  
 J. Witte,  A. Yamada,  Jun Yang,  K. Yao,  S. Yeganeh,  S. R. Yost,  
 Zhi-Qiang You,  A. Zech,  Igor Ying Zhang,  Xing Zhang,  Yan Zhao,  
 Ying Zhu,  B. R. Brooks,  G. K. L. Chan,  C. J. Cramer,  M. S. Gordon,  
 W. J. Hehre,  A. Klamt,  M. W. Schmidt,  C. D. Sherrill,  D. G. Truhlar,  
 A. Aspuru-Guzik,  R. Baer,  A. T. Bell,  N. A. Besley,  Jeng-Da Chai,  
 A. E. DePrince, III,  R. A. DiStasio Jr.,  A. Dreuw,  B. D. Dunietz,  
 T. R. Furlani,  Chao-Ping Hsu,  Yousung Jung,  Jing Kong,  D. S. Lambrecht,  
 WanZhen Liang,  C. Ochsenfeld,  V. A. Rassolov,  L. V. Slipchenko,  
 J. E. Subotnik,  T. Van Voorhis,  J. M. Herbert,  A. I. Krylov,  
 P. M. W. Gill,  M. Head-Gordon

 Contributors to earlier versions of Q-Chem not listed above: 
 R. D. Adamson,  B. Austin,  J. Baker,  G. J. O. Beran,  K. Brandhorst,  
 S. T. Brown,  E. F. C. Byrd,  A. K. Chakraborty,  C.-L. Cheng,  
 Siu Hung Chien,  D. M. Chipman,  D. L. Crittenden,  H. Dachsel,  
 R. J. Doerksen,  A. D. Dutoi,  L. Fusti-Molnar,  W. A. Goddard III,  
 A. Golubeva-Zadorozhnaya,  S. R. Gwaltney,  G. Hawkins,  A. Heyden,  
 S. Hirata,  G. Kedziora,  F. J. Keil,  C. Kelley,  Jihan Kim,  R. A. King,  
 R. Z. Khaliullin,  P. P. Korambath,  W. Kurlancheek,  A. M. Lee,  M. S. Lee,  
 S. V. Levchenko,  Ching Yeh Lin,  D. Liotard,  R. C. Lochan,  I. Lotan,  
 P. E. Maslen,  N. Nair,  D. P. O'Neill,  D. Neuhauser,  E. Neuscamman,  
 C. M. Oana,  R. Olson,  B. Peters,  R. Peverati,  P. A. Pieniazek,  
 Y. M. Rhee,  J. Ritchie,  M. A. Rohrdanz,  E. Rosta,  N. J. Russ,  
 H. F. Schaefer III,  N. E. Schultz,  N. Shenvi,  A. C. Simmonett,  A. Sodt,  
 D. Stuck,  K. S. Thanthiriwatte,  V. Vanovschi,  Tao Wang,  A. Warshel,  
 C. F. Williams,  Q. Wu,  X. Xu,  W. Zhang

 Please cite Q-Chem as follows:
 Y. Shao et al., Mol. Phys. 113, 184-215 (2015)
 DOI: 10.1080/00268976.2014.952696

 Q-Chem 5.2.1 for Intel X86 EM64T Linux

 Parts of Q-Chem use Armadillo 8.300.2 (Tropical Shenanigans).
 http://arma.sourceforge.net/

 Q-Chem begins on Mon May 10 09:10:51 2021  

compute-0-1.local
Host: 0

     Scratch files written to /home/meili/scratch/qchem42415//Frg1//
NAlpha2: 40
NElect   40
Mult     1

Checking the input file for inconsistencies... 	...done.

--------------------------------------------------------------
User input:
--------------------------------------------------------------
$molecule
0 1
 6	12.0410000000	30.3490000000	28.9090000000
 1	13.1050000000	30.1620000000	29.0790000000
 6	11.6280000000	30.0140000000	27.4570000000
 8	10.8220000000	30.6630000000	26.7780000000
 7	12.2820000000	28.9590000000	26.9080000000
 1	12.9440000000	28.4220000000	27.4490000000
 6	11.6890000000	28.2240000000	25.7510000000
 1	11.3000000000	28.9900000000	25.0140000000
 1	11.4700000000	29.7420000000	29.5810000000
 1	11.8530000000	31.3890000000	29.0790000000
 1	12.4370000000	27.6170000000	25.2840000000
 1	10.8940000000	27.5880000000	26.0810000000
$end
$rem
EDA2		1
METHOD		WB97X-V
BASIS		DEF2-TZVPD
XC_GRID		000099000590
NL_GRID		1
UNRESTRICTED		FALSE
MAX_SCF_CYCLES		200
SYMMETRY		FALSE
SYM_IGNORE		TRUE
BASIS_LIN_DEP_THRESH		6
THRESH		14
SCF_CONVERGENCE		8
SCF_PRINT_FRGM		TRUE
!required keywords
JOBTYPE		SP
SYM_IGNORE		TRUE
SUBSYSTEM		TRUE
GEN_SCFMAN		TRUE
CHILD_INSTRUCTION		2
SYM_IGNORE		TRUE
SCFMI		0
RI_K 0		
PARI_K 0		
MIN_PARI_K 0		
IARI_K 0		
OCC_RI_K 0		
PURECART		1111
MEM_STATIC		2000
MEM_TOTAL		2000
GUI		0
CHILD_MP		1
CHILD_MP_ORDERS		232
FRZ_RELAX		0
FRZ_RELAX_METHOD		0
EDA_CLS_ELEC		1
EDA_CLS_DISP		0
FRZ_ORTHO_DECOMP		1
EDA2		FALSE
FRGM_METHOD		FALSE
CIS_N_ROOTS  0
LOCAL_CIS    0
CIS_RLX_DNS  1
$end
--------------------------------------------------------------
 ----------------------------------------------------------------
             Standard Nuclear Orientation (Angstroms)
    I     Atom           X                Y                Z
 ----------------------------------------------------------------
    1      C      12.0410000000    30.3490000000    28.9090000000
    2      H      13.1050000000    30.1620000000    29.0790000000
    3      C      11.6280000000    30.0140000000    27.4570000000
    4      O      10.8220000000    30.6630000000    26.7780000000
    5      N      12.2820000000    28.9590000000    26.9080000000
    6      H      12.9440000000    28.4220000000    27.4490000000
    7      C      11.6890000000    28.2240000000    25.7510000000
    8      H      11.3000000000    28.9900000000    25.0140000000
    9      H      11.4700000000    29.7420000000    29.5810000000
   10      H      11.8530000000    31.3890000000    29.0790000000
   11      H      12.4370000000    27.6170000000    25.2840000000
   12      H      10.8940000000    27.5880000000    26.0810000000
 ----------------------------------------------------------------
 Nuclear Repulsion Energy =         178.89161951 hartrees
 There are       20 alpha and       20 beta electrons
 Requested basis set is def2-TZVPD
 There are 101 shells and 251 basis functions

 Total QAlloc Memory Limit   2000 MB
 Mega-Array Size      1956 MB
 MEM_STATIC part      2000 MB

                       Distance Matrix (Angstroms)
             C (  1)   H (  2)   C (  3)   O (  4)   N (  5)   H (  6)
   H (  2)  1.093602
   C (  3)  1.546318  2.198708
   O (  4)  2.475019  3.279892  1.237691
   N (  5)  2.448302  2.614915  1.357255  2.247691
   H (  6)  2.580763  2.389649  2.065523  3.158355  1.009601
   C (  7)  3.822629  4.103228  2.473511  2.784805  1.493494  2.120715
   H (  8)  4.191299  4.599547  2.669159  2.477723  2.133664  2.992421
   H (  9)  1.070548  1.761144  2.147167  3.020754  2.901269  2.908694
   H ( 10)  1.070441  1.753007  2.138255  2.623859  3.286667  3.556722
   H ( 11)  4.556453  4.617930  3.334969  3.757443  2.112431  2.364804
   H ( 12)  4.115375  4.527914  2.884026  3.153826  2.118989  2.601822
             C (  7)   H (  8)   H (  9)   H ( 10)   H ( 11)
   H (  8)  1.131921
   H (  9)  4.125674  4.631619
   H ( 10)  4.595618  4.752393  1.763888
   H ( 11)  1.070534  1.802997  4.890289  5.382478
   H ( 12)  1.070243  1.808018  4.149879  4.935107  1.736922

 A cutoff of  1.0D-14 yielded   5027 shell pairs
 There are     31629 function pairs (     39783 Cartesian)
 Smallest overlap matrix eigenvalue = 8.85E-06

 Scale SEOQF with 1.000000e-02/1.000000e-03/1.000000e-03

 Standard Electronic Orientation quadrupole field applied
 Nucleus-field energy     =     0.0000000130 hartrees
 Guess from superposition of atomic densities
 Warning:  Energy on first SCF cycle will be non-variational
 SAD guess density has 40.000000 electrons

 -----------------------------------------------------------------------
  General SCF calculation program by
  Eric Jon Sundstrom, Paul Horn, Yuezhi Mao, Dmitri Zuev, Alec White,
  David Stuck, Shaama M.S., Shane Yost, Joonho Lee, David Small,
  Daniel Levine, Susi Lehtola, Hugh Burton, Evgeny Epifanovsky,
  Bang C. Huynh
 -----------------------------------------------------------------------
 Exchange:     0.1670 Hartree-Fock + 1.0000 wB97X-V + LR-HF
 Correlation:  1.0000 wB97X-V
 Using Euler-Maclaurin-Lebedev (99,590) quadrature formula
 Nonlocal Correlation:  VV10 with C = 0.0100 and b = 6.00 and scale = 1.00000
 Grid used for NLC:  SG-1 standard quadrature
Energy prior to optimization (guess energy) = -248.422135324858
Begin Timing: Total SCF Calculation
begin iterations for algorithm: DIIS         
the SCF tolerance is set to 1.00e-08
    1    -248.4221353249      4.20e-03     00000 
    2    -248.3583531640      5.79e-03     00000 
    3    -248.5380443538      5.21e-04     00000 
    4    -248.5396831567      2.29e-04     00000 
    5    -248.5400360705      5.69e-05     00000 
    6    -248.5400659289      2.01e-05     00000 
    7    -248.5400713201      5.73e-06     00000 
    8    -248.5400720635      1.78e-06     00000 
    9    -248.5400721163      6.64e-07     00000 
   10    -248.5400721218      1.34e-07     00000 
   11    -248.5400721221      3.19e-08     00000 
   12    -248.5400721221      1.12e-08     00000 
   13    -248.5400721221      4.08e-09     00000 Convergence criterion met
Timing for Total SCF: 310.00s (wall), 1868.81s (cpu)
Multipole orders to be included
        2
        3
computing dipole RHS
computing quadrupole RHS
total number of RHS in solve_reponses: 8
RHS batch sizes
        8
Beginning Block Conjugate Gradient Iterations. Batch Number: 0
computing hessian-vector products by finite difference
              1      4.88e-01     00000 Conjugate Gradient Iteration
computing hessian-vector products by finite difference
              2      1.38e-01     00000 Conjugate Gradient Iteration
computing hessian-vector products by finite difference
              3      3.58e-02     00000 Conjugate Gradient Iteration
computing hessian-vector products by finite difference
              4      9.47e-03     00000 Conjugate Gradient Iteration
computing hessian-vector products by finite difference
              5      1.83e-03     00000 Conjugate Gradient Iteration
computing hessian-vector products by finite difference
              6      3.64e-04     00000 Conjugate Gradient Iteration
computing hessian-vector products by finite difference
              7      5.77e-05     00000 Conjugate Gradient Iteration
computing hessian-vector products by finite difference
              8      6.90e-06     00000 Conjugate Gradient Iteration
computing hessian-vector products by finite difference
              9      9.27e-07     00000 Conjugate Gradient Iteration
computing hessian-vector products by finite difference
             10      1.25e-07     00000 Conjugate Gradient Iteration
computing hessian-vector products by finite difference
             11      2.26e-08     00000 Conjugate Gradient Iteration
computing hessian-vector products by finite difference
             12      3.92e-09     00000 CG Converged
batch 0 complete
Done Calculating Responses
TESTING ORTHOGONALIZATION OF MULTIPOLE BASIS
Multipole virts passed orthogonality test
Virts Per Order
           60
          100

 --------------------------------------------------------------

                    Orbital Energies (a.u.)
 --------------------------------------------------------------

 Alpha MOs
 -- Occupied --
-19.1721 -14.4355 -10.3739 -10.3019 -10.2744  -1.1574  -1.0448  -0.8832
 -0.8178  -0.7020  -0.6179  -0.5781  -0.5745  -0.5407  -0.5154  -0.5005
 -0.4943  -0.4655  -0.3629  -0.3549
 -- Virtual --
  0.0548   0.0775   0.0944   0.1005   0.1093   0.1201   0.1367   0.1380
  0.1503   0.1594   0.1682   0.1835   0.1938   0.1987   0.2041   0.2264
  0.2319   0.2411   0.2561   0.2647   0.2733   0.2806   0.2873   0.2926
  0.3092   0.3127   0.3161   0.3288   0.3360   0.3513   0.3553   0.3587
  0.3675   0.3735   0.3772   0.3788   0.3831   0.4044   0.4100   0.4137
  0.4324   0.4413   0.4454   0.4512   0.4552   0.4718   0.4763   0.4793
  0.4896   0.4977   0.5125   0.5173   0.5295   0.5334   0.5382   0.5509
  0.5654   0.5762   0.5912   0.6103   0.6214   0.6331   0.6489   0.6657
  0.6879   0.7020   0.7100   0.7197   0.7271   0.7353   0.7477   0.7753
  0.7813   0.7832   0.7947   0.8001   0.8120   0.8321   0.8379   0.8497
  0.8529   0.8614   0.8790   0.9113   0.9301   0.9381   0.9806   0.9951
  1.0158   1.0420   1.0501   1.0706   1.1097   1.1325   1.1663   1.2009
  1.2180   1.2458   1.2494   1.2815   1.3081   1.3194   1.3560   1.3720
  1.3868   1.4221   1.5018   1.5174   1.6078   1.6971   1.7279   1.7352
  1.7659   1.8284   1.8331   1.8523   1.8724   1.9012   1.9129   1.9210
  1.9371   1.9521   1.9856   2.0206   2.0297   2.0459   2.0722   2.1343
  2.1665   2.1884   2.1935   2.2131   2.2948   2.3126   2.3380   2.3872
  2.3926   2.4362   2.4406   2.4826   2.5019   2.5450   2.5708   2.5984
  2.6129   2.6285   2.6374   2.6753   2.7545   2.7682   2.8190   2.8314
  2.8403   2.8742   2.9051   2.9364   2.9615   2.9811   3.0380   3.1209
  3.1646   3.1677   3.1891   3.2295   3.2648   3.2814   3.2976   3.3192
  3.3483   3.3569   3.3810   3.4127   3.4388   3.4577   3.4879   3.5286
  3.5590   3.5851   3.5965   3.6133   3.6336   3.6703   3.7195   3.7404
  3.7818   3.8595   3.9032   3.9809   4.0317   4.0532   4.0752   4.1421
  4.2123   4.2760   4.3978   4.4740   4.5534   4.5605   4.6598   4.6798
  4.7387   4.8285   4.9513   4.9686   4.9921   5.1235   5.2319   5.2772
  5.3402   5.4035   5.4377   5.4756   5.5584   5.5923   5.6791   5.7891
  5.9251   6.0957   6.2507   6.5038   6.6665   6.7284   6.8156   7.0033
  7.2404   7.3352  22.5991  22.6151  23.4821  32.6248  44.3410
 --------------------------------------------------------------

          Ground-State Mulliken Net Atomic Charges

     Atom                 Charge (a.u.)
  ----------------------------------------
      1 C                    -0.736668
      2 H                     0.241406
      3 C                     0.490424
      4 O                    -0.533149
      5 N                    -0.105312
      6 H                     0.195215
      7 C                    -0.647249
      8 H                     0.238746
      9 H                     0.197277
     10 H                     0.199206
     11 H                     0.236277
     12 H                     0.223827
  ----------------------------------------
  Sum of atomic charges =     0.000000

 -----------------------------------------------------------------
                    Cartesian Multipole Moments
 -----------------------------------------------------------------
    Charge (ESU x 10^10)
                 0.0000
    Dipole Moment (Debye)
         X       2.3112      Y      -2.9631      Z       1.4996
       Tot       4.0460
    Quadrupole Moments (Debye-Ang)
        XX      21.6520     XY      35.1235     YY    -206.4138
        XZ      80.4099     YZ     -33.3777     ZZ      52.9547
    Octopole Moments (Debye-Ang^2)
       XXX    -187.3948    XXY     263.0141    XYY    -304.1632
       YYY  -10544.4694    XXZ     797.1661    XYZ    1507.1775
       YYZ   -4131.7354    XZZ    2328.5689    YZZ    -471.5284
       ZZZ     993.4668
    Hexadecapole Moments (Debye-Ang^3)
      XXXX  -11841.9192   XXXY   -9868.3391   XXYY   -7597.0725
      XYYY  -59411.4120   YYYY -470953.9629   XXXZ   -2609.3539
      XXYZ   13665.8208   XYYZ    9028.6615   YYYZ -240429.3560
      XXZZ   23342.0934   XYZZ   46060.9132   YYZZ  -97257.4177
      XZZZ   58036.3170   YZZZ  -24071.9897   ZZZZ   -6562.2030
 -----------------------------------------------------------------
Archival summary:
1\1\compute-0-1.local\SP\ProcedureUnspecified\BasisUnspecified\1137\meili\MonMay1010:48:202021MonMay1010:48:202021\0\\#,ProcedureUnspecified,BasisUnspecified,\\0,1\N\H,1,1.0096\C,1,1.35726,2,120.84\O,3,1.23769,1,119.965,2,179.836,0\C,1,1.49349,2,114.438,3,-156.467,0\H,5,1.07024,1,110.397,2,80.6643,0\H,5,1.07053,1,109.85,2,-38.8957,0\H,5,1.13192,1,107.928,2,-158.664,0\C,3,1.54632,1,114.804,2,3.24938,0\H,9,1.07044,3,108.222,1,153.686,0\H,9,1.07055,3,108.913,1,-85.6056,0\H,9,1.0936,3,111.64,1,34.7162,0\\\@

 Total job time:  5849.04s(wall), 35376.48s(cpu) 
 Mon May 10 10:48:20 2021

        *************************************************************
        *                                                           *
        *  Thank you very much for using Q-Chem.  Have a nice day.  *
        *                                                           *
        *************************************************************


Done Job For Fragment 0
calling putenv with: QCSCRATCH=/home/meili/scratch 
calling putenv with: QCTHREADS=8 
Creating input file /home/meili/scratch/qchem42415/Frg2.input
using default PutDataFrgm: nothing
calling putenv with: QCSCRATCH=/home/meili/scratch/qchem42415/ 
Spawning Job For Fragment 1
                  Welcome to Q-Chem
     A Quantum Leap Into The Future Of Chemistry


 Q-Chem 5.2 (devel), Q-Chem, Inc., Pleasanton, CA (2019)

 Yihan Shao,  Zhengting Gan,  E. Epifanovsky,  A. T. B. Gilbert,  M. Wormit,  
 J. Kussmann,  A. W. Lange,  A. Behn,  Jia Deng,  Xintian Feng,  D. Ghosh,  
 M. Goldey,  P. R. Horn,  L. D. Jacobson,  I. Kaliman,  T. Kus,  A. Landau,  
 Jie Liu,  E. I. Proynov,  R. M. Richard,  R. P. Steele,  E. J. Sundstrom,  
 H. L. Woodcock III,  P. M. Zimmerman,  D. Zuev,  B. Albrecht,  E. Alguire,  
 S. A. Baeppler,  D. Barton,  Z. Benda,  Y. A. Bernard,  E. J. Berquist,  
 K. B. Bravaya,  H. Burton,  D. Casanova,  Chun-Min Chang,  Yunqing Chen,  
 A. Chien,  K. D. Closser,  M. P. Coons,  S. Coriani,  S. Dasgupta,  
 A. L. Dempwolff,  M. Diedenhofen,  Hainam Do,  R. G. Edgar,  Po-Tung Fang,  
 S. Faraji,  S. Fatehi,  Qingguo Feng,  K. D. Fenk,  J. Fosso-Tande,  
 J. Gayvert,  Qinghui Ge,  A. Ghysels,  G. Gidofalvi,  J. Gomes,  
 J. Gonthier,  A. Gunina,  D. Hait,  M. W. D. Hanson-Heine,  
 P. H. P. Harbach,  A. W. Hauser,  M. F. Herbst,  J. E. Herr,  
 E. G. Hohenstein,  Z. C. Holden,  Kerwin Hui,  B. C. Huynh,  T.-C. Jagau,  
 Hyunjun Ji,  B. Kaduk,  K. Khistyaev,  Jaehoon Kim,  P. Klunzinger,  K. Koh,  
 D. Kosenkov,  L. Koulias,  T. Kowalczyk,  C. M. Krauter,  A. Kunitsa,  
 Ka Un Lao,  A. Laurent,  K. V. Lawler,  Joonho Lee,  D. Lefrancois,  
 S. Lehtola,  D. S. Levine,  Yi-Pei Li,  You-Sheng Lin,  Fenglai Liu,  
 E. Livshits,  A. Luenser,  P. Manohar,  E. Mansoor,  S. F. Manzer,  
 Shan-Ping Mao,  Yuezhi Mao,  N. Mardirossian,  A. V. Marenich,  
 T. Markovich,  L. A. Martinez-Martinez,  S. A. Maurer,  N. J. Mayhall,  
 S. C. McKenzie,  J.-M. Mewes,  P. Morgante,  A. F. Morrison,  
 J. W. Mullinax,  K. Nanda,  T. S. Nguyen-Beck,  R. Olivares-Amaya,  
 J. A. Parkhill,  Zheng Pei,  T. M. Perrine,  F. Plasser,  P. Pokhilko,  
 S. Prager,  A. Prociuk,  E. Ramos,  D. R. Rehn,  F. Rob,  M. Scheurer,  
 M. Schneider,  N. Sergueev,  S. M. Sharada,  S. Sharma,  D. W. Small,  
 T. Stauch,  T. Stein,  Yu-Chuan Su,  A. J. W. Thom,  A. Tkatchenko,  
 T. Tsuchimochi,  N. M. Tubman,  L. Vogt,  M. L. Vidal,  O. Vydrov,  
 M. A. Watson,  J. Wenzel,  M. de Wergifosse,  T. A. Wesolowski,  A. White,  
 J. Witte,  A. Yamada,  Jun Yang,  K. Yao,  S. Yeganeh,  S. R. Yost,  
 Zhi-Qiang You,  A. Zech,  Igor Ying Zhang,  Xing Zhang,  Yan Zhao,  
 Ying Zhu,  B. R. Brooks,  G. K. L. Chan,  C. J. Cramer,  M. S. Gordon,  
 W. J. Hehre,  A. Klamt,  M. W. Schmidt,  C. D. Sherrill,  D. G. Truhlar,  
 A. Aspuru-Guzik,  R. Baer,  A. T. Bell,  N. A. Besley,  Jeng-Da Chai,  
 A. E. DePrince, III,  R. A. DiStasio Jr.,  A. Dreuw,  B. D. Dunietz,  
 T. R. Furlani,  Chao-Ping Hsu,  Yousung Jung,  Jing Kong,  D. S. Lambrecht,  
 WanZhen Liang,  C. Ochsenfeld,  V. A. Rassolov,  L. V. Slipchenko,  
 J. E. Subotnik,  T. Van Voorhis,  J. M. Herbert,  A. I. Krylov,  
 P. M. W. Gill,  M. Head-Gordon

 Contributors to earlier versions of Q-Chem not listed above: 
 R. D. Adamson,  B. Austin,  J. Baker,  G. J. O. Beran,  K. Brandhorst,  
 S. T. Brown,  E. F. C. Byrd,  A. K. Chakraborty,  C.-L. Cheng,  
 Siu Hung Chien,  D. M. Chipman,  D. L. Crittenden,  H. Dachsel,  
 R. J. Doerksen,  A. D. Dutoi,  L. Fusti-Molnar,  W. A. Goddard III,  
 A. Golubeva-Zadorozhnaya,  S. R. Gwaltney,  G. Hawkins,  A. Heyden,  
 S. Hirata,  G. Kedziora,  F. J. Keil,  C. Kelley,  Jihan Kim,  R. A. King,  
 R. Z. Khaliullin,  P. P. Korambath,  W. Kurlancheek,  A. M. Lee,  M. S. Lee,  
 S. V. Levchenko,  Ching Yeh Lin,  D. Liotard,  R. C. Lochan,  I. Lotan,  
 P. E. Maslen,  N. Nair,  D. P. O'Neill,  D. Neuhauser,  E. Neuscamman,  
 C. M. Oana,  R. Olson,  B. Peters,  R. Peverati,  P. A. Pieniazek,  
 Y. M. Rhee,  J. Ritchie,  M. A. Rohrdanz,  E. Rosta,  N. J. Russ,  
 H. F. Schaefer III,  N. E. Schultz,  N. Shenvi,  A. C. Simmonett,  A. Sodt,  
 D. Stuck,  K. S. Thanthiriwatte,  V. Vanovschi,  Tao Wang,  A. Warshel,  
 C. F. Williams,  Q. Wu,  X. Xu,  W. Zhang

 Please cite Q-Chem as follows:
 Y. Shao et al., Mol. Phys. 113, 184-215 (2015)
 DOI: 10.1080/00268976.2014.952696

 Q-Chem 5.2.1 for Intel X86 EM64T Linux

 Parts of Q-Chem use Armadillo 8.300.2 (Tropical Shenanigans).
 http://arma.sourceforge.net/

 Q-Chem begins on Mon May 10 10:48:20 2021  

compute-0-1.local
Host: 0

     Scratch files written to /home/meili/scratch/qchem42415//Frg2//
NAlpha2: 40
NElect   40
Mult     1

Checking the input file for inconsistencies... 	...done.

--------------------------------------------------------------
User input:
--------------------------------------------------------------
$molecule
0 1
 6	16.1250000000	30.3890000000	28.1030000000
 1	15.1700000000	30.7910000000	28.5240000000
 6	15.5750000000	30.2000000000	26.6990000000
 8	15.7700000000	29.2010000000	26.0610000000
 7	14.8580000000	31.1720000000	26.1100000000
 1	14.6650000000	31.9800000000	26.6990000000
 6	14.6270000000	31.3200000000	24.6940000000
 1	14.2980000000	30.3410000000	24.3040000000
 1	16.9300000000	31.0930000000	28.1460000000
 1	16.5650000000	29.5410000000	28.5850000000
 1	13.8680000000	32.0540000000	24.5230000000
 1	15.5200000000	31.6400000000	24.2000000000
$end
$rem
EDA2		1
METHOD		WB97X-V
BASIS		DEF2-TZVPD
XC_GRID		000099000590
NL_GRID		1
UNRESTRICTED		FALSE
MAX_SCF_CYCLES		200
SYMMETRY		FALSE
SYM_IGNORE		TRUE
BASIS_LIN_DEP_THRESH		6
THRESH		14
SCF_CONVERGENCE		8
SCF_PRINT_FRGM		TRUE
!required keywords
JOBTYPE		SP
SYM_IGNORE		TRUE
SUBSYSTEM		TRUE
GEN_SCFMAN		TRUE
CHILD_INSTRUCTION		2
SYM_IGNORE		TRUE
SCFMI		0
RI_K 0		
PARI_K 0		
MIN_PARI_K 0		
IARI_K 0		
OCC_RI_K 0		
PURECART		1111
MEM_STATIC		2000
MEM_TOTAL		2000
GUI		0
CHILD_MP		1
CHILD_MP_ORDERS		232
FRZ_RELAX		0
FRZ_RELAX_METHOD		0
EDA_CLS_ELEC		1
EDA_CLS_DISP		0
FRZ_ORTHO_DECOMP		1
EDA2		FALSE
FRGM_METHOD		FALSE
CIS_N_ROOTS  0
LOCAL_CIS    0
CIS_RLX_DNS  1
$end
--------------------------------------------------------------
 ----------------------------------------------------------------
             Standard Nuclear Orientation (Angstroms)
    I     Atom           X                Y                Z
 ----------------------------------------------------------------
    1      C      16.1250000000    30.3890000000    28.1030000000
    2      H      15.1700000000    30.7910000000    28.5240000000
    3      C      15.5750000000    30.2000000000    26.6990000000
    4      O      15.7700000000    29.2010000000    26.0610000000
    5      N      14.8580000000    31.1720000000    26.1100000000
    6      H      14.6650000000    31.9800000000    26.6990000000
    7      C      14.6270000000    31.3200000000    24.6940000000
    8      H      14.2980000000    30.3410000000    24.3040000000
    9      H      16.9300000000    31.0930000000    28.1460000000
   10      H      16.5650000000    29.5410000000    28.5850000000
   11      H      13.8680000000    32.0540000000    24.5230000000
   12      H      15.5200000000    31.6400000000    24.2000000000
 ----------------------------------------------------------------
 Nuclear Repulsion Energy =         181.53744253 hartrees
 There are       20 alpha and       20 beta electrons
 Requested basis set is def2-TZVPD
 There are 101 shells and 251 basis functions

 Total QAlloc Memory Limit   2000 MB
 Mega-Array Size      1956 MB
 MEM_STATIC part      2000 MB

                       Distance Matrix (Angstroms)
             C (  1)   H (  2)   C (  3)   O (  4)   N (  5)   H (  6)
   H (  2)  1.118423
   C (  3)  1.519683  1.960595
   O (  4)  2.388961  2.992402  1.201278
   N (  5)  2.488057  2.463717  1.343798  2.172323
   H (  6)  2.575674  2.235927  1.999125  3.057926  1.018349
   C (  7)  3.838235  3.904304  2.484578  2.768628  1.442332  2.111177
   H (  8)  4.215760  4.332584  2.717836  2.559967  2.065381  2.925241
   H (  9)  1.070276  1.825291  2.174232  3.045076  2.905980  2.830336
   H ( 10)  1.070060  1.874099  2.229658  2.667996  3.420473  3.621563
   H ( 11)  4.547821  4.392991  3.329586  3.758012  2.067993  2.318547
   H ( 12)  4.142998  4.420439  2.884723  3.078074  2.074938  2.663011
             C (  7)   H (  8)   H (  9)   H ( 10)   H ( 11)
   H (  8)  1.103985
   H (  9)  4.155917  4.717403
   H ( 10)  4.696868  4.909812  1.653678
   H ( 11)  1.069616  1.779671  4.839989  5.485328
   H ( 12)  1.069526  1.786477  4.225899  4.972530  1.733444

 A cutoff of  1.0D-14 yielded   5033 shell pairs
 There are     31643 function pairs (     39800 Cartesian)
 Smallest overlap matrix eigenvalue = 8.38E-06

 Scale SEOQF with 1.000000e-03/1.000000e-03/1.000000e-03

 Standard Electronic Orientation quadrupole field applied
 Nucleus-field energy     =     0.0000000002 hartrees
 Guess from superposition of atomic densities
 Warning:  Energy on first SCF cycle will be non-variational
 SAD guess density has 40.000000 electrons

 -----------------------------------------------------------------------
  General SCF calculation program by
  Eric Jon Sundstrom, Paul Horn, Yuezhi Mao, Dmitri Zuev, Alec White,
  David Stuck, Shaama M.S., Shane Yost, Joonho Lee, David Small,
  Daniel Levine, Susi Lehtola, Hugh Burton, Evgeny Epifanovsky,
  Bang C. Huynh
 -----------------------------------------------------------------------
 Exchange:     0.1670 Hartree-Fock + 1.0000 wB97X-V + LR-HF
 Correlation:  1.0000 wB97X-V
 Using Euler-Maclaurin-Lebedev (99,590) quadrature formula
 Nonlocal Correlation:  VV10 with C = 0.0100 and b = 6.00 and scale = 1.00000
 Grid used for NLC:  SG-1 standard quadrature
Energy prior to optimization (guess energy) = -248.405358614365
Begin Timing: Total SCF Calculation
begin iterations for algorithm: DIIS         
the SCF tolerance is set to 1.00e-08
    1    -248.4053586144      4.29e-03     00000 
    2    -248.3544545197      5.68e-03     00000 
    3    -248.5252238607      4.87e-04     00000 
    4    -248.5266573241      2.24e-04     00000 
    5    -248.5269923291      5.20e-05     00000 
    6    -248.5270170460      1.96e-05     00000 
    7    -248.5270217653      5.18e-06     00000 
    8    -248.5270223496      1.49e-06     00000 
    9    -248.5270223885      5.34e-07     00000 
   10    -248.5270223918      1.07e-07     00000 
   11    -248.5270223921      2.53e-08     00000 
   12    -248.5270223921      8.93e-09     00000 Convergence criterion met
Timing for Total SCF: 391.00s (wall), 2364.37s (cpu)
Multipole orders to be included
        2
        3
computing dipole RHS
computing quadrupole RHS
total number of RHS in solve_reponses: 8
RHS batch sizes
        8
Beginning Block Conjugate Gradient Iterations. Batch Number: 0
computing hessian-vector products by finite difference
              1      4.88e-01     00000 Conjugate Gradient Iteration
computing hessian-vector products by finite difference
              2      1.62e-01     00000 Conjugate Gradient Iteration
computing hessian-vector products by finite difference
              3      3.97e-02     00000 Conjugate Gradient Iteration
computing hessian-vector products by finite difference
              4      9.51e-03     00000 Conjugate Gradient Iteration
computing hessian-vector products by finite difference
              5      1.75e-03     00000 Conjugate Gradient Iteration
computing hessian-vector products by finite difference
              6      3.69e-04     00000 Conjugate Gradient Iteration
computing hessian-vector products by finite difference
              7      6.17e-05     00000 Conjugate Gradient Iteration
computing hessian-vector products by finite difference
              8      9.46e-06     00000 Conjugate Gradient Iteration
computing hessian-vector products by finite difference
              9      1.34e-06     00000 Conjugate Gradient Iteration
computing hessian-vector products by finite difference
             10      1.75e-07     00000 Conjugate Gradient Iteration
computing hessian-vector products by finite difference
             11      2.13e-08     00000 Conjugate Gradient Iteration
computing hessian-vector products by finite difference
             12      3.53e-09     00000 CG Converged
batch 0 complete
Done Calculating Responses
TESTING ORTHOGONALIZATION OF MULTIPOLE BASIS
Multipole virts passed orthogonality test
Virts Per Order
           60
          100

 --------------------------------------------------------------

                    Orbital Energies (a.u.)
 --------------------------------------------------------------

 Alpha MOs
 -- Occupied --
-19.1608 -14.4302 -10.3625 -10.2981 -10.2760  -1.1740  -1.0512  -0.8906
 -0.8242  -0.6933  -0.6316  -0.5845  -0.5741  -0.5437  -0.5269  -0.5121
 -0.4879  -0.4621  -0.3562  -0.3481
 -- Virtual --
  0.0547   0.0777   0.0933   0.1043   0.1121   0.1239   0.1331   0.1409
  0.1504   0.1627   0.1669   0.1764   0.1943   0.2028   0.2060   0.2237
  0.2351   0.2380   0.2556   0.2656   0.2750   0.2813   0.2887   0.2987
  0.3055   0.3103   0.3191   0.3298   0.3385   0.3514   0.3578   0.3596
  0.3674   0.3743   0.3781   0.3872   0.3939   0.4045   0.4096   0.4202
  0.4336   0.4416   0.4472   0.4516   0.4587   0.4652   0.4767   0.4837
  0.4949   0.5039   0.5111   0.5139   0.5314   0.5389   0.5501   0.5608
  0.5696   0.5840   0.6071   0.6173   0.6268   0.6329   0.6456   0.6736
  0.6845   0.6971   0.7153   0.7166   0.7307   0.7348   0.7467   0.7668
  0.7812   0.7867   0.7979   0.8106   0.8244   0.8303   0.8386   0.8499
  0.8581   0.8719   0.8961   0.9109   0.9197   0.9479   0.9724   1.0167
  1.0185   1.0526   1.0657   1.0726   1.1173   1.1527   1.1833   1.1949
  1.2133   1.2350   1.2754   1.3024   1.3174   1.3262   1.3539   1.3673
  1.4019   1.4431   1.5150   1.5345   1.6263   1.6865   1.7330   1.7539
  1.7904   1.8279   1.8594   1.8652   1.8751   1.9119   1.9278   1.9349
  1.9397   1.9561   1.9878   1.9996   2.0232   2.0462   2.0930   2.1203
  2.1706   2.1806   2.2346   2.2868   2.2954   2.3308   2.3349   2.3816
  2.4094   2.4293   2.4604   2.4897   2.5088   2.5400   2.5688   2.6018
  2.6229   2.6357   2.6669   2.7107   2.7450   2.7918   2.8278   2.8374
  2.8547   2.8782   2.9323   2.9660   2.9787   3.0274   3.0642   3.1093
  3.1365   3.2065   3.2221   3.2492   3.2784   3.2852   3.3158   3.3498
  3.3778   3.3863   3.4076   3.4283   3.4657   3.4791   3.4815   3.5472
  3.5936   3.6120   3.6283   3.6450   3.6610   3.6795   3.7391   3.7688
  3.8246   3.8670   3.9000   3.9888   4.0779   4.0943   4.1402   4.2031
  4.2499   4.3047   4.4189   4.4631   4.5277   4.5995   4.6892   4.7058
  4.7673   4.8181   4.9361   4.9725   5.0462   5.1912   5.2390   5.2769
  5.3560   5.4180   5.4599   5.4952   5.6290   5.6823   5.7679   5.8402
  6.0328   6.1265   6.3338   6.5968   6.6841   6.8082   6.9129   7.0211
  7.2997   7.3797  22.6165  22.7161  23.6637  32.7186  44.3713
 --------------------------------------------------------------

          Ground-State Mulliken Net Atomic Charges

     Atom                 Charge (a.u.)
  ----------------------------------------
      1 C                    -0.728478
      2 H                     0.202514
      3 C                     0.509735
      4 O                    -0.513597
      5 N                    -0.097502
      6 H                     0.177422
      7 C                    -0.664152
      8 H                     0.241279
      9 H                     0.216260
     10 H                     0.192207
     11 H                     0.243824
     12 H                     0.220488
  ----------------------------------------
  Sum of atomic charges =     0.000000

 -----------------------------------------------------------------
                    Cartesian Multipole Moments
 -----------------------------------------------------------------
    Charge (ESU x 10^10)
                -0.0000
    Dipole Moment (Debye)
         X      -0.7245      Y       3.6196      Z       1.0790
       Tot       3.8459
    Quadrupole Moments (Debye-Ang)
        XX     -52.5112     XY      33.4706     YY     187.3519
        XZ      -0.3116     YZ     126.2800     ZZ      28.7889
    Octopole Moments (Debye-Ang^2)
       XXX   -1906.6570    XXY    -747.5592    XYY    2196.8011
       YYY    7048.0889    XXZ   -1059.5056    XYZ    1422.4665
       YYZ    5819.7461    XZZ      55.1111    YZZ    3284.7631
       ZZZ      26.4223
    Hexadecapole Moments (Debye-Ang^3)
      XXXX  -53426.1354   XXXY  -44978.7531   XXYY   -4842.7889
      XYYY   87180.9389   YYYY  224792.5101   XXXZ  -44738.8781
      XXYZ  -10318.5654   XYYZ   73398.4454   YYYZ  210916.9913
      XXZZ  -26073.7142   XYZZ   38561.7706   YYZZ  150380.5639
      XZZZ   -8330.5788   YZZZ   62818.1978   ZZZZ  -38516.0583
 -----------------------------------------------------------------
Archival summary:
1\1\compute-0-1.local\SP\ProcedureUnspecified\BasisUnspecified\1137\meili\MonMay1012:18:092021MonMay1012:18:092021\0\\#,ProcedureUnspecified,BasisUnspecified,\\0,1\N\H,1,1.01835\C,1,1.3438,2,114.931\O,3,1.20128,1,117.087,2,176.497,0\C,1,1.44233,2,117.133,3,-165.759,0\H,5,1.06953,1,110.514,2,91.9373,0\H,5,1.06962,1,109.939,2,-27.5082,0\H,5,1.10398,1,107.671,2,-147.232,0\C,3,1.51968,1,120.537,2,-4.51737,0\H,9,1.07006,3,117.802,1,171.277,0\H,9,1.07028,3,113.025,1,-71.1895,0\H,9,1.11842,3,94.7861,1,46.2995,0\\\@

 Total job time:  5388.31s(wall), 32645.60s(cpu) 
 Mon May 10 12:18:09 2021

        *************************************************************
        *                                                           *
        *  Thank you very much for using Q-Chem.  Have a nice day.  *
        *                                                           *
        *************************************************************


Done Job For Fragment 1
calling putenv with: QCSCRATCH=/home/meili/scratch 
calling putenv with: QCTHREADS=8 
Doing General SCFMI
 Exchange:     0.1670 Hartree-Fock + 1.0000 wB97X-V + LR-HF
 Correlation:  1.0000 wB97X-V
 Using Euler-Maclaurin-Lebedev (99,590) quadrature formula
 Nonlocal Correlation:  VV10 with C = 0.0100 and b = 6.00 and scale = 1.00000
 Grid used for NLC:  SG-1 standard quadrature
performing fock build before subrot guess so that all methods have access
Printing subrot_rss_gen Method Specification:
Occupied Subspace Method is 0
Virtual Subspace Method is 0
Energy of the unrelaxed supersystem initial determinant -497.071717243453
write pseudocanon occs and virts to disk
write pseudocanon orbital energies to disk
Tolerance of ortho_decomp_scf: 1.00e-06
GDM subspace size: 20
Beginning the Orthogonal Decomposition of the Initial Supersystem Wavefunction
    1    -497.0535604910      2.26e-02     ortho_decomp Preconditoned Steepest Descent
    2    -497.0548387278      5.26e-04     ortho_decomp BFGS Step
    3    -497.0548420896      3.20e-05     ortho_decomp BFGS Step
    4    -497.0548420932      1.10e-06     ortho_decomp BFGS Step
    5    -497.0548420932      3.26e-08     ortho_decomp 00000 Convergence criterion met
 Hartree-Fock
 Hartree-Fock
 Hartree-Fock
Doing General SCFMI
 Exchange:     0.1670 Hartree-Fock + 1.0000 wB97X-V + LR-HF
 Correlation:  1.0000 wB97X-V
 Using Euler-Maclaurin-Lebedev (99,590) quadrature formula
 Nonlocal Correlation:  VV10 with C = 0.0100 and b = 6.00 and scale = 1.00000
 Grid used for NLC:  SG-1 standard quadrature
performing fock build at end of subrot_r(subrot) constructor so that all methods have access
<S^2> of initial wavefunction before polarization iterations 0.0000000000
Beginning iterations for the determination of the polarized wavefunction
Energy prior to optimization (guess energy) = -497.071717243453
Begin Timing: Total SCF Calculation
begin iterations for algorithm: DIIS         
the SCF tolerance is set to 1.00e-08
    1    -497.0717172435      9.37e-05     00000 
    2    -497.0723453018      4.76e-05     00000 
    3    -497.0724136924      2.77e-05     00000 
    4    -497.0724408233      1.00e-05     00000 
    5    -497.0724451913      4.55e-06     00000 
    6    -497.0724461991      1.71e-06     00000 
    7    -497.0724464167      5.44e-07     00000 
    8    -497.0724464354      2.36e-07     00000 
    9    -497.0724464377      1.23e-07     00000 
   10    -497.0724464381      3.41e-08     00000 
   11    -497.0724464382      1.22e-08     00000 
   12    -497.0724464382      4.10e-09     00000 Convergence criterion met
write pseudocanon occs and virts to disk
write pseudocanon orbital energies to disk
Timing for Total SCF: 1915.00s (wall), 12263.74s (cpu)
<S^2> of polarized wavefunction after polarization iterations 0.0000000000
relaxing scfmi constraint to allow all rotations in the entire AO span
Doing General SCFMI
 Exchange:     0.1670 Hartree-Fock + 1.0000 wB97X-V + LR-HF
 Correlation:  1.0000 wB97X-V
 Using Euler-Maclaurin-Lebedev (99,590) quadrature formula
 Nonlocal Correlation:  VV10 with C = 0.0100 and b = 6.00 and scale = 1.00000
 Grid used for NLC:  SG-1 standard quadrature
performing fock build at end of subrot_r(subrot) constructor so that all methods have access
<S^2> of polarized wavefunction before ct-allowed iterations 0.0000000000
Beginning iterations for the determination of the CT-Allowed wavefunction
Energy prior to optimization (guess energy) = -497.072446438212
Begin Timing: Total SCF Calculation
begin iterations for algorithm: DIIS         
the SCF tolerance is set to 1.00e-08
    1    -497.0724464382      7.75e-05     00000 
    2    -497.0730511625      6.91e-06     00000 
    3    -497.0730657293      1.08e-06     00000 
    4    -497.0730661167      6.52e-07     00000 
    5    -497.0730661554      1.73e-07     00000 
    6    -497.0730661593      6.87e-08     00000 
    7    -497.0730661598      1.39e-08     00000 
    8    -497.0730661599      6.08e-09     00000 Convergence criterion met
write pseudocanon occs and virts to disk
write pseudocanon orbital energies to disk
Timing for Total SCF: 1070.00s (wall), 7366.60s (cpu)
<S^2> of ct_allowed wavefunction after ct-allowed iterations 0.0000000000

================================
        Results of EDA2         
================================
Basic EDA Quantities
--------------------
Fragment Energies (Ha):
1 -248.5400721221
2 -248.5270223921
--------------------
  E_prp (kJ/mol) = 0.0000
  E_frz (kJ/mol) = -12.1371
  E_pol (kJ/mol) = -1.9145
  E_vct (kJ/mol) = -1.6271
  E_int (kJ/mol) = -15.6787
--------------------


Initial Wavefunction Decomposition
--------------------
  --------------------
  Orthogonal Fragment Subspace Decomposition:
  --------------------
     E_elec   (ELEC)   (kJ/mol) = -20.0186
     E_pauli  (PAULI)  (kJ/mol) = 24.6662
     E_disp   (DISP)   (kJ/mol) = -16.7847
     --------------------
     Terms summing to E_pauli:
     --------------------
        E_kep_pauli       (kJ/mol) = 32.1691
        E_disp_free_pauli (kJ/mol) = -7.5030
  --------------------
  Classical Frozen Decomposition:
  --------------------
     E_cls_elec  (CLS ELEC)  (kJ/mol) = -7.7523
     E_cls_pauli (CLS PAULI) (kJ/mol) = -4.3849
    [E_mod_pauli (MOD PAULI) (kJ/mol) = 12.3998 (CLS PAULI - DISP from orthogonal decomposition) ]
  --------------------
--------------------

Simplified EDA Summary (kJ/mol)
--------------------
 PREPARATION     0.0000
 FROZEN          4.6476      (does not include dispersion)
[PAULI           24.6662]     (if this is negligible, then frozen describes electrostatics)
 DISPERSION      -16.7847
 POLARIZATION    -1.9145
 CHARGE TRANSFER -1.6271
 TOTAL           -15.6787     (PRP + FRZ + DISP + POL + CT)
--------------------

 --------------------------------------------------------------

                    Orbital Energies (a.u.)
 --------------------------------------------------------------

 Alpha MOs
 -- Occupied --
-19.1717 -19.1658 -14.4312 -14.4312 -10.3733 -10.3666 -10.2967 -10.2961
-10.2825 -10.2777  -1.1782  -1.1566  -1.0524  -1.0411  -0.8952  -0.8839
 -0.8252  -0.8148  -0.6979  -0.6942  -0.6343  -0.6167  -0.5925  -0.5781
 -0.5747  -0.5720  -0.5473  -0.5388  -0.5307  -0.5165  -0.5122  -0.5007
 -0.4907  -0.4898  -0.4687  -0.4631  -0.3620  -0.3580  -0.3548  -0.3500
 -- Virtual --
  0.0476   0.0701   0.0721   0.0788   0.0924   0.0969   0.1009   0.1055
  0.1099   0.1145   0.1171   0.1330   0.1382   0.1399   0.1471   0.1535
  0.1546   0.1589   0.1620   0.1734   0.1812   0.1879   0.1923   0.1958
  0.2018   0.2123   0.2176   0.2220   0.2283   0.2338   0.2448   0.2489
  0.2541   0.2559   0.2609   0.2665   0.2692   0.2751   0.2818   0.2886
  0.2914   0.2954   0.2996   0.3059   0.3115   0.3143   0.3218   0.3244
  0.3296   0.3309   0.3377   0.3428   0.3460   0.3485   0.3486   0.3520
  0.3576   0.3594   0.3670   0.3681   0.3693   0.3772   0.3847   0.3877
  0.3902   0.3935   0.3969   0.4032   0.4090   0.4125   0.4161   0.4219
  0.4253   0.4297   0.4407   0.4435   0.4459   0.4529   0.4566   0.4614
  0.4648   0.4679   0.4754   0.4779   0.4798   0.4919   0.4970   0.4997
  0.5007   0.5033   0.5059   0.5079   0.5177   0.5223   0.5265   0.5318
  0.5341   0.5423   0.5444   0.5483   0.5551   0.5653   0.5681   0.5748
  0.5818   0.5886   0.5968   0.6004   0.6072   0.6150   0.6200   0.6266
  0.6274   0.6311   0.6468   0.6526   0.6548   0.6607   0.6699   0.6747
  0.6788   0.6838   0.6875   0.6976   0.7031   0.7101   0.7163   0.7257
  0.7283   0.7354   0.7392   0.7452   0.7571   0.7646   0.7700   0.7721
  0.7772   0.7843   0.7879   0.7900   0.7956   0.8033   0.8066   0.8112
  0.8186   0.8279   0.8340   0.8408   0.8444   0.8582   0.8608   0.8663
  0.8710   0.8799   0.8905   0.8983   0.9013   0.9062   0.9144   0.9197
  0.9285   0.9348   0.9436   0.9473   0.9577   0.9709   0.9824   0.9856
  0.9926   0.9998   1.0106   1.0271   1.0402   1.0510   1.0521   1.0718
  1.0848   1.0946   1.0991   1.1166   1.1341   1.1376   1.1511   1.1640
  1.1764   1.1924   1.2014   1.2136   1.2276   1.2385   1.2476   1.2531
  1.2666   1.2781   1.2993   1.3060   1.3139   1.3295   1.3448   1.3508
  1.3647   1.3722   1.3829   1.3941   1.4035   1.4285   1.4307   1.4531
  1.4743   1.4836   1.4977   1.5028   1.5375   1.5558   1.6103   1.6196
  1.6595   1.6740   1.7244   1.7303   1.7753   1.7764   1.7781   1.7973
  1.8046   1.8359   1.8622   1.8711   1.8797   1.8922   1.9044   1.9151
  1.9268   1.9329   1.9373   1.9426   1.9510   1.9665   1.9695   1.9784
  1.9823   1.9876   1.9986   2.0067   2.0299   2.0430   2.0519   2.0585
  2.0758   2.0871   2.1054   2.1156   2.1423   2.1610   2.1781   2.1881
  2.2028   2.2128   2.2257   2.2287   2.2489   2.2535   2.2905   2.3222
  2.3373   2.3442   2.3578   2.3702   2.3811   2.3950   2.4075   2.4198
  2.4484   2.4539   2.4748   2.4913   2.4968   2.5122   2.5321   2.5477
  2.5642   2.5712   2.5812   2.6047   2.6258   2.6366   2.6401   2.6625
  2.6701   2.6786   2.6891   2.6904   2.7017   2.7183   2.7414   2.7685
  2.7759   2.7959   2.8070   2.8288   2.8565   2.8647   2.8686   2.8782
  2.8881   2.9097   2.9168   2.9421   2.9579   2.9711   2.9765   2.9927
  2.9948   3.0168   3.0380   3.1021   3.1092   3.1289   3.1516   3.1682
  3.1739   3.2110   3.2250   3.2366   3.2546   3.2700   3.2863   3.3029
  3.3036   3.3163   3.3260   3.3345   3.3388   3.3495   3.3617   3.3667
  3.3935   3.3968   3.4084   3.4112   3.4296   3.4373   3.4491   3.4655
  3.4774   3.4868   3.4892   3.5094   3.5116   3.5199   3.5592   3.5814
  3.5860   3.6137   3.6155   3.6196   3.6408   3.6538   3.6690   3.6792
  3.6897   3.7008   3.7151   3.7485   3.7536   3.7710   3.7830   3.8013
  3.8145   3.8506   3.8862   3.8942   3.9265   3.9318   3.9959   4.0090
  4.0670   4.0749   4.0940   4.0965   4.1116   4.1595   4.1714   4.2231
  4.2362   4.2645   4.3050   4.3272   4.4364   4.4582   4.4932   4.5027
  4.5490   4.5760   4.5958   4.6136   4.6892   4.6977   4.7129   4.7340
  4.7616   4.7915   4.8373   4.8546   4.9690   4.9790   4.9980   5.0181
  5.0232   5.0722   5.1446   5.2091   5.2527   5.2603   5.3095   5.3253
  5.3497   5.3789   5.4149   5.4333   5.4528   5.4819   5.5059   5.5256
  5.6075   5.6286   5.6428   5.6973   5.7095   5.7889   5.8013   5.8441
  5.9424   6.0502   6.1241   6.1405   6.2600   6.3428   6.5138   6.6052
  6.6928   6.7129   6.7360   6.8253   6.8323   6.9171   7.0258   7.0409
  7.2547   7.3166   7.3442   7.3881  22.6403  22.6664  22.6736  22.7678
 23.5178  23.6963  32.6923  32.7779  44.4403  44.4917
 --------------------------------------------------------------

          Ground-State Mulliken Net Atomic Charges

     Atom                 Charge (a.u.)
  ----------------------------------------
      1 C                    -0.664776
      2 H                     0.069595
      3 C                     0.562537
      4 O                    -0.558698
      5 N                    -0.034273
      6 H                     0.186695
      7 C                    -0.731126
      8 H                     0.247691
      9 H                     0.225525
     10 H                     0.182689
     11 H                     0.266804
     12 H                     0.238306
     13 C                    -0.647099
     14 H                     0.059353
     15 C                     0.498634
     16 O                    -0.535795
     17 N                     0.002954
     18 H                     0.195206
     19 C                    -0.704261
     20 H                     0.215871
     21 H                     0.249707
     22 H                     0.172864
     23 H                     0.269797
     24 H                     0.231801
  ----------------------------------------
  Sum of atomic charges =     0.000000

 -----------------------------------------------------------------
                    Cartesian Multipole Moments
 -----------------------------------------------------------------
    Charge (ESU x 10^10)
                -0.0000
    Dipole Moment (Debye)
         X       1.6189      Y       0.6191      Z       2.3428
       Tot       2.9143
    Quadrupole Moments (Debye-Ang)
        XX     -30.4464     XY      69.5310     YY     -21.0021
        XZ      77.6620     YZ      84.5894     ZZ      68.9711
    Octopole Moments (Debye-Ang^2)
       XXX   -2093.6484    XXY    -465.7295    XYY    1924.1914
       YYY   -3570.1993    XXZ    -296.9546    XYZ    2852.9279
       YYZ    1408.8212    XZZ    2227.9830    YZZ    2390.4779
       ZZZ     500.0695
    Hexadecapole Moments (Debye-Ang^3)
      XXXX  -65383.6733   XXXY  -54649.4634   XXYY  -11624.5178
      XYYY   28945.2189   YYYY -248583.0927   XXXZ  -47964.9675
      XXYZ    2445.9048   XYYZ   80120.3178   YYYZ  -38568.4315
      XXZZ   -4914.6587   XYZZ   79777.1185   YYZZ   39430.1120
      XZZZ   43042.2156   YZZZ   21918.0509   ZZZZ  -63914.8653
 -----------------------------------------------------------------
Archival summary:
1\1\compute-0-1.local\SP\ProcedureUnspecified\BasisUnspecified\22614\meili\MonMay1013:49:502021MonMay1013:49:502021\0\\#,ProcedureUnspecified,BasisUnspecified,\\0,1\N\H,1,1.0096\C,1,1.35726,2,120.84\O,3,1.23769,1,119.965,2,179.836,0\C,1,1.49349,2,114.438,3,-156.467,0\H,5,1.07024,1,110.397,2,80.6643,0\H,5,1.07053,1,109.85,2,-38.8957,0\H,5,1.13192,1,107.928,2,-158.664,0\C,3,1.54632,1,114.804,2,3.24938,0\H,9,1.07044,3,108.222,1,153.686,0\H,9,1.07055,3,108.913,1,-85.6056,0\H,9,1.0936,3,111.64,1,34.7162,0\H,12,2.22888,9,144.531,3,65.277,0\C,13,1.11842,12,141.573,9,-122.862,0\H,14,1.07006,13,117.801,12,-54.3774,0\H,14,1.07028,13,112.997,12,-171.888,0\C,14,1.51968,13,94.7861,12,70.6006,0\O,17,1.20128,14,122.368,13,-134.77,0\N,17,1.3438,14,120.537,13,46.2995,0\H,19,1.01835,17,114.931,14,-4.51737,0\C,19,1.44233,17,126.156,14,159.75,0\H,21,1.06953,19,110.514,17,-72.0241,0\H,21,1.06962,19,109.939,17,168.53,0\H,21,1.10398,19,107.671,17,48.8065,0\\\@

 Total job time:  16839.85s(wall), 35793.42s(cpu) 
 Mon May 10 13:49:50 2021

        *************************************************************
        *                                                           *
        *  Thank you very much for using Q-Chem.  Have a nice day.  *
        *                                                           *
        *************************************************************


