                  Welcome to Q-Chem
     A Quantum Leap Into The Future Of Chemistry


 Q-Chem 5.2 (devel), Q-Chem, Inc., Pleasanton, CA (2019)

 Yihan Shao,  Zhengting Gan,  E. Epifanovsky,  A. T. B. Gilbert,  M. Wormit,  
 J. Kussmann,  A. W. Lange,  A. Behn,  Jia Deng,  Xintian Feng,  D. Ghosh,  
 M. Goldey,  P. R. Horn,  L. D. Jacobson,  I. Kaliman,  T. Kus,  A. Landau,  
 Jie Liu,  E. I. Proynov,  R. M. Richard,  R. P. Steele,  E. J. Sundstrom,  
 H. L. Woodcock III,  P. M. Zimmerman,  D. Zuev,  B. Albrecht,  E. Alguire,  
 S. A. Baeppler,  D. Barton,  Z. Benda,  Y. A. Bernard,  E. J. Berquist,  
 K. B. Bravaya,  H. Burton,  D. Casanova,  Chun-Min Chang,  Yunqing Chen,  
 A. Chien,  K. D. Closser,  M. P. Coons,  S. Coriani,  S. Dasgupta,  
 A. L. Dempwolff,  M. Diedenhofen,  Hainam Do,  R. G. Edgar,  Po-Tung Fang,  
 S. Faraji,  S. Fatehi,  Qingguo Feng,  K. D. Fenk,  J. Fosso-Tande,  
 J. Gayvert,  Qinghui Ge,  A. Ghysels,  G. Gidofalvi,  J. Gomes,  
 J. Gonthier,  A. Gunina,  D. Hait,  M. W. D. Hanson-Heine,  
 P. H. P. Harbach,  A. W. Hauser,  M. F. Herbst,  J. E. Herr,  
 E. G. Hohenstein,  Z. C. Holden,  Kerwin Hui,  B. C. Huynh,  T.-C. Jagau,  
 Hyunjun Ji,  B. Kaduk,  K. Khistyaev,  Jaehoon Kim,  P. Klunzinger,  K. Koh,  
 D. Kosenkov,  L. Koulias,  T. Kowalczyk,  C. M. Krauter,  A. Kunitsa,  
 Ka Un Lao,  A. Laurent,  K. V. Lawler,  Joonho Lee,  D. Lefrancois,  
 S. Lehtola,  D. S. Levine,  Yi-Pei Li,  You-Sheng Lin,  Fenglai Liu,  
 E. Livshits,  A. Luenser,  P. Manohar,  E. Mansoor,  S. F. Manzer,  
 Shan-Ping Mao,  Yuezhi Mao,  N. Mardirossian,  A. V. Marenich,  
 T. Markovich,  L. A. Martinez-Martinez,  S. A. Maurer,  N. J. Mayhall,  
 S. C. McKenzie,  J.-M. Mewes,  P. Morgante,  A. F. Morrison,  
 J. W. Mullinax,  K. Nanda,  T. S. Nguyen-Beck,  R. Olivares-Amaya,  
 J. A. Parkhill,  Zheng Pei,  T. M. Perrine,  F. Plasser,  P. Pokhilko,  
 S. Prager,  A. Prociuk,  E. Ramos,  D. R. Rehn,  F. Rob,  M. Scheurer,  
 M. Schneider,  N. Sergueev,  S. M. Sharada,  S. Sharma,  D. W. Small,  
 T. Stauch,  T. Stein,  Yu-Chuan Su,  A. J. W. Thom,  A. Tkatchenko,  
 T. Tsuchimochi,  N. M. Tubman,  L. Vogt,  M. L. Vidal,  O. Vydrov,  
 M. A. Watson,  J. Wenzel,  M. de Wergifosse,  T. A. Wesolowski,  A. White,  
 J. Witte,  A. Yamada,  Jun Yang,  K. Yao,  S. Yeganeh,  S. R. Yost,  
 Zhi-Qiang You,  A. Zech,  Igor Ying Zhang,  Xing Zhang,  Yan Zhao,  
 Ying Zhu,  B. R. Brooks,  G. K. L. Chan,  C. J. Cramer,  M. S. Gordon,  
 W. J. Hehre,  A. Klamt,  M. W. Schmidt,  C. D. Sherrill,  D. G. Truhlar,  
 A. Aspuru-Guzik,  R. Baer,  A. T. Bell,  N. A. Besley,  Jeng-Da Chai,  
 A. E. DePrince, III,  R. A. DiStasio Jr.,  A. Dreuw,  B. D. Dunietz,  
 T. R. Furlani,  Chao-Ping Hsu,  Yousung Jung,  Jing Kong,  D. S. Lambrecht,  
 WanZhen Liang,  C. Ochsenfeld,  V. A. Rassolov,  L. V. Slipchenko,  
 J. E. Subotnik,  T. Van Voorhis,  J. M. Herbert,  A. I. Krylov,  
 P. M. W. Gill,  M. Head-Gordon

 Contributors to earlier versions of Q-Chem not listed above: 
 R. D. Adamson,  B. Austin,  J. Baker,  G. J. O. Beran,  K. Brandhorst,  
 S. T. Brown,  E. F. C. Byrd,  A. K. Chakraborty,  C.-L. Cheng,  
 Siu Hung Chien,  D. M. Chipman,  D. L. Crittenden,  H. Dachsel,  
 R. J. Doerksen,  A. D. Dutoi,  L. Fusti-Molnar,  W. A. Goddard III,  
 A. Golubeva-Zadorozhnaya,  S. R. Gwaltney,  G. Hawkins,  A. Heyden,  
 S. Hirata,  G. Kedziora,  F. J. Keil,  C. Kelley,  Jihan Kim,  R. A. King,  
 R. Z. Khaliullin,  P. P. Korambath,  W. Kurlancheek,  A. M. Lee,  M. S. Lee,  
 S. V. Levchenko,  Ching Yeh Lin,  D. Liotard,  R. C. Lochan,  I. Lotan,  
 P. E. Maslen,  N. Nair,  D. P. O'Neill,  D. Neuhauser,  E. Neuscamman,  
 C. M. Oana,  R. Olson,  B. Peters,  R. Peverati,  P. A. Pieniazek,  
 Y. M. Rhee,  J. Ritchie,  M. A. Rohrdanz,  E. Rosta,  N. J. Russ,  
 H. F. Schaefer III,  N. E. Schultz,  N. Shenvi,  A. C. Simmonett,  A. Sodt,  
 D. Stuck,  K. S. Thanthiriwatte,  V. Vanovschi,  Tao Wang,  A. Warshel,  
 C. F. Williams,  Q. Wu,  X. Xu,  W. Zhang

 Please cite Q-Chem as follows:
 Y. Shao et al., Mol. Phys. 113, 184-215 (2015)
 DOI: 10.1080/00268976.2014.952696

 Q-Chem 5.2.1 for Intel X86 EM64T Linux

 Parts of Q-Chem use Armadillo 8.300.2 (Tropical Shenanigans).
 http://arma.sourceforge.net/

 Q-Chem begins on Mon May 10 09:09:13 2021  

compute-0-14.local
Host: 0

     Scratch files written to /home/meili/scratch/qchem54612//
NAlpha2: 80
NElect   80
Mult     1

 Q-Chem warning in module libgen/rem_setup.C, line 2813:

 Neither GIA nor STOLL is specified by user. Use STOLL as the default


Checking the input file for inconsistencies... 	...done.

--------------------------------------------------------------
User input:
--------------------------------------------------------------
$comment
1vex_ff99sbtip3p_nvt_e5_100ns_m3004_001GLY_002SER_040CYX_041ASN.pdb
$end

$molecule
0 1
--
0 1
C    14.2080000000   31.3510000000   10.7850000000
H    15.1100000000   31.5120000000   10.2990000000
C    13.5720000000   30.1360000000   10.2450000000
O    12.5510000000   29.7710000000   10.7380000000
N    14.0050000000   29.7310000000    9.0570000000
H    14.6620000000   30.3370000000    8.5960000000
C    13.5690000000   28.5120000000    8.2830000000
H    12.7940000000   27.9130000000    8.7160000000
H    14.3840000000   31.2260000000   11.8330000000
H    13.5630000000   32.1910000000   10.6310000000
H    13.2240000000   28.8440000000    7.3260000000
H    14.4300000000   27.8770000000    8.2570000000
--
0 1
C    17.0560000000   27.9910000000   13.1180000000
H    16.2520000000   27.8390000000   12.4670000000
C    16.3940000000   28.4280000000   14.4040000000
O    16.9540000000   29.1410000000   15.2630000000
N    15.1740000000   27.9970000000   14.6810000000
H    14.8500000000   27.2390000000   14.1080000000
C    14.3390000000   28.3020000000   15.8460000000
H    14.6000000000   29.2780000000   16.1560000000
H    17.7100000000   28.7530000000   12.7470000000
H    17.6640000000   27.1190000000   13.2390000000
H    14.5310000000   27.6010000000   16.6320000000
H    13.2990000000   28.2390000000   15.6030000000
$end

$rem
JOBTYPE			EDA
EDA2			1
method			wB97X-V
BASIS			def2-TZVPD
XC_GRID			000099000590
NL_GRID			1
UNRESTRICTED		FALSE
MAX_SCF_CYCLES		200
SYMMETRY		FALSE
SYM_IGNORE		TRUE
MEM_STATIC		2000
BASIS_LIN_DEP_THRESH 	6
THRESH 			14
SCF_CONVERGENCE 	8
SCF_PRINT_FRGM 		TRUE
$end
--------------------------------------------------------------
 ----------------------------------------------------------------
             Standard Nuclear Orientation (Angstroms)
    I     Atom           X                Y                Z
 ----------------------------------------------------------------
    1      C      14.2080000000    31.3510000000    10.7850000000
    2      H      15.1100000000    31.5120000000    10.2990000000
    3      C      13.5720000000    30.1360000000    10.2450000000
    4      O      12.5510000000    29.7710000000    10.7380000000
    5      N      14.0050000000    29.7310000000     9.0570000000
    6      H      14.6620000000    30.3370000000     8.5960000000
    7      C      13.5690000000    28.5120000000     8.2830000000
    8      H      12.7940000000    27.9130000000     8.7160000000
    9      H      14.3840000000    31.2260000000    11.8330000000
   10      H      13.5630000000    32.1910000000    10.6310000000
   11      H      13.2240000000    28.8440000000     7.3260000000
   12      H      14.4300000000    27.8770000000     8.2570000000
   13      C      17.0560000000    27.9910000000    13.1180000000
   14      H      16.2520000000    27.8390000000    12.4670000000
   15      C      16.3940000000    28.4280000000    14.4040000000
   16      O      16.9540000000    29.1410000000    15.2630000000
   17      N      15.1740000000    27.9970000000    14.6810000000
   18      H      14.8500000000    27.2390000000    14.1080000000
   19      C      14.3390000000    28.3020000000    15.8460000000
   20      H      14.6000000000    29.2780000000    16.1560000000
   21      H      17.7100000000    28.7530000000    12.7470000000
   22      H      17.6640000000    27.1190000000    13.2390000000
   23      H      14.5310000000    27.6010000000    16.6320000000
   24      H      13.2990000000    28.2390000000    15.6030000000
 ----------------------------------------------------------------
 Nuclear Repulsion Energy =         506.10573646 hartrees
 There are       40 alpha and       40 beta electrons
 Requested basis set is def2-TZVPD
 There are 202 shells and 502 basis functions

 Total QAlloc Memory Limit   2000 MB
 Mega-Array Size      1956 MB
 MEM_STATIC part      2000 MB
 A cutoff of  1.0D-14 yielded  17201 shell pairs
 There are    105581 function pairs (    130893 Cartesian)
 Smallest overlap matrix eigenvalue = 5.45E-06

 Scale SEOQF with 1.000000e-03/1.000000e-03/1.000000e-02

 Standard Electronic Orientation quadrupole field applied
 Nucleus-field energy     =    -0.0000000790 hartrees

 -----------------------------------------------------------------------
  General SCF calculation program by
  Eric Jon Sundstrom, Paul Horn, Yuezhi Mao, Dmitri Zuev, Alec White,
  David Stuck, Shaama M.S., Shane Yost, Joonho Lee, David Small,
  Daniel Levine, Susi Lehtola, Hugh Burton, Evgeny Epifanovsky,
  Bang C. Huynh
 -----------------------------------------------------------------------
================================================================
                 ALMO-EDA with the EDA2 driver                  
================================================================
 The second-generation ALMO-EDA (for DFT):                      
 P. R. Horn, Y. Mao and M. Head-Gordon, PCCP, 18, 23067 (2016)  
 Decomposition of the frozen energy:                            
 P. R. Horn, Y. Mao and M. Head-Gordon, JCP, 144, 114107 (2016) 
 FERF model for polarization:                                   
 P. R. Horn and M. Head-Gordon, JCP, 143, 114111 (2015)         
Using eda2 option set 1
Option set summary: Frozen orbital wavefunction, initial wavefunction decomposition, and nDQ polarization.
--------------------------------
Printing EDA Options
--------------------------------
eda_child_super_basis      0
fragmo_guess_mode          0
child_mp                   1
child_mp_orders            232
cls_elec                   1
cls_disp                   0
scfmi_mode                 1
scfmi_occs                 0
scfmi_virts                0
frz_relax                  0
frz_relax_method           0
dc_pen_start               0
dc_pen_conv                0
dc_pen_increment           0
dc_pen_steps               0
dc_pen_thresh_factor       0
dc_pen_pre_newton_thresh   0
frz_ortho_decomp           1
frz_ortho_decomp_conv      6
frgm_method                2
scfmi_freeze_ss            0
separate_rehyb             0
plot_diff_den              0
eda_nocv                   0
eda_vct_relax              1
disp_free_x                0
disp_free_c                0
eda_bsse                   0
eda_pct_a                  0
eda_covp                   0
--------------------------------
Attempting to make child job directory: /home/meili/scratch/qchem54612//Frg1/
Attempting to make child job directory: /home/meili/scratch/qchem54612//Frg2/
Creating input file /home/meili/scratch/qchem54612/Frg1.input
using default PutDataFrgm: nothing
calling putenv with: QCSCRATCH=/home/meili/scratch/qchem54612/ 
Spawning Job For Fragment 0
                  Welcome to Q-Chem
     A Quantum Leap Into The Future Of Chemistry


 Q-Chem 5.2 (devel), Q-Chem, Inc., Pleasanton, CA (2019)

 Yihan Shao,  Zhengting Gan,  E. Epifanovsky,  A. T. B. Gilbert,  M. Wormit,  
 J. Kussmann,  A. W. Lange,  A. Behn,  Jia Deng,  Xintian Feng,  D. Ghosh,  
 M. Goldey,  P. R. Horn,  L. D. Jacobson,  I. Kaliman,  T. Kus,  A. Landau,  
 Jie Liu,  E. I. Proynov,  R. M. Richard,  R. P. Steele,  E. J. Sundstrom,  
 H. L. Woodcock III,  P. M. Zimmerman,  D. Zuev,  B. Albrecht,  E. Alguire,  
 S. A. Baeppler,  D. Barton,  Z. Benda,  Y. A. Bernard,  E. J. Berquist,  
 K. B. Bravaya,  H. Burton,  D. Casanova,  Chun-Min Chang,  Yunqing Chen,  
 A. Chien,  K. D. Closser,  M. P. Coons,  S. Coriani,  S. Dasgupta,  
 A. L. Dempwolff,  M. Diedenhofen,  Hainam Do,  R. G. Edgar,  Po-Tung Fang,  
 S. Faraji,  S. Fatehi,  Qingguo Feng,  K. D. Fenk,  J. Fosso-Tande,  
 J. Gayvert,  Qinghui Ge,  A. Ghysels,  G. Gidofalvi,  J. Gomes,  
 J. Gonthier,  A. Gunina,  D. Hait,  M. W. D. Hanson-Heine,  
 P. H. P. Harbach,  A. W. Hauser,  M. F. Herbst,  J. E. Herr,  
 E. G. Hohenstein,  Z. C. Holden,  Kerwin Hui,  B. C. Huynh,  T.-C. Jagau,  
 Hyunjun Ji,  B. Kaduk,  K. Khistyaev,  Jaehoon Kim,  P. Klunzinger,  K. Koh,  
 D. Kosenkov,  L. Koulias,  T. Kowalczyk,  C. M. Krauter,  A. Kunitsa,  
 Ka Un Lao,  A. Laurent,  K. V. Lawler,  Joonho Lee,  D. Lefrancois,  
 S. Lehtola,  D. S. Levine,  Yi-Pei Li,  You-Sheng Lin,  Fenglai Liu,  
 E. Livshits,  A. Luenser,  P. Manohar,  E. Mansoor,  S. F. Manzer,  
 Shan-Ping Mao,  Yuezhi Mao,  N. Mardirossian,  A. V. Marenich,  
 T. Markovich,  L. A. Martinez-Martinez,  S. A. Maurer,  N. J. Mayhall,  
 S. C. McKenzie,  J.-M. Mewes,  P. Morgante,  A. F. Morrison,  
 J. W. Mullinax,  K. Nanda,  T. S. Nguyen-Beck,  R. Olivares-Amaya,  
 J. A. Parkhill,  Zheng Pei,  T. M. Perrine,  F. Plasser,  P. Pokhilko,  
 S. Prager,  A. Prociuk,  E. Ramos,  D. R. Rehn,  F. Rob,  M. Scheurer,  
 M. Schneider,  N. Sergueev,  S. M. Sharada,  S. Sharma,  D. W. Small,  
 T. Stauch,  T. Stein,  Yu-Chuan Su,  A. J. W. Thom,  A. Tkatchenko,  
 T. Tsuchimochi,  N. M. Tubman,  L. Vogt,  M. L. Vidal,  O. Vydrov,  
 M. A. Watson,  J. Wenzel,  M. de Wergifosse,  T. A. Wesolowski,  A. White,  
 J. Witte,  A. Yamada,  Jun Yang,  K. Yao,  S. Yeganeh,  S. R. Yost,  
 Zhi-Qiang You,  A. Zech,  Igor Ying Zhang,  Xing Zhang,  Yan Zhao,  
 Ying Zhu,  B. R. Brooks,  G. K. L. Chan,  C. J. Cramer,  M. S. Gordon,  
 W. J. Hehre,  A. Klamt,  M. W. Schmidt,  C. D. Sherrill,  D. G. Truhlar,  
 A. Aspuru-Guzik,  R. Baer,  A. T. Bell,  N. A. Besley,  Jeng-Da Chai,  
 A. E. DePrince, III,  R. A. DiStasio Jr.,  A. Dreuw,  B. D. Dunietz,  
 T. R. Furlani,  Chao-Ping Hsu,  Yousung Jung,  Jing Kong,  D. S. Lambrecht,  
 WanZhen Liang,  C. Ochsenfeld,  V. A. Rassolov,  L. V. Slipchenko,  
 J. E. Subotnik,  T. Van Voorhis,  J. M. Herbert,  A. I. Krylov,  
 P. M. W. Gill,  M. Head-Gordon

 Contributors to earlier versions of Q-Chem not listed above: 
 R. D. Adamson,  B. Austin,  J. Baker,  G. J. O. Beran,  K. Brandhorst,  
 S. T. Brown,  E. F. C. Byrd,  A. K. Chakraborty,  C.-L. Cheng,  
 Siu Hung Chien,  D. M. Chipman,  D. L. Crittenden,  H. Dachsel,  
 R. J. Doerksen,  A. D. Dutoi,  L. Fusti-Molnar,  W. A. Goddard III,  
 A. Golubeva-Zadorozhnaya,  S. R. Gwaltney,  G. Hawkins,  A. Heyden,  
 S. Hirata,  G. Kedziora,  F. J. Keil,  C. Kelley,  Jihan Kim,  R. A. King,  
 R. Z. Khaliullin,  P. P. Korambath,  W. Kurlancheek,  A. M. Lee,  M. S. Lee,  
 S. V. Levchenko,  Ching Yeh Lin,  D. Liotard,  R. C. Lochan,  I. Lotan,  
 P. E. Maslen,  N. Nair,  D. P. O'Neill,  D. Neuhauser,  E. Neuscamman,  
 C. M. Oana,  R. Olson,  B. Peters,  R. Peverati,  P. A. Pieniazek,  
 Y. M. Rhee,  J. Ritchie,  M. A. Rohrdanz,  E. Rosta,  N. J. Russ,  
 H. F. Schaefer III,  N. E. Schultz,  N. Shenvi,  A. C. Simmonett,  A. Sodt,  
 D. Stuck,  K. S. Thanthiriwatte,  V. Vanovschi,  Tao Wang,  A. Warshel,  
 C. F. Williams,  Q. Wu,  X. Xu,  W. Zhang

 Please cite Q-Chem as follows:
 Y. Shao et al., Mol. Phys. 113, 184-215 (2015)
 DOI: 10.1080/00268976.2014.952696

 Q-Chem 5.2.1 for Intel X86 EM64T Linux

 Parts of Q-Chem use Armadillo 8.300.2 (Tropical Shenanigans).
 http://arma.sourceforge.net/

 Q-Chem begins on Mon May 10 09:10:29 2021  

compute-0-14.local
Host: 0

     Scratch files written to /home/meili/scratch/qchem54612//Frg1//
NAlpha2: 40
NElect   40
Mult     1

Checking the input file for inconsistencies... 	...done.

--------------------------------------------------------------
User input:
--------------------------------------------------------------
$molecule
0 1
 6	14.2080000000	31.3510000000	10.7850000000
 1	15.1100000000	31.5120000000	10.2990000000
 6	13.5720000000	30.1360000000	10.2450000000
 8	12.5510000000	29.7710000000	10.7380000000
 7	14.0050000000	29.7310000000	9.0570000000
 1	14.6620000000	30.3370000000	8.5960000000
 6	13.5690000000	28.5120000000	8.2830000000
 1	12.7940000000	27.9130000000	8.7160000000
 1	14.3840000000	31.2260000000	11.8330000000
 1	13.5630000000	32.1910000000	10.6310000000
 1	13.2240000000	28.8440000000	7.3260000000
 1	14.4300000000	27.8770000000	8.2570000000
$end
$rem
EDA2		1
METHOD		WB97X-V
BASIS		DEF2-TZVPD
XC_GRID		000099000590
NL_GRID		1
UNRESTRICTED		FALSE
MAX_SCF_CYCLES		200
SYMMETRY		FALSE
SYM_IGNORE		TRUE
BASIS_LIN_DEP_THRESH		6
THRESH		14
SCF_CONVERGENCE		8
SCF_PRINT_FRGM		TRUE
!required keywords
JOBTYPE		SP
SYM_IGNORE		TRUE
SUBSYSTEM		TRUE
GEN_SCFMAN		TRUE
CHILD_INSTRUCTION		2
SYM_IGNORE		TRUE
SCFMI		0
RI_K 0		
PARI_K 0		
MIN_PARI_K 0		
IARI_K 0		
OCC_RI_K 0		
PURECART		1111
MEM_STATIC		2000
MEM_TOTAL		2000
GUI		0
CHILD_MP		1
CHILD_MP_ORDERS		232
FRZ_RELAX		0
FRZ_RELAX_METHOD		0
EDA_CLS_ELEC		1
EDA_CLS_DISP		0
FRZ_ORTHO_DECOMP		1
EDA2		FALSE
FRGM_METHOD		FALSE
CIS_N_ROOTS  0
LOCAL_CIS    0
CIS_RLX_DNS  1
$end
--------------------------------------------------------------
 ----------------------------------------------------------------
             Standard Nuclear Orientation (Angstroms)
    I     Atom           X                Y                Z
 ----------------------------------------------------------------
    1      C      14.2080000000    31.3510000000    10.7850000000
    2      H      15.1100000000    31.5120000000    10.2990000000
    3      C      13.5720000000    30.1360000000    10.2450000000
    4      O      12.5510000000    29.7710000000    10.7380000000
    5      N      14.0050000000    29.7310000000     9.0570000000
    6      H      14.6620000000    30.3370000000     8.5960000000
    7      C      13.5690000000    28.5120000000     8.2830000000
    8      H      12.7940000000    27.9130000000     8.7160000000
    9      H      14.3840000000    31.2260000000    11.8330000000
   10      H      13.5630000000    32.1910000000    10.6310000000
   11      H      13.2240000000    28.8440000000     7.3260000000
   12      H      14.4300000000    27.8770000000     8.2570000000
 ----------------------------------------------------------------
 Nuclear Repulsion Energy =         181.74387901 hartrees
 There are       20 alpha and       20 beta electrons
 Requested basis set is def2-TZVPD
 There are 101 shells and 251 basis functions

 Total QAlloc Memory Limit   2000 MB
 Mega-Array Size      1956 MB
 MEM_STATIC part      2000 MB

                       Distance Matrix (Angstroms)
             C (  1)   H (  2)   C (  3)   O (  4)   N (  5)   H (  6)
   H (  2)  1.037170
   C (  3)  1.473880  2.064397
   O (  4)  2.290034  3.126065  1.191098
   N (  5)  2.377308  2.436298  1.327727  2.222943
   H (  6)  2.454798  2.116964  1.986882  3.060203  1.005687
   C (  7)  3.837740  3.929241  2.546925  2.940821  1.508354  2.150173
   H (  8)  4.254410  4.563173  2.807998  2.756755  2.210865  3.062613
   H (  9)  1.070002  1.721054  2.090260  2.583784  3.175664  3.368349
   H ( 10)  1.070206  1.721765  2.090957  2.625261  2.953716  2.964176
   H ( 11)  4.383832  4.417460  3.211064  3.599167  2.095970  2.431007
   H ( 12)  4.302179  4.224380  3.129120  3.643246  2.063478  2.494062
             C (  7)   H (  8)   H (  9)   H ( 10)   H ( 11)
   H (  8)  1.070941
   H (  9)  4.542303  4.818688
   H ( 10)  4.364422  4.749723  1.746445
   H ( 11)  1.070093  1.727357  5.228056  4.715968
   H ( 12)  1.070150  1.699551  4.899560  4.999816  1.804518

 A cutoff of  1.0D-14 yielded   5027 shell pairs
 There are     31637 function pairs (     39797 Cartesian)
 Smallest overlap matrix eigenvalue = 6.26E-06

 Scale SEOQF with 1.000000e-02/1.000000e-03/1.000000e-02

 Standard Electronic Orientation quadrupole field applied
 Nucleus-field energy     =     0.0000000107 hartrees
 Guess from superposition of atomic densities
 Warning:  Energy on first SCF cycle will be non-variational
 SAD guess density has 40.000000 electrons

 -----------------------------------------------------------------------
  General SCF calculation program by
  Eric Jon Sundstrom, Paul Horn, Yuezhi Mao, Dmitri Zuev, Alec White,
  David Stuck, Shaama M.S., Shane Yost, Joonho Lee, David Small,
  Daniel Levine, Susi Lehtola, Hugh Burton, Evgeny Epifanovsky,
  Bang C. Huynh
 -----------------------------------------------------------------------
 Exchange:     0.1670 Hartree-Fock + 1.0000 wB97X-V + LR-HF
 Correlation:  1.0000 wB97X-V
 Using Euler-Maclaurin-Lebedev (99,590) quadrature formula
 Nonlocal Correlation:  VV10 with C = 0.0100 and b = 6.00 and scale = 1.00000
 Grid used for NLC:  SG-1 standard quadrature
Energy prior to optimization (guess energy) = -248.406764440770
Begin Timing: Total SCF Calculation
begin iterations for algorithm: DIIS         
the SCF tolerance is set to 1.00e-08
    1    -248.4067644408      4.24e-03     00000 
    2    -248.3666691919      5.46e-03     00000 
    3    -248.5235898231      5.20e-04     00000 
    4    -248.5252398124      2.16e-04     00000 
    5    -248.5255566298      5.33e-05     00000 
    6    -248.5255817145      1.95e-05     00000 
    7    -248.5255865258      5.24e-06     00000 
    8    -248.5255871208      1.53e-06     00000 
    9    -248.5255871625      5.35e-07     00000 
   10    -248.5255871661      1.16e-07     00000 
   11    -248.5255871664      2.97e-08     00000 
   12    -248.5255871664      1.11e-08     00000 
   13    -248.5255871664      3.13e-09     00000 Convergence criterion met
Timing for Total SCF: 255.00s (wall), 1516.85s (cpu)
Multipole orders to be included
        2
        3
computing dipole RHS
computing quadrupole RHS
total number of RHS in solve_reponses: 8
RHS batch sizes
        8
Beginning Block Conjugate Gradient Iterations. Batch Number: 0
computing hessian-vector products by finite difference
              1      4.66e-01     00000 Conjugate Gradient Iteration
computing hessian-vector products by finite difference
              2      1.43e-01     00000 Conjugate Gradient Iteration
computing hessian-vector products by finite difference
              3      3.84e-02     00000 Conjugate Gradient Iteration
computing hessian-vector products by finite difference
              4      9.04e-03     00000 Conjugate Gradient Iteration
computing hessian-vector products by finite difference
              5      1.65e-03     00000 Conjugate Gradient Iteration
computing hessian-vector products by finite difference
              6      3.62e-04     00000 Conjugate Gradient Iteration
computing hessian-vector products by finite difference
              7      5.86e-05     00000 Conjugate Gradient Iteration
computing hessian-vector products by finite difference
              8      7.73e-06     00000 Conjugate Gradient Iteration
computing hessian-vector products by finite difference
              9      1.29e-06     00000 Conjugate Gradient Iteration
computing hessian-vector products by finite difference
             10      2.40e-07     00000 Conjugate Gradient Iteration
computing hessian-vector products by finite difference
             11      3.70e-08     00000 Conjugate Gradient Iteration
computing hessian-vector products by finite difference
             12      4.02e-09     00000 CG Converged
batch 0 complete
Done Calculating Responses
TESTING ORTHOGONALIZATION OF MULTIPOLE BASIS
Multipole virts passed orthogonality test
Virts Per Order
           60
          100

 --------------------------------------------------------------

                    Orbital Energies (a.u.)
 --------------------------------------------------------------

 Alpha MOs
 -- Occupied --
-19.1569 -14.4325 -10.3522 -10.3041 -10.2537  -1.1734  -1.0517  -0.8921
 -0.8294  -0.6996  -0.6194  -0.5884  -0.5819  -0.5504  -0.5184  -0.5027
 -0.4991  -0.4672  -0.3590  -0.3480
 -- Virtual --
  0.0545   0.0779   0.0972   0.1063   0.1100   0.1230   0.1361   0.1425
  0.1505   0.1647   0.1692   0.1807   0.1873   0.2003   0.2144   0.2315
  0.2364   0.2374   0.2569   0.2648   0.2704   0.2808   0.2906   0.2991
  0.3095   0.3156   0.3223   0.3315   0.3439   0.3476   0.3592   0.3623
  0.3676   0.3738   0.3796   0.3894   0.3959   0.4023   0.4066   0.4094
  0.4430   0.4503   0.4546   0.4654   0.4709   0.4743   0.4808   0.4860
  0.4964   0.5015   0.5164   0.5207   0.5283   0.5392   0.5543   0.5597
  0.5632   0.5869   0.5969   0.6098   0.6275   0.6322   0.6558   0.6726
  0.6839   0.7119   0.7157   0.7254   0.7397   0.7430   0.7549   0.7667
  0.7745   0.7849   0.8044   0.8140   0.8202   0.8320   0.8399   0.8467
  0.8590   0.8725   0.8955   0.9169   0.9417   0.9549   0.9803   1.0094
  1.0192   1.0302   1.0734   1.0978   1.1246   1.1536   1.2027   1.2075
  1.2290   1.2472   1.2596   1.2886   1.3197   1.3251   1.3741   1.3849
  1.4054   1.4563   1.5231   1.5693   1.6328   1.6933   1.7300   1.7415
  1.7541   1.8234   1.8317   1.8668   1.8979   1.9057   1.9201   1.9269
  1.9358   1.9952   2.0018   2.0301   2.0409   2.0764   2.0828   2.1484
  2.1611   2.1915   2.2189   2.2570   2.2618   2.3137   2.3447   2.3972
  2.4184   2.4564   2.4853   2.5368   2.5540   2.5646   2.5977   2.6205
  2.6276   2.6431   2.6618   2.6911   2.7377   2.7982   2.8231   2.8612
  2.8674   2.9028   2.9457   2.9652   2.9858   3.0125   3.0657   3.1338
  3.1520   3.1809   3.2333   3.2468   3.2752   3.3202   3.3219   3.3396
  3.3542   3.3945   3.4213   3.4393   3.4598   3.4976   3.5120   3.5277
  3.5597   3.5928   3.6051   3.6248   3.6651   3.7247   3.7335   3.7627
  3.8428   3.9300   3.9458   3.9787   4.0958   4.1099   4.1535   4.2474
  4.3202   4.3476   4.3946   4.5055   4.5910   4.6945   4.7069   4.7191
  4.7892   4.8231   4.9739   4.9790   5.0082   5.1859   5.2333   5.2639
  5.3094   5.4128   5.4795   5.4985   5.5823   5.6884   5.7514   5.9089
  6.0267   6.1373   6.4132   6.6511   6.7022   6.8142   6.9820   7.0389
  7.2969   7.3954  22.6447  22.7660  23.7843  32.7072  44.3504
 --------------------------------------------------------------

          Ground-State Mulliken Net Atomic Charges

     Atom                 Charge (a.u.)
  ----------------------------------------
      1 C                    -0.713915
      2 H                     0.238690
      3 C                     0.494933
      4 O                    -0.512420
      5 N                    -0.101289
      6 H                     0.181944
      7 C                    -0.712154
      8 H                     0.257671
      9 H                     0.207657
     10 H                     0.172646
     11 H                     0.244400
     12 H                     0.241837
  ----------------------------------------
  Sum of atomic charges =     0.000000

 -----------------------------------------------------------------
                    Cartesian Multipole Moments
 -----------------------------------------------------------------
    Charge (ESU x 10^10)
                -0.0000
    Dipole Moment (Debye)
         X       2.8377      Y       0.5563      Z      -2.6487
       Tot       3.9215
    Quadrupole Moments (Debye-Ang)
        XX      43.7996     XY      92.8734     YY       5.2878
        XZ      -6.0044     YZ     -71.7071     ZZ     -81.8107
    Octopole Moments (Debye-Ang^2)
       XXX     213.4513    XXY    1425.4448    XYY    2634.1752
       YYY   -1020.5401    XXZ      -4.4589    XYZ     -74.9914
       YYZ   -2195.0222    XZZ    -793.5571    YZZ   -2352.6343
       ZZZ   -1643.6632
    Hexadecapole Moments (Debye-Ang^3)
      XXXX   -8556.5837   XXXY    8030.1099   XXYY   40792.9428
      XYYY   62984.4718   YYYY  -91173.2729   XXXZ   -3494.0798
      XXYZ    1300.3396   XYYZ   -2875.1234   YYYZ  -75484.3545
      XXZZ   -9797.4779   XYZZ  -22453.3146   YYZZ  -70331.2813
      XZZZ  -18935.9177   YZZZ  -48112.7310   ZZZZ  -27506.6119
 -----------------------------------------------------------------
Archival summary:
1\1\compute-0-14.local\SP\ProcedureUnspecified\BasisUnspecified\1137\meili\MonMay1010:26:252021MonMay1010:26:252021\0\\#,ProcedureUnspecified,BasisUnspecified,\\0,1\C\O,1,1.1911\N,1,1.32773,2,123.809\H,3,1.00569,1,116.066,2,157.562,0\C,1,1.47388,2,118.09,3,162.88,0\H,5,1.03717,1,109.364,2,176.642,0\H,5,1.07,1,109.483,2,56.6491,0\H,5,1.07021,1,109.527,2,-63.2751,0\C,3,1.50835,1,127.69,2,-18.5848,0\H,9,1.07009,3,107.54,1,123.474,0\H,9,1.07015,3,105.037,1,-113.644,0\H,9,1.07094,3,116.983,1,2.40145,0\\\@

 Total job time:  4556.09s(wall), 26893.32s(cpu) 
 Mon May 10 10:26:25 2021

        *************************************************************
        *                                                           *
        *  Thank you very much for using Q-Chem.  Have a nice day.  *
        *                                                           *
        *************************************************************


Done Job For Fragment 0
calling putenv with: QCSCRATCH=/home/meili/scratch 
calling putenv with: QCTHREADS=8 
Creating input file /home/meili/scratch/qchem54612/Frg2.input
using default PutDataFrgm: nothing
calling putenv with: QCSCRATCH=/home/meili/scratch/qchem54612/ 
Spawning Job For Fragment 1
                  Welcome to Q-Chem
     A Quantum Leap Into The Future Of Chemistry


 Q-Chem 5.2 (devel), Q-Chem, Inc., Pleasanton, CA (2019)

 Yihan Shao,  Zhengting Gan,  E. Epifanovsky,  A. T. B. Gilbert,  M. Wormit,  
 J. Kussmann,  A. W. Lange,  A. Behn,  Jia Deng,  Xintian Feng,  D. Ghosh,  
 M. Goldey,  P. R. Horn,  L. D. Jacobson,  I. Kaliman,  T. Kus,  A. Landau,  
 Jie Liu,  E. I. Proynov,  R. M. Richard,  R. P. Steele,  E. J. Sundstrom,  
 H. L. Woodcock III,  P. M. Zimmerman,  D. Zuev,  B. Albrecht,  E. Alguire,  
 S. A. Baeppler,  D. Barton,  Z. Benda,  Y. A. Bernard,  E. J. Berquist,  
 K. B. Bravaya,  H. Burton,  D. Casanova,  Chun-Min Chang,  Yunqing Chen,  
 A. Chien,  K. D. Closser,  M. P. Coons,  S. Coriani,  S. Dasgupta,  
 A. L. Dempwolff,  M. Diedenhofen,  Hainam Do,  R. G. Edgar,  Po-Tung Fang,  
 S. Faraji,  S. Fatehi,  Qingguo Feng,  K. D. Fenk,  J. Fosso-Tande,  
 J. Gayvert,  Qinghui Ge,  A. Ghysels,  G. Gidofalvi,  J. Gomes,  
 J. Gonthier,  A. Gunina,  D. Hait,  M. W. D. Hanson-Heine,  
 P. H. P. Harbach,  A. W. Hauser,  M. F. Herbst,  J. E. Herr,  
 E. G. Hohenstein,  Z. C. Holden,  Kerwin Hui,  B. C. Huynh,  T.-C. Jagau,  
 Hyunjun Ji,  B. Kaduk,  K. Khistyaev,  Jaehoon Kim,  P. Klunzinger,  K. Koh,  
 D. Kosenkov,  L. Koulias,  T. Kowalczyk,  C. M. Krauter,  A. Kunitsa,  
 Ka Un Lao,  A. Laurent,  K. V. Lawler,  Joonho Lee,  D. Lefrancois,  
 S. Lehtola,  D. S. Levine,  Yi-Pei Li,  You-Sheng Lin,  Fenglai Liu,  
 E. Livshits,  A. Luenser,  P. Manohar,  E. Mansoor,  S. F. Manzer,  
 Shan-Ping Mao,  Yuezhi Mao,  N. Mardirossian,  A. V. Marenich,  
 T. Markovich,  L. A. Martinez-Martinez,  S. A. Maurer,  N. J. Mayhall,  
 S. C. McKenzie,  J.-M. Mewes,  P. Morgante,  A. F. Morrison,  
 J. W. Mullinax,  K. Nanda,  T. S. Nguyen-Beck,  R. Olivares-Amaya,  
 J. A. Parkhill,  Zheng Pei,  T. M. Perrine,  F. Plasser,  P. Pokhilko,  
 S. Prager,  A. Prociuk,  E. Ramos,  D. R. Rehn,  F. Rob,  M. Scheurer,  
 M. Schneider,  N. Sergueev,  S. M. Sharada,  S. Sharma,  D. W. Small,  
 T. Stauch,  T. Stein,  Yu-Chuan Su,  A. J. W. Thom,  A. Tkatchenko,  
 T. Tsuchimochi,  N. M. Tubman,  L. Vogt,  M. L. Vidal,  O. Vydrov,  
 M. A. Watson,  J. Wenzel,  M. de Wergifosse,  T. A. Wesolowski,  A. White,  
 J. Witte,  A. Yamada,  Jun Yang,  K. Yao,  S. Yeganeh,  S. R. Yost,  
 Zhi-Qiang You,  A. Zech,  Igor Ying Zhang,  Xing Zhang,  Yan Zhao,  
 Ying Zhu,  B. R. Brooks,  G. K. L. Chan,  C. J. Cramer,  M. S. Gordon,  
 W. J. Hehre,  A. Klamt,  M. W. Schmidt,  C. D. Sherrill,  D. G. Truhlar,  
 A. Aspuru-Guzik,  R. Baer,  A. T. Bell,  N. A. Besley,  Jeng-Da Chai,  
 A. E. DePrince, III,  R. A. DiStasio Jr.,  A. Dreuw,  B. D. Dunietz,  
 T. R. Furlani,  Chao-Ping Hsu,  Yousung Jung,  Jing Kong,  D. S. Lambrecht,  
 WanZhen Liang,  C. Ochsenfeld,  V. A. Rassolov,  L. V. Slipchenko,  
 J. E. Subotnik,  T. Van Voorhis,  J. M. Herbert,  A. I. Krylov,  
 P. M. W. Gill,  M. Head-Gordon

 Contributors to earlier versions of Q-Chem not listed above: 
 R. D. Adamson,  B. Austin,  J. Baker,  G. J. O. Beran,  K. Brandhorst,  
 S. T. Brown,  E. F. C. Byrd,  A. K. Chakraborty,  C.-L. Cheng,  
 Siu Hung Chien,  D. M. Chipman,  D. L. Crittenden,  H. Dachsel,  
 R. J. Doerksen,  A. D. Dutoi,  L. Fusti-Molnar,  W. A. Goddard III,  
 A. Golubeva-Zadorozhnaya,  S. R. Gwaltney,  G. Hawkins,  A. Heyden,  
 S. Hirata,  G. Kedziora,  F. J. Keil,  C. Kelley,  Jihan Kim,  R. A. King,  
 R. Z. Khaliullin,  P. P. Korambath,  W. Kurlancheek,  A. M. Lee,  M. S. Lee,  
 S. V. Levchenko,  Ching Yeh Lin,  D. Liotard,  R. C. Lochan,  I. Lotan,  
 P. E. Maslen,  N. Nair,  D. P. O'Neill,  D. Neuhauser,  E. Neuscamman,  
 C. M. Oana,  R. Olson,  B. Peters,  R. Peverati,  P. A. Pieniazek,  
 Y. M. Rhee,  J. Ritchie,  M. A. Rohrdanz,  E. Rosta,  N. J. Russ,  
 H. F. Schaefer III,  N. E. Schultz,  N. Shenvi,  A. C. Simmonett,  A. Sodt,  
 D. Stuck,  K. S. Thanthiriwatte,  V. Vanovschi,  Tao Wang,  A. Warshel,  
 C. F. Williams,  Q. Wu,  X. Xu,  W. Zhang

 Please cite Q-Chem as follows:
 Y. Shao et al., Mol. Phys. 113, 184-215 (2015)
 DOI: 10.1080/00268976.2014.952696

 Q-Chem 5.2.1 for Intel X86 EM64T Linux

 Parts of Q-Chem use Armadillo 8.300.2 (Tropical Shenanigans).
 http://arma.sourceforge.net/

 Q-Chem begins on Mon May 10 10:26:26 2021  

compute-0-14.local
Host: 0

     Scratch files written to /home/meili/scratch/qchem54612//Frg2//
NAlpha2: 40
NElect   40
Mult     1

Checking the input file for inconsistencies... 	...done.

--------------------------------------------------------------
User input:
--------------------------------------------------------------
$molecule
0 1
 6	17.0560000000	27.9910000000	13.1180000000
 1	16.2520000000	27.8390000000	12.4670000000
 6	16.3940000000	28.4280000000	14.4040000000
 8	16.9540000000	29.1410000000	15.2630000000
 7	15.1740000000	27.9970000000	14.6810000000
 1	14.8500000000	27.2390000000	14.1080000000
 6	14.3390000000	28.3020000000	15.8460000000
 1	14.6000000000	29.2780000000	16.1560000000
 1	17.7100000000	28.7530000000	12.7470000000
 1	17.6640000000	27.1190000000	13.2390000000
 1	14.5310000000	27.6010000000	16.6320000000
 1	13.2990000000	28.2390000000	15.6030000000
$end
$rem
EDA2		1
METHOD		WB97X-V
BASIS		DEF2-TZVPD
XC_GRID		000099000590
NL_GRID		1
UNRESTRICTED		FALSE
MAX_SCF_CYCLES		200
SYMMETRY		FALSE
SYM_IGNORE		TRUE
BASIS_LIN_DEP_THRESH		6
THRESH		14
SCF_CONVERGENCE		8
SCF_PRINT_FRGM		TRUE
!required keywords
JOBTYPE		SP
SYM_IGNORE		TRUE
SUBSYSTEM		TRUE
GEN_SCFMAN		TRUE
CHILD_INSTRUCTION		2
SYM_IGNORE		TRUE
SCFMI		0
RI_K 0		
PARI_K 0		
MIN_PARI_K 0		
IARI_K 0		
OCC_RI_K 0		
PURECART		1111
MEM_STATIC		2000
MEM_TOTAL		2000
GUI		0
CHILD_MP		1
CHILD_MP_ORDERS		232
FRZ_RELAX		0
FRZ_RELAX_METHOD		0
EDA_CLS_ELEC		1
EDA_CLS_DISP		0
FRZ_ORTHO_DECOMP		1
EDA2		FALSE
FRGM_METHOD		FALSE
CIS_N_ROOTS  0
LOCAL_CIS    0
CIS_RLX_DNS  1
$end
--------------------------------------------------------------
 ----------------------------------------------------------------
             Standard Nuclear Orientation (Angstroms)
    I     Atom           X                Y                Z
 ----------------------------------------------------------------
    1      C      17.0560000000    27.9910000000    13.1180000000
    2      H      16.2520000000    27.8390000000    12.4670000000
    3      C      16.3940000000    28.4280000000    14.4040000000
    4      O      16.9540000000    29.1410000000    15.2630000000
    5      N      15.1740000000    27.9970000000    14.6810000000
    6      H      14.8500000000    27.2390000000    14.1080000000
    7      C      14.3390000000    28.3020000000    15.8460000000
    8      H      14.6000000000    29.2780000000    16.1560000000
    9      H      17.7100000000    28.7530000000    12.7470000000
   10      H      17.6640000000    27.1190000000    13.2390000000
   11      H      14.5310000000    27.6010000000    16.6320000000
   12      H      13.2990000000    28.2390000000    15.6030000000
 ----------------------------------------------------------------
 Nuclear Repulsion Energy =         180.71578120 hartrees
 There are       20 alpha and       20 beta electrons
 Requested basis set is def2-TZVPD
 There are 101 shells and 251 basis functions

 Total QAlloc Memory Limit   2000 MB
 Mega-Array Size      1956 MB
 MEM_STATIC part      2000 MB

                       Distance Matrix (Angstroms)
             C (  1)   H (  2)   C (  3)   O (  4)   N (  5)   H (  6)
   H (  2)  1.045620
   C (  3)  1.510963  2.029545
   O (  4)  2.435966  3.163167  1.248940
   N (  5)  2.446411  2.467558  1.323212  2.194507
   H (  6)  2.532201  2.240198  1.971110  3.062425  1.003927
   C (  7)  3.862744  3.910445  2.513616  2.807496  1.465427  2.100413
   H (  8)  4.113119  4.290518  2.647724  2.521415  2.036188  2.900746
   H (  9)  1.070514  1.743433  2.140825  2.655623  3.277680  3.510572
   H ( 10)  1.069901  1.762988  2.164164  2.947738  3.008380  2.947568
   H ( 11)  4.344643  4.512838  3.019716  3.180674  2.092048  2.569704
   H ( 12)  4.511294  4.326050  3.324507  3.779977  2.103396  2.375000
             C (  7)   H (  8)   H (  9)   H ( 10)   H ( 11)
   H (  8)  1.056786
   H (  9)  4.601178  4.644244
   H ( 10)  4.387660  4.749554  1.707084
   H ( 11)  1.070542  1.744611  5.150376  4.643324
   H ( 12)  1.069868  1.754403  5.279948  5.088823  1.727342

 A cutoff of  1.0D-14 yielded   5026 shell pairs
 There are     31626 function pairs (     39778 Cartesian)
 Smallest overlap matrix eigenvalue = 7.23E-06

 Scale SEOQF with 1.000000e-03/1.000000e-03/1.000000e-02

 Standard Electronic Orientation quadrupole field applied
 Nucleus-field energy     =    -0.0000000659 hartrees
 Guess from superposition of atomic densities
 Warning:  Energy on first SCF cycle will be non-variational
 SAD guess density has 40.000000 electrons

 -----------------------------------------------------------------------
  General SCF calculation program by
  Eric Jon Sundstrom, Paul Horn, Yuezhi Mao, Dmitri Zuev, Alec White,
  David Stuck, Shaama M.S., Shane Yost, Joonho Lee, David Small,
  Daniel Levine, Susi Lehtola, Hugh Burton, Evgeny Epifanovsky,
  Bang C. Huynh
 -----------------------------------------------------------------------
 Exchange:     0.1670 Hartree-Fock + 1.0000 wB97X-V + LR-HF
 Correlation:  1.0000 wB97X-V
 Using Euler-Maclaurin-Lebedev (99,590) quadrature formula
 Nonlocal Correlation:  VV10 with C = 0.0100 and b = 6.00 and scale = 1.00000
 Grid used for NLC:  SG-1 standard quadrature
Energy prior to optimization (guess energy) = -248.405747877431
Begin Timing: Total SCF Calculation
begin iterations for algorithm: DIIS         
the SCF tolerance is set to 1.00e-08
    1    -248.4057478774      4.37e-03     00000 
    2    -248.3313549433      6.09e-03     00000 
    3    -248.5318294780      5.26e-04     00000 
    4    -248.5335085955      2.29e-04     00000 
    5    -248.5338530438      5.65e-05     00000 
    6    -248.5338810773      2.02e-05     00000 
    7    -248.5338861381      5.48e-06     00000 
    8    -248.5338867895      1.67e-06     00000 
    9    -248.5338868380      5.84e-07     00000 
   10    -248.5338868421      1.28e-07     00000 
   11    -248.5338868424      2.46e-08     00000 
   12    -248.5338868424      9.24e-09     00000 Convergence criterion met
Timing for Total SCF: 231.00s (wall), 1374.45s (cpu)
Multipole orders to be included
        2
        3
computing dipole RHS
computing quadrupole RHS
total number of RHS in solve_reponses: 8
RHS batch sizes
        8
Beginning Block Conjugate Gradient Iterations. Batch Number: 0
computing hessian-vector products by finite difference
              1      4.46e-01     00000 Conjugate Gradient Iteration
computing hessian-vector products by finite difference
              2      1.54e-01     00000 Conjugate Gradient Iteration
computing hessian-vector products by finite difference
              3      4.29e-02     00000 Conjugate Gradient Iteration
computing hessian-vector products by finite difference
              4      1.06e-02     00000 Conjugate Gradient Iteration
computing hessian-vector products by finite difference
              5      1.93e-03     00000 Conjugate Gradient Iteration
computing hessian-vector products by finite difference
              6      3.66e-04     00000 Conjugate Gradient Iteration
computing hessian-vector products by finite difference
              7      6.14e-05     00000 Conjugate Gradient Iteration
computing hessian-vector products by finite difference
              8      9.98e-06     00000 Conjugate Gradient Iteration
computing hessian-vector products by finite difference
              9      1.67e-06     00000 Conjugate Gradient Iteration
computing hessian-vector products by finite difference
             10      2.62e-07     00000 Conjugate Gradient Iteration
computing hessian-vector products by finite difference
             11      4.32e-08     00000 Conjugate Gradient Iteration
computing hessian-vector products by finite difference
             12      8.53e-09     00000 CG Converged
batch 0 complete
Done Calculating Responses
TESTING ORTHOGONALIZATION OF MULTIPOLE BASIS
Multipole virts passed orthogonality test
Virts Per Order
           60
          100

 --------------------------------------------------------------

                    Orbital Energies (a.u.)
 --------------------------------------------------------------

 Alpha MOs
 -- Occupied --
-19.1569 -14.4359 -10.3650 -10.2977 -10.2689  -1.1532  -1.0486  -0.8965
 -0.8322  -0.7016  -0.6281  -0.5847  -0.5780  -0.5444  -0.5234  -0.5201
 -0.4853  -0.4617  -0.3567  -0.3447
 -- Virtual --
  0.0549   0.0774   0.0961   0.1038   0.1085   0.1227   0.1363   0.1393
  0.1488   0.1640   0.1652   0.1868   0.1893   0.1992   0.2058   0.2268
  0.2400   0.2480   0.2524   0.2678   0.2765   0.2790   0.2903   0.2968
  0.3015   0.3073   0.3247   0.3303   0.3437   0.3536   0.3561   0.3621
  0.3702   0.3788   0.3832   0.3880   0.3921   0.3972   0.4061   0.4154
  0.4301   0.4389   0.4537   0.4591   0.4645   0.4752   0.4798   0.4842
  0.4971   0.5079   0.5090   0.5157   0.5314   0.5403   0.5518   0.5680
  0.5764   0.5816   0.5919   0.6032   0.6283   0.6441   0.6452   0.6671
  0.6784   0.6912   0.7068   0.7275   0.7396   0.7500   0.7516   0.7680
  0.7738   0.7922   0.7975   0.8117   0.8246   0.8328   0.8421   0.8471
  0.8569   0.8635   0.8783   0.9031   0.9103   0.9372   0.9793   1.0231
  1.0311   1.0379   1.0692   1.0807   1.1072   1.1450   1.1648   1.2014
  1.2431   1.2697   1.2787   1.2808   1.3102   1.3271   1.3551   1.3800
  1.3966   1.4340   1.4963   1.5655   1.6165   1.6842   1.7372   1.7462
  1.7566   1.8273   1.8394   1.8660   1.8801   1.8925   1.9167   1.9273
  1.9503   1.9704   1.9900   2.0180   2.0441   2.0550   2.1072   2.1462
  2.1607   2.1950   2.2107   2.2271   2.3013   2.3261   2.3437   2.3752
  2.4256   2.4549   2.4648   2.4783   2.5122   2.5733   2.5852   2.6072
  2.6288   2.6332   2.6572   2.7274   2.7605   2.7953   2.8367   2.8531
  2.8623   2.8886   2.9195   2.9552   2.9662   3.0229   3.0600   3.0993
  3.1598   3.1864   3.2169   3.2634   3.2861   3.3090   3.3165   3.3415
  3.3595   3.3783   3.4161   3.4227   3.4537   3.4646   3.4781   3.5480
  3.5648   3.5983   3.6196   3.6400   3.6698   3.7006   3.7273   3.7877
  3.8095   3.8771   3.9517   3.9683   4.0329   4.1083   4.1467   4.1950
  4.2543   4.2982   4.4382   4.4916   4.5573   4.6295   4.6967   4.7391
  4.7854   4.8396   4.9697   5.0142   5.0182   5.2154   5.2414   5.2525
  5.3517   5.4116   5.4421   5.4995   5.6096   5.7080   5.7728   5.7809
  6.0168   6.0973   6.2392   6.4948   6.6925   6.7709   6.8449   7.0140
  7.2653   7.3455  22.6808  22.7272  23.5960  32.7123  44.3525
 --------------------------------------------------------------

          Ground-State Mulliken Net Atomic Charges

     Atom                 Charge (a.u.)
  ----------------------------------------
      1 C                    -0.749185
      2 H                     0.228047
      3 C                     0.545213
      4 O                    -0.569814
      5 N                    -0.090968
      6 H                     0.182101
      7 C                    -0.714481
      8 H                     0.283065
      9 H                     0.211722
     10 H                     0.204533
     11 H                     0.231312
     12 H                     0.238454
  ----------------------------------------
  Sum of atomic charges =     0.000000

 -----------------------------------------------------------------
                    Cartesian Multipole Moments
 -----------------------------------------------------------------
    Charge (ESU x 10^10)
                 0.0000
    Dipole Moment (Debye)
         X      -2.6719      Y      -2.6137      Z      -1.9294
       Tot       4.2063
    Quadrupole Moments (Debye-Ang)
        XX    -115.1860     XY    -118.8614     YY    -179.7090
        XZ     -74.1222     YZ     -93.5695     ZZ     -86.3678
    Octopole Moments (Debye-Ang^2)
       XXX   -3477.2393    XXY   -3980.2923    XYY   -5096.8644
       YYY   -8983.4127    XXZ   -2314.5386    XYZ   -2744.8212
       YYZ   -4217.6148    XZZ   -2075.4390    YZZ   -3026.8769
       ZZZ   -2552.5873
    Hexadecapole Moments (Debye-Ang^3)
      XXXX  -89668.1203   XXXY -110497.6033   XXYY -141253.6450
      XYYY -207807.8459   YYYY -390398.6102   XXXZ  -62014.5179
      XXYZ  -76326.0460   XYYZ -103450.7074   YYYZ -177096.3093
      XXZZ  -50807.0506   XYZZ  -68448.0823   YYZZ -109060.6143
      XZZZ  -51803.6999   YZZZ  -80998.8614   ZZZZ  -62869.3360
 -----------------------------------------------------------------
Archival summary:
1\1\compute-0-14.local\SP\ProcedureUnspecified\BasisUnspecified\1137\meili\MonMay1011:42:332021MonMay1011:42:332021\0\\#,ProcedureUnspecified,BasisUnspecified,\\0,1\N\H,1,1.00393\C,1,1.32321,2,115.088\O,3,1.24894,1,117.089,2,-164.038,0\C,1,1.46543,2,115.277,3,-169.426,0\H,5,1.05679,1,106.541,2,-161.678,0\H,5,1.06987,1,111.166,2,-40.4178,0\H,5,1.07054,1,110.195,2,78.7978,0\C,3,1.51096,1,119.204,2,13.2048,0\H,9,1.04562,3,103.595,1,29.195,0\H,9,1.0699,3,112.858,1,-93.2265,0\H,9,1.07051,3,110.901,1,148.274,0\\\@

 Total job time:  4567.22s(wall), 27368.66s(cpu) 
 Mon May 10 11:42:33 2021

        *************************************************************
        *                                                           *
        *  Thank you very much for using Q-Chem.  Have a nice day.  *
        *                                                           *
        *************************************************************


Done Job For Fragment 1
calling putenv with: QCSCRATCH=/home/meili/scratch 
calling putenv with: QCTHREADS=8 
Doing General SCFMI
 Exchange:     0.1670 Hartree-Fock + 1.0000 wB97X-V + LR-HF
 Correlation:  1.0000 wB97X-V
 Using Euler-Maclaurin-Lebedev (99,590) quadrature formula
 Nonlocal Correlation:  VV10 with C = 0.0100 and b = 6.00 and scale = 1.00000
 Grid used for NLC:  SG-1 standard quadrature
performing fock build before subrot guess so that all methods have access
Printing subrot_rss_gen Method Specification:
Occupied Subspace Method is 0
Virtual Subspace Method is 0
Energy of the unrelaxed supersystem initial determinant -497.061208254991
write pseudocanon occs and virts to disk
write pseudocanon orbital energies to disk
Tolerance of ortho_decomp_scf: 1.00e-06
GDM subspace size: 20
Beginning the Orthogonal Decomposition of the Initial Supersystem Wavefunction
    1    -497.0593137620      1.99e-03     ortho_decomp Preconditoned Steepest Descent
    2    -497.0593253174      3.90e-05     ortho_decomp BFGS Step
    3    -497.0593253355      1.52e-06     ortho_decomp BFGS Step
    4    -497.0593253355      4.27e-08     ortho_decomp 00000 Convergence criterion met
 Hartree-Fock
 Hartree-Fock
 Hartree-Fock
Doing General SCFMI
 Exchange:     0.1670 Hartree-Fock + 1.0000 wB97X-V + LR-HF
 Correlation:  1.0000 wB97X-V
 Using Euler-Maclaurin-Lebedev (99,590) quadrature formula
 Nonlocal Correlation:  VV10 with C = 0.0100 and b = 6.00 and scale = 1.00000
 Grid used for NLC:  SG-1 standard quadrature
performing fock build at end of subrot_r(subrot) constructor so that all methods have access
<S^2> of initial wavefunction before polarization iterations 0.0000000000
Beginning iterations for the determination of the polarized wavefunction
Energy prior to optimization (guess energy) = -497.061208254991
Begin Timing: Total SCF Calculation
begin iterations for algorithm: DIIS         
the SCF tolerance is set to 1.00e-08
    1    -497.0612082550      3.26e-05     00000 
    2    -497.0612863461      1.42e-05     00000 
    3    -497.0612926985      8.46e-06     00000 
    4    -497.0612947419      3.51e-06     00000 
    5    -497.0612951224      9.07e-07     00000 
    6    -497.0612951581      3.62e-07     00000 
    7    -497.0612951648      1.22e-07     00000 
    8    -497.0612951656      4.08e-08     00000 
    9    -497.0612951657      1.53e-08     00000 
   10    -497.0612951658      8.16e-09     00000 Convergence criterion met
write pseudocanon occs and virts to disk
write pseudocanon orbital energies to disk
Timing for Total SCF: 1132.00s (wall), 7109.25s (cpu)
<S^2> of polarized wavefunction after polarization iterations 0.0000000000
relaxing scfmi constraint to allow all rotations in the entire AO span
Doing General SCFMI
 Exchange:     0.1670 Hartree-Fock + 1.0000 wB97X-V + LR-HF
 Correlation:  1.0000 wB97X-V
 Using Euler-Maclaurin-Lebedev (99,590) quadrature formula
 Nonlocal Correlation:  VV10 with C = 0.0100 and b = 6.00 and scale = 1.00000
 Grid used for NLC:  SG-1 standard quadrature
performing fock build at end of subrot_r(subrot) constructor so that all methods have access
<S^2> of polarized wavefunction before ct-allowed iterations 0.0000000000
Beginning iterations for the determination of the CT-Allowed wavefunction
Energy prior to optimization (guess energy) = -497.061295165753
Begin Timing: Total SCF Calculation
begin iterations for algorithm: DIIS         
the SCF tolerance is set to 1.00e-08
    1    -497.0612951658      3.57e-05     00000 
    2    -497.0613928023      2.48e-06     00000 
    3    -497.0613950835      4.19e-07     00000 
    4    -497.0613951664      1.82e-07     00000 
    5    -497.0613951703      5.41e-08     00000 
    6    -497.0613951711      2.62e-08     00000 
    7    -497.0613951711      6.90e-09     00000 Convergence criterion met
write pseudocanon occs and virts to disk
write pseudocanon orbital energies to disk
Timing for Total SCF: 738.00s (wall), 4722.62s (cpu)
<S^2> of ct_allowed wavefunction after ct-allowed iterations 0.0000000000

================================
        Results of EDA2         
================================
Basic EDA Quantities
--------------------
Fragment Energies (Ha):
1 -248.5255871664
2 -248.5338868424
--------------------
  E_prp (kJ/mol) = 0.0000
  E_frz (kJ/mol) = -4.5533
  E_pol (kJ/mol) = -0.2282
  E_vct (kJ/mol) = -0.2626
  E_int (kJ/mol) = -5.0441
--------------------


Initial Wavefunction Decomposition
--------------------
  --------------------
  Orthogonal Fragment Subspace Decomposition:
  --------------------
     E_elec   (ELEC)   (kJ/mol) = -2.4249
     E_pauli  (PAULI)  (kJ/mol) = 0.2668
     E_disp   (DISP)   (kJ/mol) = -2.3952
     --------------------
     Terms summing to E_pauli:
     --------------------
        E_kep_pauli       (kJ/mol) = 0.3903
        E_disp_free_pauli (kJ/mol) = -0.1235
  --------------------
  Classical Frozen Decomposition:
  --------------------
     E_cls_elec  (CLS ELEC)  (kJ/mol) = -2.2361
     E_cls_pauli (CLS PAULI) (kJ/mol) = -2.3172
    [E_mod_pauli (MOD PAULI) (kJ/mol) = 0.0780 (CLS PAULI - DISP from orthogonal decomposition) ]
  --------------------
--------------------

Simplified EDA Summary (kJ/mol)
--------------------
 PREPARATION     0.0000
 FROZEN          -2.1581      (does not include dispersion)
[PAULI           0.2668]     (if this is negligible, then frozen describes electrostatics)
 DISPERSION      -2.3952
 POLARIZATION    -0.2282
 CHARGE TRANSFER -0.2626
 TOTAL           -5.0441     (PRP + FRZ + DISP + POL + CT)
--------------------

 --------------------------------------------------------------

                    Orbital Energies (a.u.)
 --------------------------------------------------------------

 Alpha MOs
 -- Occupied --
-19.1618 -19.1546 -14.4370 -14.4321 -10.3626 -10.3564 -10.3088 -10.2928
-10.2681 -10.2560  -1.1781  -1.1505  -1.0562  -1.0451  -0.8954  -0.8944
 -0.8333  -0.8287  -0.7039  -0.6977  -0.6250  -0.6230  -0.5926  -0.5859
 -0.5817  -0.5757  -0.5541  -0.5414  -0.5222  -0.5205  -0.5173  -0.5068
 -0.5029  -0.4825  -0.4710  -0.4593  -0.3637  -0.3536  -0.3526  -0.3422
 -- Virtual --
  0.0443   0.0642   0.0719   0.0773   0.0917   0.0982   0.0991   0.1045
  0.1110   0.1152   0.1208   0.1296   0.1339   0.1359   0.1375   0.1452
  0.1501   0.1610   0.1635   0.1673   0.1747   0.1797   0.1894   0.1903
  0.1932   0.1974   0.2066   0.2122   0.2185   0.2221   0.2325   0.2357
  0.2463   0.2500   0.2520   0.2541   0.2589   0.2636   0.2696   0.2733
  0.2744   0.2810   0.2872   0.2989   0.3005   0.3055   0.3109   0.3129
  0.3169   0.3200   0.3282   0.3300   0.3345   0.3373   0.3411   0.3484
  0.3503   0.3549   0.3561   0.3602   0.3624   0.3673   0.3727   0.3749
  0.3778   0.3844   0.3883   0.3886   0.3953   0.3986   0.4007   0.4021
  0.4064   0.4069   0.4151   0.4170   0.4237   0.4274   0.4314   0.4372
  0.4399   0.4486   0.4542   0.4551   0.4618   0.4700   0.4719   0.4758
  0.4810   0.4864   0.4916   0.5016   0.5030   0.5061   0.5100   0.5111
  0.5163   0.5187   0.5249   0.5265   0.5292   0.5332   0.5375   0.5403
  0.5483   0.5539   0.5597   0.5675   0.5696   0.5812   0.5841   0.5868
  0.5924   0.5928   0.6031   0.6114   0.6296   0.6319   0.6382   0.6420
  0.6563   0.6624   0.6649   0.6756   0.6796   0.6883   0.6941   0.6978
  0.7021   0.7153   0.7223   0.7280   0.7366   0.7396   0.7465   0.7477
  0.7553   0.7620   0.7647   0.7704   0.7748   0.7786   0.7897   0.7936
  0.7980   0.8034   0.8057   0.8111   0.8136   0.8247   0.8275   0.8351
  0.8366   0.8454   0.8499   0.8542   0.8594   0.8662   0.8728   0.8818
  0.8837   0.8923   0.8942   0.9143   0.9183   0.9275   0.9349   0.9379
  0.9638   0.9723   0.9799   0.9925   1.0074   1.0109   1.0276   1.0345
  1.0451   1.0489   1.0711   1.0847   1.0907   1.0964   1.1095   1.1166
  1.1354   1.1503   1.1620   1.1694   1.1796   1.2092   1.2140   1.2230
  1.2427   1.2544   1.2600   1.2740   1.2857   1.2946   1.3030   1.3080
  1.3234   1.3426   1.3551   1.3631   1.3728   1.3983   1.3992   1.4063
  1.4351   1.4354   1.4615   1.4661   1.5082   1.5400   1.5741   1.5916
  1.6336   1.6351   1.6967   1.6986   1.7350   1.7403   1.7483   1.7610
  1.7705   1.7844   1.8331   1.8356   1.8554   1.8686   1.8769   1.8889
  1.8967   1.9048   1.9125   1.9240   1.9289   1.9410   1.9446   1.9512
  1.9567   1.9725   1.9879   2.0036   2.0112   2.0175   2.0290   2.0380
  2.0534   2.0670   2.0745   2.0804   2.1095   2.1250   2.1548   2.1613
  2.1723   2.1832   2.1967   2.2018   2.2312   2.2376   2.2460   2.2603
  2.2735   2.3153   2.3206   2.3463   2.3507   2.3595   2.3987   2.4167
  2.4291   2.4364   2.4571   2.4698   2.4800   2.4974   2.5092   2.5279
  2.5474   2.5599   2.5690   2.5891   2.6027   2.6076   2.6253   2.6293
  2.6335   2.6459   2.6516   2.6669   2.6705   2.6903   2.6958   2.7384
  2.7422   2.7716   2.8016   2.8104   2.8286   2.8552   2.8641   2.8750
  2.8817   2.8917   2.9008   2.9183   2.9338   2.9470   2.9640   2.9720
  2.9815   3.0100   3.0152   3.0476   3.0743   3.0820   3.1170   3.1454
  3.1620   3.1797   3.1909   3.2082   3.2256   3.2331   3.2512   3.2786
  3.2867   3.3026   3.3180   3.3240   3.3263   3.3349   3.3402   3.3541
  3.3584   3.3712   3.3882   3.3978   3.4199   3.4249   3.4339   3.4433
  3.4644   3.4707   3.4794   3.4865   3.4985   3.5197   3.5315   3.5584
  3.5638   3.5775   3.5983   3.6099   3.6286   3.6304   3.6485   3.6594
  3.6722   3.6978   3.7113   3.7312   3.7333   3.7364   3.7669   3.7993
  3.8220   3.8518   3.8866   3.9292   3.9509   3.9573   3.9763   3.9824
  4.0372   4.0979   4.1123   4.1168   4.1570   4.1636   4.2047   4.2504
  4.2666   4.3134   4.3243   4.3539   4.3979   4.4562   4.5008   4.5070
  4.5648   4.6019   4.6524   4.6955   4.7044   4.7089   4.7307   4.7519
  4.7918   4.7975   4.8232   4.8483   4.9746   4.9770   4.9879   5.0175
  5.0265   5.0362   5.1917   5.2235   5.2299   5.2547   5.2577   5.2657
  5.3072   5.3575   5.4158   5.4253   5.4490   5.4791   5.4970   5.5122
  5.5806   5.6176   5.6930   5.7158   5.7504   5.7783   5.7886   5.9084
  6.0227   6.0255   6.1055   6.1383   6.2434   6.4123   6.5010   6.6525
  6.6992   6.7077   6.7756   6.8216   6.8514   6.9793   7.0253   7.0452
  7.2697   7.2969   7.3514   7.3943  22.6453  22.7080  22.7365  22.7823
 23.6037  23.7857  32.7132  32.7332  44.3815  44.4177
 --------------------------------------------------------------

          Ground-State Mulliken Net Atomic Charges

     Atom                 Charge (a.u.)
  ----------------------------------------
      1 C                    -0.700337
      2 H                     0.228486
      3 C                     0.520250
      4 O                    -0.516652
      5 N                    -0.108540
      6 H                     0.185324
      7 C                    -0.736054
      8 H                     0.257826
      9 H                     0.181641
     10 H                     0.186959
     11 H                     0.251958
     12 H                     0.247453
     13 C                    -0.676542
     14 H                     0.160691
     15 C                     0.546252
     16 O                    -0.577410
     17 N                    -0.078124
     18 H                     0.185783
     19 C                    -0.739277
     20 H                     0.277733
     21 H                     0.192537
     22 H                     0.219040
     23 H                     0.245604
     24 H                     0.245401
  ----------------------------------------
  Sum of atomic charges =     0.000000

 -----------------------------------------------------------------
                    Cartesian Multipole Moments
 -----------------------------------------------------------------
    Charge (ESU x 10^10)
                 0.0000
    Dipole Moment (Debye)
         X       0.0377      Y      -1.9911      Z      -4.5830
       Tot       4.9969
    Quadrupole Moments (Debye-Ang)
        XX     -75.4346     XY     -28.7509     YY    -170.3290
        XZ     -81.9976     YZ    -164.8598     ZZ    -168.1485
    Octopole Moments (Debye-Ang^2)
       XXX   -3360.2758    XXY   -2658.3776    XYY   -2511.7354
       YYY   -9814.4137    XXZ   -2376.6267    XYZ   -2865.9973
       YYZ   -6381.6861    XZZ   -2894.4580    YZZ   -5374.5657
       ZZZ   -4194.6851
    Hexadecapole Moments (Debye-Ang^3)
      XXXX -100281.7400   XXXY -105062.2048   XXYY -103014.1570
      XYYY -145233.6892   YYYY -473761.5981   XXXZ  -66866.8220
      XXYZ  -76578.6549   XYYZ -107393.6420   YYYZ -251047.9024
      XXZZ  -61407.3590   XYZZ  -91579.4702   YYZZ -179099.8389
      XZZZ  -71094.7770   YZZZ -129046.3541   ZZZZ  -90357.9185
 -----------------------------------------------------------------
Archival summary:
1\1\compute-0-14.local\SP\ProcedureUnspecified\BasisUnspecified\22614\meili\MonMay1012:39:092021MonMay1012:39:092021\0\\#,ProcedureUnspecified,BasisUnspecified,\\0,1\O\C,1,1.1911\N,2,1.32773,1,123.809\H,3,1.00569,2,116.066,1,157.562,0\C,2,1.47388,1,118.09,3,162.88,0\H,5,1.03717,2,109.364,1,176.642,0\H,5,1.07,2,109.483,1,56.6491,0\H,5,1.07021,2,109.527,1,-63.2751,0\C,3,1.50835,2,127.69,1,-18.5848,0\H,9,1.07009,3,107.54,2,123.474,0\H,9,1.07015,3,105.037,2,-113.644,0\H,9,1.07094,3,116.983,2,2.40145,0\H,7,3.91959,5,109.741,2,50.8619,0\C,13,1.04562,7,109.971,5,133.054,0\H,14,1.0699,13,112.886,7,-173.658,0\H,14,1.07051,13,110.944,7,-55.1106,0\C,14,1.51096,13,103.595,7,63.9391,0\O,17,1.24894,14,123.645,13,-153.754,0\N,17,1.32321,14,119.204,13,29.195,0\H,19,1.00393,17,115.088,14,13.2048,0\C,19,1.46543,17,128.608,14,-179.055,0\H,21,1.05679,19,106.541,17,30.6012,0\H,21,1.06987,19,111.166,17,151.861,0\H,21,1.07054,19,110.195,17,-88.9234,0\\\@

 Total job time:  12596.12s(wall), 21391.16s(cpu) 
 Mon May 10 12:39:09 2021

        *************************************************************
        *                                                           *
        *  Thank you very much for using Q-Chem.  Have a nice day.  *
        *                                                           *
        *************************************************************


