                  Welcome to Q-Chem
     A Quantum Leap Into The Future Of Chemistry


 Q-Chem 5.2 (devel), Q-Chem, Inc., Pleasanton, CA (2019)

 Yihan Shao,  Zhengting Gan,  E. Epifanovsky,  A. T. B. Gilbert,  M. Wormit,  
 J. Kussmann,  A. W. Lange,  A. Behn,  Jia Deng,  Xintian Feng,  D. Ghosh,  
 M. Goldey,  P. R. Horn,  L. D. Jacobson,  I. Kaliman,  T. Kus,  A. Landau,  
 Jie Liu,  E. I. Proynov,  R. M. Richard,  R. P. Steele,  E. J. Sundstrom,  
 H. L. Woodcock III,  P. M. Zimmerman,  D. Zuev,  B. Albrecht,  E. Alguire,  
 S. A. Baeppler,  D. Barton,  Z. Benda,  Y. A. Bernard,  E. J. Berquist,  
 K. B. Bravaya,  H. Burton,  D. Casanova,  Chun-Min Chang,  Yunqing Chen,  
 A. Chien,  K. D. Closser,  M. P. Coons,  S. Coriani,  S. Dasgupta,  
 A. L. Dempwolff,  M. Diedenhofen,  Hainam Do,  R. G. Edgar,  Po-Tung Fang,  
 S. Faraji,  S. Fatehi,  Qingguo Feng,  K. D. Fenk,  J. Fosso-Tande,  
 J. Gayvert,  Qinghui Ge,  A. Ghysels,  G. Gidofalvi,  J. Gomes,  
 J. Gonthier,  A. Gunina,  D. Hait,  M. W. D. Hanson-Heine,  
 P. H. P. Harbach,  A. W. Hauser,  M. F. Herbst,  J. E. Herr,  
 E. G. Hohenstein,  Z. C. Holden,  Kerwin Hui,  B. C. Huynh,  T.-C. Jagau,  
 Hyunjun Ji,  B. Kaduk,  K. Khistyaev,  Jaehoon Kim,  P. Klunzinger,  K. Koh,  
 D. Kosenkov,  L. Koulias,  T. Kowalczyk,  C. M. Krauter,  A. Kunitsa,  
 Ka Un Lao,  A. Laurent,  K. V. Lawler,  Joonho Lee,  D. Lefrancois,  
 S. Lehtola,  D. S. Levine,  Yi-Pei Li,  You-Sheng Lin,  Fenglai Liu,  
 E. Livshits,  A. Luenser,  P. Manohar,  E. Mansoor,  S. F. Manzer,  
 Shan-Ping Mao,  Yuezhi Mao,  N. Mardirossian,  A. V. Marenich,  
 T. Markovich,  L. A. Martinez-Martinez,  S. A. Maurer,  N. J. Mayhall,  
 S. C. McKenzie,  J.-M. Mewes,  P. Morgante,  A. F. Morrison,  
 J. W. Mullinax,  K. Nanda,  T. S. Nguyen-Beck,  R. Olivares-Amaya,  
 J. A. Parkhill,  Zheng Pei,  T. M. Perrine,  F. Plasser,  P. Pokhilko,  
 S. Prager,  A. Prociuk,  E. Ramos,  D. R. Rehn,  F. Rob,  M. Scheurer,  
 M. Schneider,  N. Sergueev,  S. M. Sharada,  S. Sharma,  D. W. Small,  
 T. Stauch,  T. Stein,  Yu-Chuan Su,  A. J. W. Thom,  A. Tkatchenko,  
 T. Tsuchimochi,  N. M. Tubman,  L. Vogt,  M. L. Vidal,  O. Vydrov,  
 M. A. Watson,  J. Wenzel,  M. de Wergifosse,  T. A. Wesolowski,  A. White,  
 J. Witte,  A. Yamada,  Jun Yang,  K. Yao,  S. Yeganeh,  S. R. Yost,  
 Zhi-Qiang You,  A. Zech,  Igor Ying Zhang,  Xing Zhang,  Yan Zhao,  
 Ying Zhu,  B. R. Brooks,  G. K. L. Chan,  C. J. Cramer,  M. S. Gordon,  
 W. J. Hehre,  A. Klamt,  M. W. Schmidt,  C. D. Sherrill,  D. G. Truhlar,  
 A. Aspuru-Guzik,  R. Baer,  A. T. Bell,  N. A. Besley,  Jeng-Da Chai,  
 A. E. DePrince, III,  R. A. DiStasio Jr.,  A. Dreuw,  B. D. Dunietz,  
 T. R. Furlani,  Chao-Ping Hsu,  Yousung Jung,  Jing Kong,  D. S. Lambrecht,  
 WanZhen Liang,  C. Ochsenfeld,  V. A. Rassolov,  L. V. Slipchenko,  
 J. E. Subotnik,  T. Van Voorhis,  J. M. Herbert,  A. I. Krylov,  
 P. M. W. Gill,  M. Head-Gordon

 Contributors to earlier versions of Q-Chem not listed above: 
 R. D. Adamson,  B. Austin,  J. Baker,  G. J. O. Beran,  K. Brandhorst,  
 S. T. Brown,  E. F. C. Byrd,  A. K. Chakraborty,  C.-L. Cheng,  
 Siu Hung Chien,  D. M. Chipman,  D. L. Crittenden,  H. Dachsel,  
 R. J. Doerksen,  A. D. Dutoi,  L. Fusti-Molnar,  W. A. Goddard III,  
 A. Golubeva-Zadorozhnaya,  S. R. Gwaltney,  G. Hawkins,  A. Heyden,  
 S. Hirata,  G. Kedziora,  F. J. Keil,  C. Kelley,  Jihan Kim,  R. A. King,  
 R. Z. Khaliullin,  P. P. Korambath,  W. Kurlancheek,  A. M. Lee,  M. S. Lee,  
 S. V. Levchenko,  Ching Yeh Lin,  D. Liotard,  R. C. Lochan,  I. Lotan,  
 P. E. Maslen,  N. Nair,  D. P. O'Neill,  D. Neuhauser,  E. Neuscamman,  
 C. M. Oana,  R. Olson,  B. Peters,  R. Peverati,  P. A. Pieniazek,  
 Y. M. Rhee,  J. Ritchie,  M. A. Rohrdanz,  E. Rosta,  N. J. Russ,  
 H. F. Schaefer III,  N. E. Schultz,  N. Shenvi,  A. C. Simmonett,  A. Sodt,  
 D. Stuck,  K. S. Thanthiriwatte,  V. Vanovschi,  Tao Wang,  A. Warshel,  
 C. F. Williams,  Q. Wu,  X. Xu,  W. Zhang

 Please cite Q-Chem as follows:
 Y. Shao et al., Mol. Phys. 113, 184-215 (2015)
 DOI: 10.1080/00268976.2014.952696

 Q-Chem 5.2.1 for Intel X86 EM64T Linux

 Parts of Q-Chem use Armadillo 8.300.2 (Tropical Shenanigans).
 http://arma.sourceforge.net/

 Q-Chem begins on Mon May 10 09:09:13 2021  

compute-0-12.local
Host: 0

     Scratch files written to /home/meili/scratch/qchem28997//
NAlpha2: 80
NElect   80
Mult     1

 Q-Chem warning in module libgen/rem_setup.C, line 2813:

 Neither GIA nor STOLL is specified by user. Use STOLL as the default


Checking the input file for inconsistencies... 	...done.

--------------------------------------------------------------
User input:
--------------------------------------------------------------
$comment
1vex_ff99sbtip3p_nvt_e8_100ns_m0483_005CYX_006LEU_033SER_034LEU.pdb
$end

$molecule
0 1
--
0 1
C    10.7700000000   28.5400000000   26.5640000000
H    11.7320000000   29.0000000000   26.3630000000
C    10.9240000000   27.1400000000   25.9150000000
O     9.9640000000   26.4390000000   25.5150000000
N    12.1020000000   26.5570000000   25.8930000000
H    12.8590000000   27.0500000000   26.2580000000
C    12.3170000000   25.1360000000   25.4890000000
H    11.7420000000   25.0100000000   24.6080000000
H    10.5920000000   28.4610000000   27.6160000000
H     9.9420000000   29.0990000000   26.1800000000
H    13.3530000000   24.9540000000   25.2910000000
H    12.0270000000   24.4520000000   26.2590000000
--
0 1
C    14.1510000000   30.0780000000   25.0650000000
H    13.1750000000   30.1840000000   25.5880000000
C    14.0550000000   28.8800000000   24.0170000000
O    15.0140000000   28.1870000000   23.6910000000
N    12.9190000000   28.8070000000   23.3120000000
H    12.1990000000   29.4320000000   23.5950000000
C    12.5860000000   27.8320000000   22.2300000000
H    12.8530000000   26.8590000000   22.6190000000
H    14.3820000000   30.9870000000   24.5500000000
H    14.9210000000   29.8720000000   25.7780000000
H    11.5410000000   27.8690000000   22.0040000000
H    13.1120000000   28.0530000000   21.3250000000
$end

$rem
JOBTYPE			EDA
EDA2			1
method			wB97X-V
BASIS			def2-TZVPD
XC_GRID			000099000590
NL_GRID			1
UNRESTRICTED		FALSE
MAX_SCF_CYCLES		200
SYMMETRY		FALSE
SYM_IGNORE		TRUE
MEM_STATIC		2000
BASIS_LIN_DEP_THRESH 	6
THRESH 			14
SCF_CONVERGENCE 	8
SCF_PRINT_FRGM 		TRUE
$end
--------------------------------------------------------------
 ----------------------------------------------------------------
             Standard Nuclear Orientation (Angstroms)
    I     Atom           X                Y                Z
 ----------------------------------------------------------------
    1      C      10.7700000000    28.5400000000    26.5640000000
    2      H      11.7320000000    29.0000000000    26.3630000000
    3      C      10.9240000000    27.1400000000    25.9150000000
    4      O       9.9640000000    26.4390000000    25.5150000000
    5      N      12.1020000000    26.5570000000    25.8930000000
    6      H      12.8590000000    27.0500000000    26.2580000000
    7      C      12.3170000000    25.1360000000    25.4890000000
    8      H      11.7420000000    25.0100000000    24.6080000000
    9      H      10.5920000000    28.4610000000    27.6160000000
   10      H       9.9420000000    29.0990000000    26.1800000000
   11      H      13.3530000000    24.9540000000    25.2910000000
   12      H      12.0270000000    24.4520000000    26.2590000000
   13      C      14.1510000000    30.0780000000    25.0650000000
   14      H      13.1750000000    30.1840000000    25.5880000000
   15      C      14.0550000000    28.8800000000    24.0170000000
   16      O      15.0140000000    28.1870000000    23.6910000000
   17      N      12.9190000000    28.8070000000    23.3120000000
   18      H      12.1990000000    29.4320000000    23.5950000000
   19      C      12.5860000000    27.8320000000    22.2300000000
   20      H      12.8530000000    26.8590000000    22.6190000000
   21      H      14.3820000000    30.9870000000    24.5500000000
   22      H      14.9210000000    29.8720000000    25.7780000000
   23      H      11.5410000000    27.8690000000    22.0040000000
   24      H      13.1120000000    28.0530000000    21.3250000000
 ----------------------------------------------------------------
 Nuclear Repulsion Energy =         551.97597157 hartrees
 There are       40 alpha and       40 beta electrons
 Requested basis set is def2-TZVPD
 There are 202 shells and 502 basis functions

 Total QAlloc Memory Limit   2000 MB
 Mega-Array Size      1956 MB
 MEM_STATIC part      2000 MB
 A cutoff of  1.0D-14 yielded  18692 shell pairs
 There are    116888 function pairs (    146151 Cartesian)
 Smallest overlap matrix eigenvalue = 2.64E-06

 Scale SEOQF with 1.000000e-02/1.000000e-03/1.000000e-03

 Standard Electronic Orientation quadrupole field applied
 Nucleus-field energy     =     0.0000000366 hartrees

 -----------------------------------------------------------------------
  General SCF calculation program by
  Eric Jon Sundstrom, Paul Horn, Yuezhi Mao, Dmitri Zuev, Alec White,
  David Stuck, Shaama M.S., Shane Yost, Joonho Lee, David Small,
  Daniel Levine, Susi Lehtola, Hugh Burton, Evgeny Epifanovsky,
  Bang C. Huynh
 -----------------------------------------------------------------------
================================================================
                 ALMO-EDA with the EDA2 driver                  
================================================================
 The second-generation ALMO-EDA (for DFT):                      
 P. R. Horn, Y. Mao and M. Head-Gordon, PCCP, 18, 23067 (2016)  
 Decomposition of the frozen energy:                            
 P. R. Horn, Y. Mao and M. Head-Gordon, JCP, 144, 114107 (2016) 
 FERF model for polarization:                                   
 P. R. Horn and M. Head-Gordon, JCP, 143, 114111 (2015)         
Using eda2 option set 1
Option set summary: Frozen orbital wavefunction, initial wavefunction decomposition, and nDQ polarization.
--------------------------------
Printing EDA Options
--------------------------------
eda_child_super_basis      0
fragmo_guess_mode          0
child_mp                   1
child_mp_orders            232
cls_elec                   1
cls_disp                   0
scfmi_mode                 1
scfmi_occs                 0
scfmi_virts                0
frz_relax                  0
frz_relax_method           0
dc_pen_start               0
dc_pen_conv                0
dc_pen_increment           0
dc_pen_steps               0
dc_pen_thresh_factor       0
dc_pen_pre_newton_thresh   0
frz_ortho_decomp           1
frz_ortho_decomp_conv      6
frgm_method                2
scfmi_freeze_ss            0
separate_rehyb             0
plot_diff_den              0
eda_nocv                   0
eda_vct_relax              1
disp_free_x                0
disp_free_c                0
eda_bsse                   0
eda_pct_a                  0
eda_covp                   0
--------------------------------
Attempting to make child job directory: /home/meili/scratch/qchem28997//Frg1/
Attempting to make child job directory: /home/meili/scratch/qchem28997//Frg2/
Creating input file /home/meili/scratch/qchem28997/Frg1.input
using default PutDataFrgm: nothing
calling putenv with: QCSCRATCH=/home/meili/scratch/qchem28997/ 
Spawning Job For Fragment 0
                  Welcome to Q-Chem
     A Quantum Leap Into The Future Of Chemistry


 Q-Chem 5.2 (devel), Q-Chem, Inc., Pleasanton, CA (2019)

 Yihan Shao,  Zhengting Gan,  E. Epifanovsky,  A. T. B. Gilbert,  M. Wormit,  
 J. Kussmann,  A. W. Lange,  A. Behn,  Jia Deng,  Xintian Feng,  D. Ghosh,  
 M. Goldey,  P. R. Horn,  L. D. Jacobson,  I. Kaliman,  T. Kus,  A. Landau,  
 Jie Liu,  E. I. Proynov,  R. M. Richard,  R. P. Steele,  E. J. Sundstrom,  
 H. L. Woodcock III,  P. M. Zimmerman,  D. Zuev,  B. Albrecht,  E. Alguire,  
 S. A. Baeppler,  D. Barton,  Z. Benda,  Y. A. Bernard,  E. J. Berquist,  
 K. B. Bravaya,  H. Burton,  D. Casanova,  Chun-Min Chang,  Yunqing Chen,  
 A. Chien,  K. D. Closser,  M. P. Coons,  S. Coriani,  S. Dasgupta,  
 A. L. Dempwolff,  M. Diedenhofen,  Hainam Do,  R. G. Edgar,  Po-Tung Fang,  
 S. Faraji,  S. Fatehi,  Qingguo Feng,  K. D. Fenk,  J. Fosso-Tande,  
 J. Gayvert,  Qinghui Ge,  A. Ghysels,  G. Gidofalvi,  J. Gomes,  
 J. Gonthier,  A. Gunina,  D. Hait,  M. W. D. Hanson-Heine,  
 P. H. P. Harbach,  A. W. Hauser,  M. F. Herbst,  J. E. Herr,  
 E. G. Hohenstein,  Z. C. Holden,  Kerwin Hui,  B. C. Huynh,  T.-C. Jagau,  
 Hyunjun Ji,  B. Kaduk,  K. Khistyaev,  Jaehoon Kim,  P. Klunzinger,  K. Koh,  
 D. Kosenkov,  L. Koulias,  T. Kowalczyk,  C. M. Krauter,  A. Kunitsa,  
 Ka Un Lao,  A. Laurent,  K. V. Lawler,  Joonho Lee,  D. Lefrancois,  
 S. Lehtola,  D. S. Levine,  Yi-Pei Li,  You-Sheng Lin,  Fenglai Liu,  
 E. Livshits,  A. Luenser,  P. Manohar,  E. Mansoor,  S. F. Manzer,  
 Shan-Ping Mao,  Yuezhi Mao,  N. Mardirossian,  A. V. Marenich,  
 T. Markovich,  L. A. Martinez-Martinez,  S. A. Maurer,  N. J. Mayhall,  
 S. C. McKenzie,  J.-M. Mewes,  P. Morgante,  A. F. Morrison,  
 J. W. Mullinax,  K. Nanda,  T. S. Nguyen-Beck,  R. Olivares-Amaya,  
 J. A. Parkhill,  Zheng Pei,  T. M. Perrine,  F. Plasser,  P. Pokhilko,  
 S. Prager,  A. Prociuk,  E. Ramos,  D. R. Rehn,  F. Rob,  M. Scheurer,  
 M. Schneider,  N. Sergueev,  S. M. Sharada,  S. Sharma,  D. W. Small,  
 T. Stauch,  T. Stein,  Yu-Chuan Su,  A. J. W. Thom,  A. Tkatchenko,  
 T. Tsuchimochi,  N. M. Tubman,  L. Vogt,  M. L. Vidal,  O. Vydrov,  
 M. A. Watson,  J. Wenzel,  M. de Wergifosse,  T. A. Wesolowski,  A. White,  
 J. Witte,  A. Yamada,  Jun Yang,  K. Yao,  S. Yeganeh,  S. R. Yost,  
 Zhi-Qiang You,  A. Zech,  Igor Ying Zhang,  Xing Zhang,  Yan Zhao,  
 Ying Zhu,  B. R. Brooks,  G. K. L. Chan,  C. J. Cramer,  M. S. Gordon,  
 W. J. Hehre,  A. Klamt,  M. W. Schmidt,  C. D. Sherrill,  D. G. Truhlar,  
 A. Aspuru-Guzik,  R. Baer,  A. T. Bell,  N. A. Besley,  Jeng-Da Chai,  
 A. E. DePrince, III,  R. A. DiStasio Jr.,  A. Dreuw,  B. D. Dunietz,  
 T. R. Furlani,  Chao-Ping Hsu,  Yousung Jung,  Jing Kong,  D. S. Lambrecht,  
 WanZhen Liang,  C. Ochsenfeld,  V. A. Rassolov,  L. V. Slipchenko,  
 J. E. Subotnik,  T. Van Voorhis,  J. M. Herbert,  A. I. Krylov,  
 P. M. W. Gill,  M. Head-Gordon

 Contributors to earlier versions of Q-Chem not listed above: 
 R. D. Adamson,  B. Austin,  J. Baker,  G. J. O. Beran,  K. Brandhorst,  
 S. T. Brown,  E. F. C. Byrd,  A. K. Chakraborty,  C.-L. Cheng,  
 Siu Hung Chien,  D. M. Chipman,  D. L. Crittenden,  H. Dachsel,  
 R. J. Doerksen,  A. D. Dutoi,  L. Fusti-Molnar,  W. A. Goddard III,  
 A. Golubeva-Zadorozhnaya,  S. R. Gwaltney,  G. Hawkins,  A. Heyden,  
 S. Hirata,  G. Kedziora,  F. J. Keil,  C. Kelley,  Jihan Kim,  R. A. King,  
 R. Z. Khaliullin,  P. P. Korambath,  W. Kurlancheek,  A. M. Lee,  M. S. Lee,  
 S. V. Levchenko,  Ching Yeh Lin,  D. Liotard,  R. C. Lochan,  I. Lotan,  
 P. E. Maslen,  N. Nair,  D. P. O'Neill,  D. Neuhauser,  E. Neuscamman,  
 C. M. Oana,  R. Olson,  B. Peters,  R. Peverati,  P. A. Pieniazek,  
 Y. M. Rhee,  J. Ritchie,  M. A. Rohrdanz,  E. Rosta,  N. J. Russ,  
 H. F. Schaefer III,  N. E. Schultz,  N. Shenvi,  A. C. Simmonett,  A. Sodt,  
 D. Stuck,  K. S. Thanthiriwatte,  V. Vanovschi,  Tao Wang,  A. Warshel,  
 C. F. Williams,  Q. Wu,  X. Xu,  W. Zhang

 Please cite Q-Chem as follows:
 Y. Shao et al., Mol. Phys. 113, 184-215 (2015)
 DOI: 10.1080/00268976.2014.952696

 Q-Chem 5.2.1 for Intel X86 EM64T Linux

 Parts of Q-Chem use Armadillo 8.300.2 (Tropical Shenanigans).
 http://arma.sourceforge.net/

 Q-Chem begins on Mon May 10 09:10:37 2021  

compute-0-12.local
Host: 0

     Scratch files written to /home/meili/scratch/qchem28997//Frg1//
NAlpha2: 40
NElect   40
Mult     1

Checking the input file for inconsistencies... 	...done.

--------------------------------------------------------------
User input:
--------------------------------------------------------------
$molecule
0 1
 6	10.7700000000	28.5400000000	26.5640000000
 1	11.7320000000	29.0000000000	26.3630000000
 6	10.9240000000	27.1400000000	25.9150000000
 8	9.9640000000	26.4390000000	25.5150000000
 7	12.1020000000	26.5570000000	25.8930000000
 1	12.8590000000	27.0500000000	26.2580000000
 6	12.3170000000	25.1360000000	25.4890000000
 1	11.7420000000	25.0100000000	24.6080000000
 1	10.5920000000	28.4610000000	27.6160000000
 1	9.9420000000	29.0990000000	26.1800000000
 1	13.3530000000	24.9540000000	25.2910000000
 1	12.0270000000	24.4520000000	26.2590000000
$end
$rem
EDA2		1
METHOD		WB97X-V
BASIS		DEF2-TZVPD
XC_GRID		000099000590
NL_GRID		1
UNRESTRICTED		FALSE
MAX_SCF_CYCLES		200
SYMMETRY		FALSE
SYM_IGNORE		TRUE
BASIS_LIN_DEP_THRESH		6
THRESH		14
SCF_CONVERGENCE		8
SCF_PRINT_FRGM		TRUE
!required keywords
JOBTYPE		SP
SYM_IGNORE		TRUE
SUBSYSTEM		TRUE
GEN_SCFMAN		TRUE
CHILD_INSTRUCTION		2
SYM_IGNORE		TRUE
SCFMI		0
RI_K 0		
PARI_K 0		
MIN_PARI_K 0		
IARI_K 0		
OCC_RI_K 0		
PURECART		1111
MEM_STATIC		2000
MEM_TOTAL		2000
GUI		0
CHILD_MP		1
CHILD_MP_ORDERS		232
FRZ_RELAX		0
FRZ_RELAX_METHOD		0
EDA_CLS_ELEC		1
EDA_CLS_DISP		0
FRZ_ORTHO_DECOMP		1
EDA2		FALSE
FRGM_METHOD		FALSE
CIS_N_ROOTS  0
LOCAL_CIS    0
CIS_RLX_DNS  1
$end
--------------------------------------------------------------
 ----------------------------------------------------------------
             Standard Nuclear Orientation (Angstroms)
    I     Atom           X                Y                Z
 ----------------------------------------------------------------
    1      C      10.7700000000    28.5400000000    26.5640000000
    2      H      11.7320000000    29.0000000000    26.3630000000
    3      C      10.9240000000    27.1400000000    25.9150000000
    4      O       9.9640000000    26.4390000000    25.5150000000
    5      N      12.1020000000    26.5570000000    25.8930000000
    6      H      12.8590000000    27.0500000000    26.2580000000
    7      C      12.3170000000    25.1360000000    25.4890000000
    8      H      11.7420000000    25.0100000000    24.6080000000
    9      H      10.5920000000    28.4610000000    27.6160000000
   10      H       9.9420000000    29.0990000000    26.1800000000
   11      H      13.3530000000    24.9540000000    25.2910000000
   12      H      12.0270000000    24.4520000000    26.2590000000
 ----------------------------------------------------------------
 Nuclear Repulsion Energy =         180.23400573 hartrees
 There are       20 alpha and       20 beta electrons
 Requested basis set is def2-TZVPD
 There are 101 shells and 251 basis functions

 Total QAlloc Memory Limit   2000 MB
 Mega-Array Size      1956 MB
 MEM_STATIC part      2000 MB

                       Distance Matrix (Angstroms)
             C (  1)   H (  2)   C (  3)   O (  4)   N (  5)   H (  6)
   H (  2)  1.085101
   C (  3)  1.550779  2.076817
   O (  4)  2.482788  3.225469  1.254193
   N (  5)  2.481281  2.515164  1.314556  2.174362
   H (  6)  2.584116  2.254696  1.967225  3.050638  0.974332
   C (  7)  3.890508  4.004572  2.477487  2.689813  1.492877  2.132726
   H (  8)  4.151099  4.358925  2.629501  2.454786  2.043045  2.851629
   H (  9)  1.069873  1.777675  2.179143  2.982796  2.978934  2.995726
   H ( 10)  1.070290  1.802052  2.207313  2.741954  3.348094  3.565582
   H ( 11)  4.599110  4.488534  3.326862  3.706848  2.120616  2.360581
   H ( 12)  4.287752  4.558744  2.925797  2.959337  2.137898  2.727972
             C (  7)   H (  8)   H (  9)   H ( 10)   H ( 11)
   H (  8)  1.059557
   H (  9)  4.307596  4.720166
   H ( 10)  4.671560  4.736149  1.700482
   H ( 11)  1.070338  1.750699  5.032673  5.441164
   H ( 12)  1.069979  1.765896  4.469089  5.093925  1.716771

 A cutoff of  1.0D-14 yielded   5027 shell pairs
 There are     31629 function pairs (     39783 Cartesian)
 Smallest overlap matrix eigenvalue = 8.78E-06

 Scale SEOQF with 1.000000e-02/1.000000e-03/1.000000e-03

 Standard Electronic Orientation quadrupole field applied
 Nucleus-field energy     =     0.0000000100 hartrees
 Guess from superposition of atomic densities
 Warning:  Energy on first SCF cycle will be non-variational
 SAD guess density has 40.000000 electrons

 -----------------------------------------------------------------------
  General SCF calculation program by
  Eric Jon Sundstrom, Paul Horn, Yuezhi Mao, Dmitri Zuev, Alec White,
  David Stuck, Shaama M.S., Shane Yost, Joonho Lee, David Small,
  Daniel Levine, Susi Lehtola, Hugh Burton, Evgeny Epifanovsky,
  Bang C. Huynh
 -----------------------------------------------------------------------
 Exchange:     0.1670 Hartree-Fock + 1.0000 wB97X-V + LR-HF
 Correlation:  1.0000 wB97X-V
 Using Euler-Maclaurin-Lebedev (99,590) quadrature formula
 Nonlocal Correlation:  VV10 with C = 0.0100 and b = 6.00 and scale = 1.00000
 Grid used for NLC:  SG-1 standard quadrature
Energy prior to optimization (guess energy) = -248.403716253323
Begin Timing: Total SCF Calculation
begin iterations for algorithm: DIIS         
the SCF tolerance is set to 1.00e-08
    1    -248.4037162533      4.38e-03     00000 
    2    -248.3225315818      6.18e-03     00000 
    3    -248.5299431265      5.15e-04     00000 
    4    -248.5315287129      2.31e-04     00000 
    5    -248.5318788035      5.45e-05     00000 
    6    -248.5319055666      1.99e-05     00000 
    7    -248.5319104410      5.47e-06     00000 
    8    -248.5319110850      1.74e-06     00000 
    9    -248.5319111350      6.39e-07     00000 
   10    -248.5319111398      1.36e-07     00000 
   11    -248.5319111401      2.69e-08     00000 
   12    -248.5319111401      1.07e-08     00000 
   13    -248.5319111401      2.66e-09     00000 Convergence criterion met
Timing for Total SCF: 292.00s (wall), 1597.56s (cpu)
Multipole orders to be included
        2
        3
computing dipole RHS
computing quadrupole RHS
total number of RHS in solve_reponses: 8
RHS batch sizes
        8
Beginning Block Conjugate Gradient Iterations. Batch Number: 0
computing hessian-vector products by finite difference
              1      4.94e-01     00000 Conjugate Gradient Iteration
computing hessian-vector products by finite difference
              2      1.75e-01     00000 Conjugate Gradient Iteration
computing hessian-vector products by finite difference
              3      4.58e-02     00000 Conjugate Gradient Iteration
computing hessian-vector products by finite difference
              4      1.12e-02     00000 Conjugate Gradient Iteration
computing hessian-vector products by finite difference
              5      1.99e-03     00000 Conjugate Gradient Iteration
computing hessian-vector products by finite difference
              6      4.01e-04     00000 Conjugate Gradient Iteration
computing hessian-vector products by finite difference
              7      6.02e-05     00000 Conjugate Gradient Iteration
computing hessian-vector products by finite difference
              8      8.07e-06     00000 Conjugate Gradient Iteration
computing hessian-vector products by finite difference
              9      1.15e-06     00000 Conjugate Gradient Iteration
computing hessian-vector products by finite difference
             10      2.96e-07     00000 Conjugate Gradient Iteration
computing hessian-vector products by finite difference
             11      6.84e-08     00000 Conjugate Gradient Iteration
computing hessian-vector products by finite difference
             12      7.94e-09     00000 CG Converged
batch 0 complete
Done Calculating Responses
TESTING ORTHOGONALIZATION OF MULTIPOLE BASIS
Multipole virts passed orthogonality test
Virts Per Order
           60
          100

 --------------------------------------------------------------

                    Orbital Energies (a.u.)
 --------------------------------------------------------------

 Alpha MOs
 -- Occupied --
-19.1561 -14.4356 -10.3664 -10.2989 -10.2772  -1.1531  -1.0456  -0.8879
 -0.8301  -0.7090  -0.6264  -0.5816  -0.5716  -0.5384  -0.5239  -0.5181
 -0.4838  -0.4620  -0.3567  -0.3449
 -- Virtual --
  0.0554   0.0766   0.0948   0.1059   0.1084   0.1236   0.1358   0.1386
  0.1526   0.1631   0.1666   0.1845   0.1912   0.2013   0.2029   0.2227
  0.2369   0.2438   0.2542   0.2693   0.2751   0.2792   0.2885   0.2937
  0.3024   0.3092   0.3190   0.3306   0.3437   0.3532   0.3589   0.3609
  0.3715   0.3739   0.3824   0.3843   0.3900   0.3997   0.4083   0.4146
  0.4301   0.4386   0.4503   0.4553   0.4560   0.4685   0.4783   0.4844
  0.4909   0.5012   0.5095   0.5149   0.5285   0.5402   0.5445   0.5550
  0.5666   0.5838   0.5990   0.6087   0.6336   0.6437   0.6461   0.6757
  0.6800   0.7045   0.7136   0.7275   0.7359   0.7440   0.7507   0.7669
  0.7792   0.7891   0.7940   0.8081   0.8235   0.8329   0.8415   0.8535
  0.8581   0.8688   0.8829   0.9032   0.9211   0.9408   0.9906   1.0178
  1.0354   1.0482   1.0589   1.0675   1.1142   1.1478   1.1597   1.1876
  1.2212   1.2441   1.2644   1.2937   1.3129   1.3177   1.3522   1.3749
  1.3831   1.4415   1.5064   1.5412   1.6133   1.6800   1.7375   1.7506
  1.7870   1.8141   1.8515   1.8557   1.8719   1.8944   1.9137   1.9279
  1.9447   1.9630   1.9919   2.0123   2.0357   2.0575   2.0991   2.1415
  2.1554   2.1938   2.2150   2.2295   2.2769   2.3212   2.3456   2.3579
  2.4118   2.4368   2.4571   2.4851   2.5052   2.5399   2.5734   2.5980
  2.6116   2.6488   2.6622   2.7388   2.7597   2.8057   2.8347   2.8418
  2.8656   2.8792   2.9307   2.9484   2.9596   3.0316   3.0687   3.1150
  3.1584   3.1923   3.1962   3.2586   3.2808   3.2857   3.3060   3.3355
  3.3604   3.3832   3.3953   3.4286   3.4340   3.4604   3.4962   3.5091
  3.5531   3.6118   3.6136   3.6359   3.6465   3.6879   3.7108   3.7385
  3.8239   3.8779   3.9160   3.9648   4.0271   4.0435   4.1161   4.1424
  4.2341   4.3130   4.4369   4.5124   4.5655   4.6382   4.6724   4.7093
  4.7655   4.8452   4.9569   4.9669   4.9966   5.1753   5.2320   5.2579
  5.3851   5.4256   5.4399   5.5344   5.6402   5.6872   5.7383   5.7546
  5.9823   6.1458   6.2208   6.4870   6.6910   6.7427   6.8260   7.0067
  7.2655   7.3538  22.6031  22.7008  23.5548  32.6833  44.3453
 --------------------------------------------------------------

          Ground-State Mulliken Net Atomic Charges

     Atom                 Charge (a.u.)
  ----------------------------------------
      1 C                    -0.724442
      2 H                     0.216464
      3 C                     0.545956
      4 O                    -0.575700
      5 N                    -0.075589
      6 H                     0.146660
      7 C                    -0.652004
      8 H                     0.244684
      9 H                     0.198590
     10 H                     0.212276
     11 H                     0.247879
     12 H                     0.215226
  ----------------------------------------
  Sum of atomic charges =     0.000000

 -----------------------------------------------------------------
                    Cartesian Multipole Moments
 -----------------------------------------------------------------
    Charge (ESU x 10^10)
                 0.0000
    Dipole Moment (Debye)
         X       3.7914      Y       1.0893      Z       1.3162
       Tot       4.1586
    Quadrupole Moments (Debye-Ang)
        XX      52.6453     XY     110.5708     YY      30.9038
        XZ     111.5728     YZ      64.5257     ZZ      37.1430
    Octopole Moments (Debye-Ang^2)
       XXX     347.8910    XXY    1478.0246    XYY    2894.6161
       YYY     137.7878    XXZ    1500.8666    XYZ    3234.5456
       YYZ    1801.5411    XZZ    2885.6951    YZZ    1780.6977
       ZZZ     238.2696
    Hexadecapole Moments (Debye-Ang^3)
      XXXX   -2927.6074   XXXY    9787.9902   XXYY   37858.8470
      XYYY   67507.2677   YYYY  -34861.6367   XXXZ   10448.3951
      XXYZ   42093.9523   XYYZ   85238.3460   YYYZ   31101.7605
      XXZZ   38424.6314   XYZZ   84011.5521   YYZZ   50271.2886
      XZZZ   65576.7041   YZZZ   27417.0417   ZZZZ  -33413.2824
 -----------------------------------------------------------------
Archival summary:
1\1\compute-0-12.local\SP\ProcedureUnspecified\BasisUnspecified\1137\meili\MonMay1010:39:282021MonMay1010:39:282021\0\\#,ProcedureUnspecified,BasisUnspecified,\\0,1\N\H,1,0.974332\C,1,1.31456,2,117.747\O,3,1.25419,1,115.639,2,-175.609,0\C,1,1.49288,2,118.106,3,-173.139,0\H,5,1.05956,1,105.073,2,-141.957,0\H,5,1.06998,1,112.006,2,96.1717,0\H,5,1.07034,1,110.568,2,-22.6446,0\C,3,1.55078,1,119.76,2,-2.59754,0\H,9,1.06987,3,111.184,1,-86.7016,0\H,9,1.07029,3,113.465,1,154.919,0\H,9,1.0851,3,102.541,1,32.1655,0\\\@

 Total job time:  5330.70s(wall), 28808.34s(cpu) 
 Mon May 10 10:39:28 2021

        *************************************************************
        *                                                           *
        *  Thank you very much for using Q-Chem.  Have a nice day.  *
        *                                                           *
        *************************************************************


Done Job For Fragment 0
calling putenv with: QCSCRATCH=/home/meili/scratch 
calling putenv with: QCTHREADS=8 
Creating input file /home/meili/scratch/qchem28997/Frg2.input
using default PutDataFrgm: nothing
calling putenv with: QCSCRATCH=/home/meili/scratch/qchem28997/ 
Spawning Job For Fragment 1
                  Welcome to Q-Chem
     A Quantum Leap Into The Future Of Chemistry


 Q-Chem 5.2 (devel), Q-Chem, Inc., Pleasanton, CA (2019)

 Yihan Shao,  Zhengting Gan,  E. Epifanovsky,  A. T. B. Gilbert,  M. Wormit,  
 J. Kussmann,  A. W. Lange,  A. Behn,  Jia Deng,  Xintian Feng,  D. Ghosh,  
 M. Goldey,  P. R. Horn,  L. D. Jacobson,  I. Kaliman,  T. Kus,  A. Landau,  
 Jie Liu,  E. I. Proynov,  R. M. Richard,  R. P. Steele,  E. J. Sundstrom,  
 H. L. Woodcock III,  P. M. Zimmerman,  D. Zuev,  B. Albrecht,  E. Alguire,  
 S. A. Baeppler,  D. Barton,  Z. Benda,  Y. A. Bernard,  E. J. Berquist,  
 K. B. Bravaya,  H. Burton,  D. Casanova,  Chun-Min Chang,  Yunqing Chen,  
 A. Chien,  K. D. Closser,  M. P. Coons,  S. Coriani,  S. Dasgupta,  
 A. L. Dempwolff,  M. Diedenhofen,  Hainam Do,  R. G. Edgar,  Po-Tung Fang,  
 S. Faraji,  S. Fatehi,  Qingguo Feng,  K. D. Fenk,  J. Fosso-Tande,  
 J. Gayvert,  Qinghui Ge,  A. Ghysels,  G. Gidofalvi,  J. Gomes,  
 J. Gonthier,  A. Gunina,  D. Hait,  M. W. D. Hanson-Heine,  
 P. H. P. Harbach,  A. W. Hauser,  M. F. Herbst,  J. E. Herr,  
 E. G. Hohenstein,  Z. C. Holden,  Kerwin Hui,  B. C. Huynh,  T.-C. Jagau,  
 Hyunjun Ji,  B. Kaduk,  K. Khistyaev,  Jaehoon Kim,  P. Klunzinger,  K. Koh,  
 D. Kosenkov,  L. Koulias,  T. Kowalczyk,  C. M. Krauter,  A. Kunitsa,  
 Ka Un Lao,  A. Laurent,  K. V. Lawler,  Joonho Lee,  D. Lefrancois,  
 S. Lehtola,  D. S. Levine,  Yi-Pei Li,  You-Sheng Lin,  Fenglai Liu,  
 E. Livshits,  A. Luenser,  P. Manohar,  E. Mansoor,  S. F. Manzer,  
 Shan-Ping Mao,  Yuezhi Mao,  N. Mardirossian,  A. V. Marenich,  
 T. Markovich,  L. A. Martinez-Martinez,  S. A. Maurer,  N. J. Mayhall,  
 S. C. McKenzie,  J.-M. Mewes,  P. Morgante,  A. F. Morrison,  
 J. W. Mullinax,  K. Nanda,  T. S. Nguyen-Beck,  R. Olivares-Amaya,  
 J. A. Parkhill,  Zheng Pei,  T. M. Perrine,  F. Plasser,  P. Pokhilko,  
 S. Prager,  A. Prociuk,  E. Ramos,  D. R. Rehn,  F. Rob,  M. Scheurer,  
 M. Schneider,  N. Sergueev,  S. M. Sharada,  S. Sharma,  D. W. Small,  
 T. Stauch,  T. Stein,  Yu-Chuan Su,  A. J. W. Thom,  A. Tkatchenko,  
 T. Tsuchimochi,  N. M. Tubman,  L. Vogt,  M. L. Vidal,  O. Vydrov,  
 M. A. Watson,  J. Wenzel,  M. de Wergifosse,  T. A. Wesolowski,  A. White,  
 J. Witte,  A. Yamada,  Jun Yang,  K. Yao,  S. Yeganeh,  S. R. Yost,  
 Zhi-Qiang You,  A. Zech,  Igor Ying Zhang,  Xing Zhang,  Yan Zhao,  
 Ying Zhu,  B. R. Brooks,  G. K. L. Chan,  C. J. Cramer,  M. S. Gordon,  
 W. J. Hehre,  A. Klamt,  M. W. Schmidt,  C. D. Sherrill,  D. G. Truhlar,  
 A. Aspuru-Guzik,  R. Baer,  A. T. Bell,  N. A. Besley,  Jeng-Da Chai,  
 A. E. DePrince, III,  R. A. DiStasio Jr.,  A. Dreuw,  B. D. Dunietz,  
 T. R. Furlani,  Chao-Ping Hsu,  Yousung Jung,  Jing Kong,  D. S. Lambrecht,  
 WanZhen Liang,  C. Ochsenfeld,  V. A. Rassolov,  L. V. Slipchenko,  
 J. E. Subotnik,  T. Van Voorhis,  J. M. Herbert,  A. I. Krylov,  
 P. M. W. Gill,  M. Head-Gordon

 Contributors to earlier versions of Q-Chem not listed above: 
 R. D. Adamson,  B. Austin,  J. Baker,  G. J. O. Beran,  K. Brandhorst,  
 S. T. Brown,  E. F. C. Byrd,  A. K. Chakraborty,  C.-L. Cheng,  
 Siu Hung Chien,  D. M. Chipman,  D. L. Crittenden,  H. Dachsel,  
 R. J. Doerksen,  A. D. Dutoi,  L. Fusti-Molnar,  W. A. Goddard III,  
 A. Golubeva-Zadorozhnaya,  S. R. Gwaltney,  G. Hawkins,  A. Heyden,  
 S. Hirata,  G. Kedziora,  F. J. Keil,  C. Kelley,  Jihan Kim,  R. A. King,  
 R. Z. Khaliullin,  P. P. Korambath,  W. Kurlancheek,  A. M. Lee,  M. S. Lee,  
 S. V. Levchenko,  Ching Yeh Lin,  D. Liotard,  R. C. Lochan,  I. Lotan,  
 P. E. Maslen,  N. Nair,  D. P. O'Neill,  D. Neuhauser,  E. Neuscamman,  
 C. M. Oana,  R. Olson,  B. Peters,  R. Peverati,  P. A. Pieniazek,  
 Y. M. Rhee,  J. Ritchie,  M. A. Rohrdanz,  E. Rosta,  N. J. Russ,  
 H. F. Schaefer III,  N. E. Schultz,  N. Shenvi,  A. C. Simmonett,  A. Sodt,  
 D. Stuck,  K. S. Thanthiriwatte,  V. Vanovschi,  Tao Wang,  A. Warshel,  
 C. F. Williams,  Q. Wu,  X. Xu,  W. Zhang

 Please cite Q-Chem as follows:
 Y. Shao et al., Mol. Phys. 113, 184-215 (2015)
 DOI: 10.1080/00268976.2014.952696

 Q-Chem 5.2.1 for Intel X86 EM64T Linux

 Parts of Q-Chem use Armadillo 8.300.2 (Tropical Shenanigans).
 http://arma.sourceforge.net/

 Q-Chem begins on Mon May 10 10:39:28 2021  

compute-0-12.local
Host: 0

     Scratch files written to /home/meili/scratch/qchem28997//Frg2//
NAlpha2: 40
NElect   40
Mult     1

Checking the input file for inconsistencies... 	...done.

--------------------------------------------------------------
User input:
--------------------------------------------------------------
$molecule
0 1
 6	14.1510000000	30.0780000000	25.0650000000
 1	13.1750000000	30.1840000000	25.5880000000
 6	14.0550000000	28.8800000000	24.0170000000
 8	15.0140000000	28.1870000000	23.6910000000
 7	12.9190000000	28.8070000000	23.3120000000
 1	12.1990000000	29.4320000000	23.5950000000
 6	12.5860000000	27.8320000000	22.2300000000
 1	12.8530000000	26.8590000000	22.6190000000
 1	14.3820000000	30.9870000000	24.5500000000
 1	14.9210000000	29.8720000000	25.7780000000
 1	11.5410000000	27.8690000000	22.0040000000
 1	13.1120000000	28.0530000000	21.3250000000
$end
$rem
EDA2		1
METHOD		WB97X-V
BASIS		DEF2-TZVPD
XC_GRID		000099000590
NL_GRID		1
UNRESTRICTED		FALSE
MAX_SCF_CYCLES		200
SYMMETRY		FALSE
SYM_IGNORE		TRUE
BASIS_LIN_DEP_THRESH		6
THRESH		14
SCF_CONVERGENCE		8
SCF_PRINT_FRGM		TRUE
!required keywords
JOBTYPE		SP
SYM_IGNORE		TRUE
SUBSYSTEM		TRUE
GEN_SCFMAN		TRUE
CHILD_INSTRUCTION		2
SYM_IGNORE		TRUE
SCFMI		0
RI_K 0		
PARI_K 0		
MIN_PARI_K 0		
IARI_K 0		
OCC_RI_K 0		
PURECART		1111
MEM_STATIC		2000
MEM_TOTAL		2000
GUI		0
CHILD_MP		1
CHILD_MP_ORDERS		232
FRZ_RELAX		0
FRZ_RELAX_METHOD		0
EDA_CLS_ELEC		1
EDA_CLS_DISP		0
FRZ_ORTHO_DECOMP		1
EDA2		FALSE
FRGM_METHOD		FALSE
CIS_N_ROOTS  0
LOCAL_CIS    0
CIS_RLX_DNS  1
$end
--------------------------------------------------------------
 ----------------------------------------------------------------
             Standard Nuclear Orientation (Angstroms)
    I     Atom           X                Y                Z
 ----------------------------------------------------------------
    1      C      14.1510000000    30.0780000000    25.0650000000
    2      H      13.1750000000    30.1840000000    25.5880000000
    3      C      14.0550000000    28.8800000000    24.0170000000
    4      O      15.0140000000    28.1870000000    23.6910000000
    5      N      12.9190000000    28.8070000000    23.3120000000
    6      H      12.1990000000    29.4320000000    23.5950000000
    7      C      12.5860000000    27.8320000000    22.2300000000
    8      H      12.8530000000    26.8590000000    22.6190000000
    9      H      14.3820000000    30.9870000000    24.5500000000
   10      H      14.9210000000    29.8720000000    25.7780000000
   11      H      11.5410000000    27.8690000000    22.0040000000
   12      H      13.1120000000    28.0530000000    21.3250000000
 ----------------------------------------------------------------
 Nuclear Repulsion Energy =         178.05127230 hartrees
 There are       20 alpha and       20 beta electrons
 Requested basis set is def2-TZVPD
 There are 101 shells and 251 basis functions

 Total QAlloc Memory Limit   2000 MB
 Mega-Array Size      1956 MB
 MEM_STATIC part      2000 MB

                       Distance Matrix (Angstroms)
             C (  1)   H (  2)   C (  3)   O (  4)   N (  5)   H (  6)
   H (  2)  1.112358
   C (  3)  1.594592  2.223254
   O (  4)  2.491691  3.311878  1.227276
   N (  5)  2.491239  2.672422  1.338973  2.217446
   H (  6)  2.527552  2.343102  1.981798  3.079524  0.994542
   C (  7)  3.940935  4.141858  2.539613  2.855824  1.494068  2.138456
   H (  8)  4.246137  4.469258  2.735626  2.753668  2.068649  2.828537
   H (  9)  1.069985  1.783004  2.197832  2.996215  2.902656  2.845266
   H ( 10)  1.069441  1.783805  2.198895  2.683923  3.350132  3.516870
   H ( 11)  4.589281  4.568833  3.375572  3.874122  2.118866  2.325342
   H ( 12)  4.378098  4.766372  2.969856  3.038670  2.133995  2.808578
             C (  7)   H (  8)   H (  9)   H ( 10)   H ( 11)
   H (  8)  1.081360
   H (  9)  4.308369  4.806973
   H ( 10)  4.711914  4.830536  1.744056
   H ( 11)  1.069799  1.766258  4.926999  5.447888
   H ( 12)  1.069833  1.779650  4.541132  5.139110  1.721319

 A cutoff of  1.0D-14 yielded   5017 shell pairs
 There are     31569 function pairs (     39714 Cartesian)
 Smallest overlap matrix eigenvalue = 1.10E-05

 Scale SEOQF with 1.000000e-02/1.000000e-03/1.000000e-03

 Standard Electronic Orientation quadrupole field applied
 Nucleus-field energy     =     0.0000000266 hartrees
 Guess from superposition of atomic densities
 Warning:  Energy on first SCF cycle will be non-variational
 SAD guess density has 40.000000 electrons

 -----------------------------------------------------------------------
  General SCF calculation program by
  Eric Jon Sundstrom, Paul Horn, Yuezhi Mao, Dmitri Zuev, Alec White,
  David Stuck, Shaama M.S., Shane Yost, Joonho Lee, David Small,
  Daniel Levine, Susi Lehtola, Hugh Burton, Evgeny Epifanovsky,
  Bang C. Huynh
 -----------------------------------------------------------------------
 Exchange:     0.1670 Hartree-Fock + 1.0000 wB97X-V + LR-HF
 Correlation:  1.0000 wB97X-V
 Using Euler-Maclaurin-Lebedev (99,590) quadrature formula
 Nonlocal Correlation:  VV10 with C = 0.0100 and b = 6.00 and scale = 1.00000
 Grid used for NLC:  SG-1 standard quadrature
Energy prior to optimization (guess energy) = -248.417077625686
Begin Timing: Total SCF Calculation
begin iterations for algorithm: DIIS         
the SCF tolerance is set to 1.00e-08
    1    -248.4170776257      4.25e-03     00000 
    2    -248.3518200228      5.85e-03     00000 
    3    -248.5351429494      4.99e-04     00000 
    4    -248.5366367052      2.30e-04     00000 
    5    -248.5369879252      5.38e-05     00000 
    6    -248.5370150198      1.98e-05     00000 
    7    -248.5370200150      5.54e-06     00000 
    8    -248.5370206835      1.86e-06     00000 
    9    -248.5370207354      6.62e-07     00000 
   10    -248.5370207409      1.22e-07     00000 
   11    -248.5370207412      3.09e-08     00000 
   12    -248.5370207412      1.21e-08     00000 
   13    -248.5370207412      2.46e-09     00000 Convergence criterion met
Timing for Total SCF: 291.00s (wall), 1566.42s (cpu)
Multipole orders to be included
        2
        3
computing dipole RHS
computing quadrupole RHS
total number of RHS in solve_reponses: 8
RHS batch sizes
        8
Beginning Block Conjugate Gradient Iterations. Batch Number: 0
computing hessian-vector products by finite difference
              1      4.93e-01     00000 Conjugate Gradient Iteration
computing hessian-vector products by finite difference
              2      1.68e-01     00000 Conjugate Gradient Iteration
computing hessian-vector products by finite difference
              3      4.38e-02     00000 Conjugate Gradient Iteration
computing hessian-vector products by finite difference
              4      1.08e-02     00000 Conjugate Gradient Iteration
computing hessian-vector products by finite difference
              5      1.95e-03     00000 Conjugate Gradient Iteration
computing hessian-vector products by finite difference
              6      3.89e-04     00000 Conjugate Gradient Iteration
computing hessian-vector products by finite difference
              7      5.51e-05     00000 Conjugate Gradient Iteration
computing hessian-vector products by finite difference
              8      9.64e-06     00000 Conjugate Gradient Iteration
computing hessian-vector products by finite difference
              9      1.82e-06     00000 Conjugate Gradient Iteration
computing hessian-vector products by finite difference
             10      2.96e-07     00000 Conjugate Gradient Iteration
computing hessian-vector products by finite difference
             11      4.30e-08     00000 Conjugate Gradient Iteration
computing hessian-vector products by finite difference
             12      5.70e-09     00000 CG Converged
batch 0 complete
Done Calculating Responses
TESTING ORTHOGONALIZATION OF MULTIPOLE BASIS
Multipole virts passed orthogonality test
Virts Per Order
           60
          100

 --------------------------------------------------------------

                    Orbital Energies (a.u.)
 --------------------------------------------------------------

 Alpha MOs
 -- Occupied --
-19.1658 -14.4351 -10.3706 -10.3044 -10.2781  -1.1594  -1.0479  -0.8784
 -0.8260  -0.6990  -0.6213  -0.5788  -0.5700  -0.5390  -0.5211  -0.5091
 -0.4925  -0.4695  -0.3591  -0.3517
 -- Virtual --
  0.0545   0.0768   0.0938   0.1067   0.1082   0.1227   0.1348   0.1403
  0.1530   0.1636   0.1649   0.1800   0.1867   0.1973   0.2069   0.2203
  0.2350   0.2399   0.2521   0.2679   0.2708   0.2784   0.2877   0.2890
  0.3014   0.3095   0.3143   0.3285   0.3411   0.3501   0.3539   0.3576
  0.3681   0.3724   0.3817   0.3862   0.3898   0.3941   0.4053   0.4150
  0.4251   0.4327   0.4478   0.4527   0.4593   0.4690   0.4756   0.4829
  0.4856   0.4982   0.5048   0.5135   0.5255   0.5312   0.5378   0.5508
  0.5518   0.5783   0.5952   0.6122   0.6257   0.6456   0.6507   0.6714
  0.6762   0.7007   0.7043   0.7207   0.7302   0.7393   0.7547   0.7613
  0.7798   0.7816   0.7937   0.8042   0.8211   0.8233   0.8434   0.8455
  0.8575   0.8669   0.8814   0.8977   0.9420   0.9485   0.9845   1.0104
  1.0412   1.0455   1.0556   1.0797   1.1129   1.1309   1.1594   1.1744
  1.2250   1.2365   1.2622   1.2965   1.3069   1.3313   1.3547   1.3737
  1.3935   1.4352   1.5138   1.5261   1.6152   1.6811   1.7239   1.7317
  1.7754   1.8123   1.8308   1.8534   1.8727   1.8830   1.9089   1.9251
  1.9424   1.9502   1.9919   2.0056   2.0157   2.0507   2.0887   2.1293
  2.1405   2.1659   2.2029   2.2551   2.2847   2.3310   2.3362   2.3588
  2.3971   2.4070   2.4480   2.4683   2.5191   2.5506   2.5796   2.6048
  2.6123   2.6305   2.6445   2.7101   2.7458   2.8067   2.8187   2.8298
  2.8363   2.8718   2.9083   2.9288   2.9455   3.0430   3.0436   3.1185
  3.1337   3.1648   3.1907   3.2296   3.2687   3.2917   3.3149   3.3345
  3.3544   3.3620   3.3861   3.4284   3.4391   3.4606   3.4749   3.4990
  3.5358   3.5729   3.5874   3.6236   3.6391   3.6602   3.6852   3.7307
  3.8084   3.8685   3.8927   3.9665   3.9953   4.0339   4.0997   4.1575
  4.2403   4.3484   4.3608   4.4977   4.5161   4.5855   4.6410   4.6773
  4.7220   4.8024   4.9098   4.9719   4.9739   5.1719   5.2019   5.2439
  5.3297   5.3998   5.4358   5.4851   5.6284   5.6775   5.7249   5.7949
  5.9865   6.1352   6.2758   6.5312   6.6782   6.7449   6.8343   7.0090
  7.2502   7.3534  22.5612  22.6773  23.5349  32.6792  44.3405
 --------------------------------------------------------------

          Ground-State Mulliken Net Atomic Charges

     Atom                 Charge (a.u.)
  ----------------------------------------
      1 C                    -0.707573
      2 H                     0.237655
      3 C                     0.468085
      4 O                    -0.531677
      5 N                    -0.076177
      6 H                     0.189827
      7 C                    -0.663968
      8 H                     0.218832
      9 H                     0.199085
     10 H                     0.196185
     11 H                     0.258849
     12 H                     0.210877
  ----------------------------------------
  Sum of atomic charges =     0.000000

 -----------------------------------------------------------------
                    Cartesian Multipole Moments
 -----------------------------------------------------------------
    Charge (ESU x 10^10)
                -0.0000
    Dipole Moment (Debye)
         X      -3.7120      Y       1.7328      Z      -0.0013
       Tot       4.0965
    Quadrupole Moments (Debye-Ang)
        XX    -134.4582     XY     -80.5485     YY      69.4611
        XZ     -85.9881     YZ      42.9719     ZZ     -28.5732
    Octopole Moments (Debye-Ang^2)
       XXX   -3446.3281    XXY   -3470.5187    XYY   -1977.5506
       YYY    1691.1154    XXZ   -3132.1073    XYZ   -1826.2644
       YYZ    1757.7296    XZZ   -2381.5172    YZZ     241.6046
       ZZZ   -2028.0744
    Hexadecapole Moments (Debye-Ang^3)
      XXXX  -75820.4675   XXXY  -93143.0304   XXYY  -94166.4064
      XYYY  -59100.4608   YYYY   14528.5281   XXXZ  -80610.3113
      XXYZ  -80366.9368   XYYZ  -43758.1495   YYYZ   44867.1603
      XXZZ  -78359.7142   XYZZ  -52588.9032   YYZZ   20532.3051
      XZZZ  -73879.8225   YZZZ  -32200.8862   ZZZZ  -96267.9697
 -----------------------------------------------------------------
Archival summary:
1\1\compute-0-12.local\SP\ProcedureUnspecified\BasisUnspecified\1137\meili\MonMay1012:05:302021MonMay1012:05:302021\0\\#,ProcedureUnspecified,BasisUnspecified,\\0,1\N\H,1,0.994542\C,1,1.33897,2,115.475\O,3,1.22728,1,119.492,2,-176.572,0\C,1,1.49407,2,117.053,3,175.586,0\H,5,1.0698,1,110.373,2,-7.80988,0\H,5,1.06983,1,111.606,2,111.195,0\H,5,1.08136,1,105.762,2,-127.208,0\C,3,1.59459,1,115.981,2,-7.81772,0\H,9,1.06944,3,109.682,1,161.751,0\H,9,1.06998,3,109.568,1,-78.376,0\H,9,1.11236,3,109.134,1,41.5834,0\\\@

 Total job time:  5161.59s(wall), 27549.39s(cpu) 
 Mon May 10 12:05:30 2021

        *************************************************************
        *                                                           *
        *  Thank you very much for using Q-Chem.  Have a nice day.  *
        *                                                           *
        *************************************************************


Done Job For Fragment 1
calling putenv with: QCSCRATCH=/home/meili/scratch 
calling putenv with: QCTHREADS=8 
Doing General SCFMI
 Exchange:     0.1670 Hartree-Fock + 1.0000 wB97X-V + LR-HF
 Correlation:  1.0000 wB97X-V
 Using Euler-Maclaurin-Lebedev (99,590) quadrature formula
 Nonlocal Correlation:  VV10 with C = 0.0100 and b = 6.00 and scale = 1.00000
 Grid used for NLC:  SG-1 standard quadrature
performing fock build before subrot guess so that all methods have access
Printing subrot_rss_gen Method Specification:
Occupied Subspace Method is 0
Virtual Subspace Method is 0
Energy of the unrelaxed supersystem initial determinant -497.072059674772
write pseudocanon occs and virts to disk
write pseudocanon orbital energies to disk
Tolerance of ortho_decomp_scf: 1.00e-06
GDM subspace size: 20
Beginning the Orthogonal Decomposition of the Initial Supersystem Wavefunction
    1    -497.0519421948      2.22e-02     ortho_decomp Preconditoned Steepest Descent
    2    -497.0534292436      5.90e-04     ortho_decomp BFGS Step
    3    -497.0534337647      3.54e-05     ortho_decomp BFGS Step
    4    -497.0534337702      1.42e-06     ortho_decomp BFGS Step
    5    -497.0534337702      5.53e-08     ortho_decomp 00000 Convergence criterion met
 Hartree-Fock
 Hartree-Fock
 Hartree-Fock
Doing General SCFMI
 Exchange:     0.1670 Hartree-Fock + 1.0000 wB97X-V + LR-HF
 Correlation:  1.0000 wB97X-V
 Using Euler-Maclaurin-Lebedev (99,590) quadrature formula
 Nonlocal Correlation:  VV10 with C = 0.0100 and b = 6.00 and scale = 1.00000
 Grid used for NLC:  SG-1 standard quadrature
performing fock build at end of subrot_r(subrot) constructor so that all methods have access
<S^2> of initial wavefunction before polarization iterations 0.0000000000
Beginning iterations for the determination of the polarized wavefunction
Energy prior to optimization (guess energy) = -497.072059674771
Begin Timing: Total SCF Calculation
begin iterations for algorithm: DIIS         
the SCF tolerance is set to 1.00e-08
    1    -497.0720596748      9.94e-05     00000 
    2    -497.0727586095      4.34e-05     00000 
    3    -497.0728250797      1.99e-05     00000 
    4    -497.0728419502      8.00e-06     00000 
    5    -497.0728448115      3.17e-06     00000 
    6    -497.0728454507      1.93e-06     00000 
    7    -497.0728456301      8.28e-07     00000 
    8    -497.0728456699      3.10e-07     00000 
    9    -497.0728456752      1.32e-07     00000 
   10    -497.0728456759      5.55e-08     00000 
   11    -497.0728456760      3.53e-08     00000 
   12    -497.0728456761      1.53e-08     00000 
   13    -497.0728456761      5.08e-09     00000 Convergence criterion met
write pseudocanon occs and virts to disk
write pseudocanon orbital energies to disk
Timing for Total SCF: 1954.00s (wall), 11459.10s (cpu)
<S^2> of polarized wavefunction after polarization iterations 0.0000000000
relaxing scfmi constraint to allow all rotations in the entire AO span
Doing General SCFMI
 Exchange:     0.1670 Hartree-Fock + 1.0000 wB97X-V + LR-HF
 Correlation:  1.0000 wB97X-V
 Using Euler-Maclaurin-Lebedev (99,590) quadrature formula
 Nonlocal Correlation:  VV10 with C = 0.0100 and b = 6.00 and scale = 1.00000
 Grid used for NLC:  SG-1 standard quadrature
performing fock build at end of subrot_r(subrot) constructor so that all methods have access
<S^2> of polarized wavefunction before ct-allowed iterations 0.0000000000
Beginning iterations for the determination of the CT-Allowed wavefunction
Energy prior to optimization (guess energy) = -497.072845676058
Begin Timing: Total SCF Calculation
begin iterations for algorithm: DIIS         
the SCF tolerance is set to 1.00e-08
    1    -497.0728456761      8.84e-05     00000 
    2    -497.0737882883      9.37e-06     00000 
    3    -497.0738150705      1.42e-06     00000 
    4    -497.0738157575      6.86e-07     00000 
    5    -497.0738158012      2.52e-07     00000 
    6    -497.0738158079      9.86e-08     00000 
    7    -497.0738158090      1.71e-08     00000 
    8    -497.0738158091      7.66e-09     00000 Convergence criterion met
write pseudocanon occs and virts to disk
write pseudocanon orbital energies to disk
Timing for Total SCF: 682.00s (wall), 5273.31s (cpu)
<S^2> of ct_allowed wavefunction after ct-allowed iterations 0.0000000000

================================
        Results of EDA2         
================================
Basic EDA Quantities
--------------------
Fragment Energies (Ha):
1 -248.5319111401
2 -248.5370207412
--------------------
  E_prp (kJ/mol) = 0.0000
  E_frz (kJ/mol) = -8.2121
  E_pol (kJ/mol) = -2.0637
  E_vct (kJ/mol) = -2.5471
  E_int (kJ/mol) = -12.8229
--------------------


Initial Wavefunction Decomposition
--------------------
  --------------------
  Orthogonal Fragment Subspace Decomposition:
  --------------------
     E_elec   (ELEC)   (kJ/mol) = -21.1115
     E_pauli  (PAULI)  (kJ/mol) = 31.2527
     E_disp   (DISP)   (kJ/mol) = -18.3533
     --------------------
     Terms summing to E_pauli:
     --------------------
        E_kep_pauli       (kJ/mol) = 40.6908
        E_disp_free_pauli (kJ/mol) = -9.4381
  --------------------
  Classical Frozen Decomposition:
  --------------------
     E_cls_elec  (CLS ELEC)  (kJ/mol) = -7.5355
     E_cls_pauli (CLS PAULI) (kJ/mol) = -0.6766
    [E_mod_pauli (MOD PAULI) (kJ/mol) = 17.6766 (CLS PAULI - DISP from orthogonal decomposition) ]
  --------------------
--------------------

Simplified EDA Summary (kJ/mol)
--------------------
 PREPARATION     0.0000
 FROZEN          10.1412      (does not include dispersion)
[PAULI           31.2527]     (if this is negligible, then frozen describes electrostatics)
 DISPERSION      -18.3533
 POLARIZATION    -2.0637
 CHARGE TRANSFER -2.5471
 TOTAL           -12.8229     (PRP + FRZ + DISP + POL + CT)
--------------------

 --------------------------------------------------------------

                    Orbital Energies (a.u.)
 --------------------------------------------------------------

 Alpha MOs
 -- Occupied --
-19.1744 -19.1608 -14.4406 -14.4374 -10.3785 -10.3709 -10.3059 -10.2985
-10.2885 -10.2850  -1.1675  -1.1570  -1.0538  -1.0480  -0.8938  -0.8857
 -0.8332  -0.8312  -0.7109  -0.7044  -0.6299  -0.6270  -0.5951  -0.5816
 -0.5785  -0.5723  -0.5499  -0.5408  -0.5312  -0.5238  -0.5194  -0.5154
 -0.4989  -0.4873  -0.4781  -0.4656  -0.3670  -0.3608  -0.3573  -0.3493
 -- Virtual --
  0.0457   0.0673   0.0722   0.0745   0.0921   0.0942   0.0984   0.1035
  0.1067   0.1119   0.1199   0.1358   0.1394   0.1397   0.1449   0.1491
  0.1532   0.1568   0.1587   0.1675   0.1777   0.1834   0.1908   0.1939
  0.2026   0.2068   0.2169   0.2229   0.2264   0.2323   0.2431   0.2486
  0.2521   0.2566   0.2592   0.2621   0.2659   0.2686   0.2772   0.2813
  0.2844   0.2934   0.2961   0.3054   0.3102   0.3119   0.3168   0.3200
  0.3284   0.3311   0.3370   0.3402   0.3484   0.3506   0.3525   0.3562
  0.3617   0.3631   0.3639   0.3666   0.3737   0.3751   0.3819   0.3842
  0.3910   0.3929   0.3945   0.4013   0.4039   0.4077   0.4157   0.4218
  0.4279   0.4328   0.4342   0.4455   0.4473   0.4498   0.4540   0.4598
  0.4673   0.4715   0.4736   0.4820   0.4849   0.4883   0.4935   0.4967
  0.4990   0.5016   0.5097   0.5157   0.5185   0.5241   0.5279   0.5312
  0.5351   0.5376   0.5487   0.5516   0.5574   0.5636   0.5668   0.5759
  0.5789   0.5855   0.5922   0.5991   0.6044   0.6128   0.6186   0.6320
  0.6362   0.6418   0.6474   0.6556   0.6577   0.6668   0.6690   0.6765
  0.6815   0.6841   0.6944   0.7043   0.7122   0.7182   0.7217   0.7245
  0.7312   0.7377   0.7410   0.7451   0.7502   0.7618   0.7669   0.7739
  0.7761   0.7817   0.7866   0.7900   0.7976   0.8048   0.8093   0.8157
  0.8195   0.8227   0.8251   0.8391   0.8430   0.8485   0.8503   0.8659
  0.8693   0.8747   0.8848   0.8883   0.8940   0.9045   0.9140   0.9179
  0.9214   0.9283   0.9405   0.9472   0.9641   0.9738   0.9867   0.9945
  1.0007   1.0052   1.0225   1.0352   1.0532   1.0635   1.0654   1.0713
  1.0827   1.0930   1.0959   1.1054   1.1149   1.1302   1.1351   1.1496
  1.1591   1.1785   1.1839   1.1924   1.2069   1.2295   1.2436   1.2450
  1.2732   1.2773   1.2861   1.3101   1.3304   1.3328   1.3398   1.3562
  1.3707   1.3786   1.3811   1.3857   1.3992   1.4155   1.4295   1.4487
  1.4639   1.4749   1.4855   1.4973   1.5305   1.5451   1.5931   1.6311
  1.6419   1.6602   1.6997   1.7314   1.7674   1.7857   1.7894   1.8067
  1.8121   1.8302   1.8502   1.8609   1.8820   1.8876   1.8980   1.9107
  1.9179   1.9293   1.9364   1.9461   1.9472   1.9568   1.9636   1.9690
  1.9804   1.9827   1.9904   2.0016   2.0173   2.0237   2.0407   2.0624
  2.0721   2.0975   2.1069   2.1219   2.1444   2.1499   2.1535   2.1748
  2.1961   2.2185   2.2273   2.2346   2.2494   2.2551   2.2618   2.3082
  2.3325   2.3339   2.3533   2.3646   2.3742   2.3957   2.4087   2.4219
  2.4323   2.4430   2.4670   2.4819   2.4873   2.4971   2.5255   2.5319
  2.5580   2.5709   2.5744   2.5972   2.6260   2.6353   2.6462   2.6542
  2.6627   2.6859   2.6895   2.7081   2.7258   2.7346   2.7369   2.7784
  2.7981   2.8142   2.8351   2.8408   2.8514   2.8592   2.8755   2.8767
  2.8939   2.9090   2.9142   2.9364   2.9474   2.9546   2.9720   2.9798
  2.9977   3.0126   3.0789   3.1055   3.1243   3.1338   3.1514   3.1620
  3.1851   3.2083   3.2108   3.2223   3.2352   3.2394   3.2778   3.2923
  3.2951   3.3124   3.3265   3.3284   3.3499   3.3551   3.3596   3.3792
  3.3852   3.3975   3.4003   3.4138   3.4209   3.4482   3.4499   3.4557
  3.4689   3.4777   3.4877   3.5001   3.5075   3.5199   3.5270   3.5381
  3.5606   3.5727   3.5978   3.6124   3.6369   3.6484   3.6559   3.6632
  3.6762   3.6888   3.7013   3.7196   3.7261   3.7610   3.7620   3.7773
  3.8359   3.8543   3.8869   3.9083   3.9122   3.9351   3.9801   3.9952
  4.0214   4.0343   4.0519   4.0589   4.1201   4.1347   4.1757   4.1824
  4.2426   4.2682   4.3334   4.3609   4.3976   4.4724   4.5221   4.5382
  4.5461   4.5967   4.6078   4.6570   4.6595   4.6888   4.6952   4.7327
  4.7540   4.7918   4.8159   4.8596   4.9274   4.9807   4.9876   5.0056
  5.0170   5.0357   5.1910   5.1996   5.2241   5.2590   5.2653   5.2861
  5.3327   5.3947   5.4092   5.4422   5.4447   5.4540   5.5096   5.5534
  5.6386   5.6666   5.6930   5.7151   5.7429   5.7482   5.7667   5.7960
  5.9917   5.9994   6.1580   6.1752   6.2226   6.2794   6.4917   6.5334
  6.6941   6.7096   6.7439   6.7477   6.8345   6.8424   7.0320   7.0334
  7.2527   7.2725   7.3593   7.3627  22.6173  22.6563  22.7128  22.7482
 23.5610  23.5807  32.7279  32.7484  44.4346  44.4580
 --------------------------------------------------------------

          Ground-State Mulliken Net Atomic Charges

     Atom                 Charge (a.u.)
  ----------------------------------------
      1 C                    -0.356073
      2 H                    -0.175420
      3 C                     0.496691
      4 O                    -0.586493
      5 N                    -0.001603
      6 H                     0.147492
      7 C                    -0.736219
      8 H                     0.272562
      9 H                     0.218585
     10 H                     0.195089
     11 H                     0.274668
     12 H                     0.211718
     13 C                    -0.643695
     14 H                     0.128138
     15 C                     0.458356
     16 O                    -0.550459
     17 N                    -0.000128
     18 H                     0.209141
     19 C                    -0.662858
     20 H                     0.191765
     21 H                     0.238836
     22 H                     0.182200
     23 H                     0.278126
     24 H                     0.209580
  ----------------------------------------
  Sum of atomic charges =     0.000000

 -----------------------------------------------------------------
                    Cartesian Multipole Moments
 -----------------------------------------------------------------
    Charge (ESU x 10^10)
                -0.0000
    Dipole Moment (Debye)
         X       0.1338      Y       2.6885      Z       1.1597
       Tot       2.9310
    Quadrupole Moments (Debye-Ang)
        XX     -80.6583     XY      29.8936     YY      93.3089
        XZ      24.9880     YZ      99.4951     ZZ       1.4468
    Octopole Moments (Debye-Ang^2)
       XXX   -3080.1060    XXY   -1980.4968    XYY     873.6420
       YYY    1550.1336    XXZ   -1627.3084    XYZ    1346.1327
       YYZ    3243.3653    XZZ     447.7440    YZZ    1723.3388
       ZZZ   -2034.2030
    Hexadecapole Moments (Debye-Ang^3)
      XXXX  -78491.0493   XXXY  -83090.0234   XXYY  -56445.5396
      XYYY    6252.5776   YYYY  -30088.9477   XXXZ  -70025.4685
      XXYZ  -38726.0425   XYYZ   38627.3242   YYYZ   64838.4396
      XXZZ  -40373.1570   XYZZ   28600.9919   YYZZ   59908.6020
      XZZZ  -10581.0505   YZZZ  -14321.6437   ZZZZ -137102.7504
 -----------------------------------------------------------------
Archival summary:
1\1\compute-0-12.local\SP\ProcedureUnspecified\BasisUnspecified\22614\meili\MonMay1013:29:372021MonMay1013:29:372021\0\\#,ProcedureUnspecified,BasisUnspecified,\\0,1\N\H,1,0.974332\C,1,1.31456,2,117.747\O,3,1.25419,1,115.639,2,-175.609,0\C,1,1.49288,2,118.106,3,-173.139,0\H,5,1.05956,1,105.073,2,-141.957,0\H,5,1.06998,1,112.006,2,96.1717,0\H,5,1.07034,1,110.568,2,-22.6446,0\C,3,1.55078,1,119.76,2,-2.59754,0\H,9,1.06987,3,111.184,1,-86.7016,0\H,9,1.07029,3,113.465,1,154.919,0\H,9,1.0851,3,102.541,1,32.1655,0\H,12,2.02107,9,162.243,3,107.735,0\C,13,1.11236,12,138.67,9,-122.908,0\H,14,1.06944,13,109.672,12,-80.0717,0\H,14,1.06998,13,109.559,12,160.067,0\C,14,1.59459,13,109.134,12,40.102,0\O,17,1.22728,14,123.488,13,-150.16,0\N,17,1.33897,14,115.981,13,41.5834,0\H,19,0.994542,17,115.475,14,-7.81772,0\C,19,1.49407,17,127.299,14,177.126,0\H,21,1.0698,19,110.373,17,167.179,0\H,21,1.06983,19,111.606,17,-73.8163,0\H,21,1.08136,19,105.762,17,47.7806,0\\\@

 Total job time:  15624.24s(wall), 30937.23s(cpu) 
 Mon May 10 13:29:37 2021

        *************************************************************
        *                                                           *
        *  Thank you very much for using Q-Chem.  Have a nice day.  *
        *                                                           *
        *************************************************************


