                  Welcome to Q-Chem
     A Quantum Leap Into The Future Of Chemistry


 Q-Chem 5.2 (devel), Q-Chem, Inc., Pleasanton, CA (2019)

 Yihan Shao,  Zhengting Gan,  E. Epifanovsky,  A. T. B. Gilbert,  M. Wormit,  
 J. Kussmann,  A. W. Lange,  A. Behn,  Jia Deng,  Xintian Feng,  D. Ghosh,  
 M. Goldey,  P. R. Horn,  L. D. Jacobson,  I. Kaliman,  T. Kus,  A. Landau,  
 Jie Liu,  E. I. Proynov,  R. M. Richard,  R. P. Steele,  E. J. Sundstrom,  
 H. L. Woodcock III,  P. M. Zimmerman,  D. Zuev,  B. Albrecht,  E. Alguire,  
 S. A. Baeppler,  D. Barton,  Z. Benda,  Y. A. Bernard,  E. J. Berquist,  
 K. B. Bravaya,  H. Burton,  D. Casanova,  Chun-Min Chang,  Yunqing Chen,  
 A. Chien,  K. D. Closser,  M. P. Coons,  S. Coriani,  S. Dasgupta,  
 A. L. Dempwolff,  M. Diedenhofen,  Hainam Do,  R. G. Edgar,  Po-Tung Fang,  
 S. Faraji,  S. Fatehi,  Qingguo Feng,  K. D. Fenk,  J. Fosso-Tande,  
 J. Gayvert,  Qinghui Ge,  A. Ghysels,  G. Gidofalvi,  J. Gomes,  
 J. Gonthier,  A. Gunina,  D. Hait,  M. W. D. Hanson-Heine,  
 P. H. P. Harbach,  A. W. Hauser,  M. F. Herbst,  J. E. Herr,  
 E. G. Hohenstein,  Z. C. Holden,  Kerwin Hui,  B. C. Huynh,  T.-C. Jagau,  
 Hyunjun Ji,  B. Kaduk,  K. Khistyaev,  Jaehoon Kim,  P. Klunzinger,  K. Koh,  
 D. Kosenkov,  L. Koulias,  T. Kowalczyk,  C. M. Krauter,  A. Kunitsa,  
 Ka Un Lao,  A. Laurent,  K. V. Lawler,  Joonho Lee,  D. Lefrancois,  
 S. Lehtola,  D. S. Levine,  Yi-Pei Li,  You-Sheng Lin,  Fenglai Liu,  
 E. Livshits,  A. Luenser,  P. Manohar,  E. Mansoor,  S. F. Manzer,  
 Shan-Ping Mao,  Yuezhi Mao,  N. Mardirossian,  A. V. Marenich,  
 T. Markovich,  L. A. Martinez-Martinez,  S. A. Maurer,  N. J. Mayhall,  
 S. C. McKenzie,  J.-M. Mewes,  P. Morgante,  A. F. Morrison,  
 J. W. Mullinax,  K. Nanda,  T. S. Nguyen-Beck,  R. Olivares-Amaya,  
 J. A. Parkhill,  Zheng Pei,  T. M. Perrine,  F. Plasser,  P. Pokhilko,  
 S. Prager,  A. Prociuk,  E. Ramos,  D. R. Rehn,  F. Rob,  M. Scheurer,  
 M. Schneider,  N. Sergueev,  S. M. Sharada,  S. Sharma,  D. W. Small,  
 T. Stauch,  T. Stein,  Yu-Chuan Su,  A. J. W. Thom,  A. Tkatchenko,  
 T. Tsuchimochi,  N. M. Tubman,  L. Vogt,  M. L. Vidal,  O. Vydrov,  
 M. A. Watson,  J. Wenzel,  M. de Wergifosse,  T. A. Wesolowski,  A. White,  
 J. Witte,  A. Yamada,  Jun Yang,  K. Yao,  S. Yeganeh,  S. R. Yost,  
 Zhi-Qiang You,  A. Zech,  Igor Ying Zhang,  Xing Zhang,  Yan Zhao,  
 Ying Zhu,  B. R. Brooks,  G. K. L. Chan,  C. J. Cramer,  M. S. Gordon,  
 W. J. Hehre,  A. Klamt,  M. W. Schmidt,  C. D. Sherrill,  D. G. Truhlar,  
 A. Aspuru-Guzik,  R. Baer,  A. T. Bell,  N. A. Besley,  Jeng-Da Chai,  
 A. E. DePrince, III,  R. A. DiStasio Jr.,  A. Dreuw,  B. D. Dunietz,  
 T. R. Furlani,  Chao-Ping Hsu,  Yousung Jung,  Jing Kong,  D. S. Lambrecht,  
 WanZhen Liang,  C. Ochsenfeld,  V. A. Rassolov,  L. V. Slipchenko,  
 J. E. Subotnik,  T. Van Voorhis,  J. M. Herbert,  A. I. Krylov,  
 P. M. W. Gill,  M. Head-Gordon

 Contributors to earlier versions of Q-Chem not listed above: 
 R. D. Adamson,  B. Austin,  J. Baker,  G. J. O. Beran,  K. Brandhorst,  
 S. T. Brown,  E. F. C. Byrd,  A. K. Chakraborty,  C.-L. Cheng,  
 Siu Hung Chien,  D. M. Chipman,  D. L. Crittenden,  H. Dachsel,  
 R. J. Doerksen,  A. D. Dutoi,  L. Fusti-Molnar,  W. A. Goddard III,  
 A. Golubeva-Zadorozhnaya,  S. R. Gwaltney,  G. Hawkins,  A. Heyden,  
 S. Hirata,  G. Kedziora,  F. J. Keil,  C. Kelley,  Jihan Kim,  R. A. King,  
 R. Z. Khaliullin,  P. P. Korambath,  W. Kurlancheek,  A. M. Lee,  M. S. Lee,  
 S. V. Levchenko,  Ching Yeh Lin,  D. Liotard,  R. C. Lochan,  I. Lotan,  
 P. E. Maslen,  N. Nair,  D. P. O'Neill,  D. Neuhauser,  E. Neuscamman,  
 C. M. Oana,  R. Olson,  B. Peters,  R. Peverati,  P. A. Pieniazek,  
 Y. M. Rhee,  J. Ritchie,  M. A. Rohrdanz,  E. Rosta,  N. J. Russ,  
 H. F. Schaefer III,  N. E. Schultz,  N. Shenvi,  A. C. Simmonett,  A. Sodt,  
 D. Stuck,  K. S. Thanthiriwatte,  V. Vanovschi,  Tao Wang,  A. Warshel,  
 C. F. Williams,  Q. Wu,  X. Xu,  W. Zhang

 Please cite Q-Chem as follows:
 Y. Shao et al., Mol. Phys. 113, 184-215 (2015)
 DOI: 10.1080/00268976.2014.952696

 Q-Chem 5.2.1 for Intel X86 EM64T Linux

 Parts of Q-Chem use Armadillo 8.300.2 (Tropical Shenanigans).
 http://arma.sourceforge.net/

 Q-Chem begins on Mon May 10 09:09:13 2021  

compute-0-13.local
Host: 0

     Scratch files written to /home/meili/scratch/qchem46070//
NAlpha2: 80
NElect   80
Mult     1

 Q-Chem warning in module libgen/rem_setup.C, line 2813:

 Neither GIA nor STOLL is specified by user. Use STOLL as the default


Checking the input file for inconsistencies... 	...done.

--------------------------------------------------------------
User input:
--------------------------------------------------------------
$comment
1vex_ff99sbtip3p_nvt_e8_100ns_m6594_005CYX_006LEU_033SER_034LEU.pdb
$end

$molecule
0 1
--
0 1
C    16.6100000000   27.0510000000   18.6880000000
H    17.6780000000   27.1890000000   18.7290000000
C    16.5050000000   25.7460000000   17.9440000000
O    15.5640000000   25.5130000000   17.1630000000
N    17.4090000000   24.8570000000   18.2120000000
H    18.1190000000   24.9840000000   18.9370000000
C    17.3350000000   23.4650000000   17.7600000000
H    16.6190000000   23.3710000000   16.9340000000
H    16.1870000000   26.9770000000   19.6680000000
H    16.0830000000   27.8600000000   18.2270000000
H    18.3020000000   23.1500000000   17.4270000000
H    17.0100000000   22.8510000000   18.5740000000
--
0 1
C    20.6160000000   27.4060000000   17.7180000000
H    19.6530000000   27.5860000000   18.1900000000
C    20.4130000000   26.4700000000   16.4740000000
O    21.0190000000   25.3890000000   16.3700000000
N    19.6290000000   26.8970000000   15.5010000000
H    18.9880000000   27.6360000000   15.7470000000
C    19.4900000000   26.2250000000   14.1800000000
H    19.2320000000   25.1350000000   14.3360000000
H    21.0390000000   28.3360000000   17.4010000000
H    21.2770000000   26.9380000000   18.4170000000
H    18.7120000000   26.6990000000   13.6190000000
H    20.4130000000   26.2990000000   13.6440000000
$end

$rem
JOBTYPE			EDA
EDA2			1
method			wB97X-V
BASIS			def2-TZVPD
XC_GRID			000099000590
NL_GRID			1
UNRESTRICTED		FALSE
MAX_SCF_CYCLES		200
SYMMETRY		FALSE
SYM_IGNORE		TRUE
MEM_STATIC		2000
BASIS_LIN_DEP_THRESH 	6
THRESH 			14
SCF_CONVERGENCE 	8
SCF_PRINT_FRGM 		TRUE
$end
--------------------------------------------------------------
 ----------------------------------------------------------------
             Standard Nuclear Orientation (Angstroms)
    I     Atom           X                Y                Z
 ----------------------------------------------------------------
    1      C      16.6100000000    27.0510000000    18.6880000000
    2      H      17.6780000000    27.1890000000    18.7290000000
    3      C      16.5050000000    25.7460000000    17.9440000000
    4      O      15.5640000000    25.5130000000    17.1630000000
    5      N      17.4090000000    24.8570000000    18.2120000000
    6      H      18.1190000000    24.9840000000    18.9370000000
    7      C      17.3350000000    23.4650000000    17.7600000000
    8      H      16.6190000000    23.3710000000    16.9340000000
    9      H      16.1870000000    26.9770000000    19.6680000000
   10      H      16.0830000000    27.8600000000    18.2270000000
   11      H      18.3020000000    23.1500000000    17.4270000000
   12      H      17.0100000000    22.8510000000    18.5740000000
   13      C      20.6160000000    27.4060000000    17.7180000000
   14      H      19.6530000000    27.5860000000    18.1900000000
   15      C      20.4130000000    26.4700000000    16.4740000000
   16      O      21.0190000000    25.3890000000    16.3700000000
   17      N      19.6290000000    26.8970000000    15.5010000000
   18      H      18.9880000000    27.6360000000    15.7470000000
   19      C      19.4900000000    26.2250000000    14.1800000000
   20      H      19.2320000000    25.1350000000    14.3360000000
   21      H      21.0390000000    28.3360000000    17.4010000000
   22      H      21.2770000000    26.9380000000    18.4170000000
   23      H      18.7120000000    26.6990000000    13.6190000000
   24      H      20.4130000000    26.2990000000    13.6440000000
 ----------------------------------------------------------------
 Nuclear Repulsion Energy =         542.61030979 hartrees
 There are       40 alpha and       40 beta electrons
 Requested basis set is def2-TZVPD
 There are 202 shells and 502 basis functions

 Total QAlloc Memory Limit   2000 MB
 Mega-Array Size      1956 MB
 MEM_STATIC part      2000 MB
 A cutoff of  1.0D-14 yielded  18412 shell pairs
 There are    114426 function pairs (    142787 Cartesian)
 Smallest overlap matrix eigenvalue = 1.71E-06

 Scale SEOQF with 1.000000e-03/1.000000e-03/1.000000e-03

 Standard Electronic Orientation quadrupole field applied
 Nucleus-field energy     =     0.0000000233 hartrees

 -----------------------------------------------------------------------
  General SCF calculation program by
  Eric Jon Sundstrom, Paul Horn, Yuezhi Mao, Dmitri Zuev, Alec White,
  David Stuck, Shaama M.S., Shane Yost, Joonho Lee, David Small,
  Daniel Levine, Susi Lehtola, Hugh Burton, Evgeny Epifanovsky,
  Bang C. Huynh
 -----------------------------------------------------------------------
================================================================
                 ALMO-EDA with the EDA2 driver                  
================================================================
 The second-generation ALMO-EDA (for DFT):                      
 P. R. Horn, Y. Mao and M. Head-Gordon, PCCP, 18, 23067 (2016)  
 Decomposition of the frozen energy:                            
 P. R. Horn, Y. Mao and M. Head-Gordon, JCP, 144, 114107 (2016) 
 FERF model for polarization:                                   
 P. R. Horn and M. Head-Gordon, JCP, 143, 114111 (2015)         
Using eda2 option set 1
Option set summary: Frozen orbital wavefunction, initial wavefunction decomposition, and nDQ polarization.
--------------------------------
Printing EDA Options
--------------------------------
eda_child_super_basis      0
fragmo_guess_mode          0
child_mp                   1
child_mp_orders            232
cls_elec                   1
cls_disp                   0
scfmi_mode                 1
scfmi_occs                 0
scfmi_virts                0
frz_relax                  0
frz_relax_method           0
dc_pen_start               0
dc_pen_conv                0
dc_pen_increment           0
dc_pen_steps               0
dc_pen_thresh_factor       0
dc_pen_pre_newton_thresh   0
frz_ortho_decomp           1
frz_ortho_decomp_conv      6
frgm_method                2
scfmi_freeze_ss            0
separate_rehyb             0
plot_diff_den              0
eda_nocv                   0
eda_vct_relax              1
disp_free_x                0
disp_free_c                0
eda_bsse                   0
eda_pct_a                  0
eda_covp                   0
--------------------------------
Attempting to make child job directory: /home/meili/scratch/qchem46070//Frg1/
Attempting to make child job directory: /home/meili/scratch/qchem46070//Frg2/
Creating input file /home/meili/scratch/qchem46070/Frg1.input
using default PutDataFrgm: nothing
calling putenv with: QCSCRATCH=/home/meili/scratch/qchem46070/ 
Spawning Job For Fragment 0
                  Welcome to Q-Chem
     A Quantum Leap Into The Future Of Chemistry


 Q-Chem 5.2 (devel), Q-Chem, Inc., Pleasanton, CA (2019)

 Yihan Shao,  Zhengting Gan,  E. Epifanovsky,  A. T. B. Gilbert,  M. Wormit,  
 J. Kussmann,  A. W. Lange,  A. Behn,  Jia Deng,  Xintian Feng,  D. Ghosh,  
 M. Goldey,  P. R. Horn,  L. D. Jacobson,  I. Kaliman,  T. Kus,  A. Landau,  
 Jie Liu,  E. I. Proynov,  R. M. Richard,  R. P. Steele,  E. J. Sundstrom,  
 H. L. Woodcock III,  P. M. Zimmerman,  D. Zuev,  B. Albrecht,  E. Alguire,  
 S. A. Baeppler,  D. Barton,  Z. Benda,  Y. A. Bernard,  E. J. Berquist,  
 K. B. Bravaya,  H. Burton,  D. Casanova,  Chun-Min Chang,  Yunqing Chen,  
 A. Chien,  K. D. Closser,  M. P. Coons,  S. Coriani,  S. Dasgupta,  
 A. L. Dempwolff,  M. Diedenhofen,  Hainam Do,  R. G. Edgar,  Po-Tung Fang,  
 S. Faraji,  S. Fatehi,  Qingguo Feng,  K. D. Fenk,  J. Fosso-Tande,  
 J. Gayvert,  Qinghui Ge,  A. Ghysels,  G. Gidofalvi,  J. Gomes,  
 J. Gonthier,  A. Gunina,  D. Hait,  M. W. D. Hanson-Heine,  
 P. H. P. Harbach,  A. W. Hauser,  M. F. Herbst,  J. E. Herr,  
 E. G. Hohenstein,  Z. C. Holden,  Kerwin Hui,  B. C. Huynh,  T.-C. Jagau,  
 Hyunjun Ji,  B. Kaduk,  K. Khistyaev,  Jaehoon Kim,  P. Klunzinger,  K. Koh,  
 D. Kosenkov,  L. Koulias,  T. Kowalczyk,  C. M. Krauter,  A. Kunitsa,  
 Ka Un Lao,  A. Laurent,  K. V. Lawler,  Joonho Lee,  D. Lefrancois,  
 S. Lehtola,  D. S. Levine,  Yi-Pei Li,  You-Sheng Lin,  Fenglai Liu,  
 E. Livshits,  A. Luenser,  P. Manohar,  E. Mansoor,  S. F. Manzer,  
 Shan-Ping Mao,  Yuezhi Mao,  N. Mardirossian,  A. V. Marenich,  
 T. Markovich,  L. A. Martinez-Martinez,  S. A. Maurer,  N. J. Mayhall,  
 S. C. McKenzie,  J.-M. Mewes,  P. Morgante,  A. F. Morrison,  
 J. W. Mullinax,  K. Nanda,  T. S. Nguyen-Beck,  R. Olivares-Amaya,  
 J. A. Parkhill,  Zheng Pei,  T. M. Perrine,  F. Plasser,  P. Pokhilko,  
 S. Prager,  A. Prociuk,  E. Ramos,  D. R. Rehn,  F. Rob,  M. Scheurer,  
 M. Schneider,  N. Sergueev,  S. M. Sharada,  S. Sharma,  D. W. Small,  
 T. Stauch,  T. Stein,  Yu-Chuan Su,  A. J. W. Thom,  A. Tkatchenko,  
 T. Tsuchimochi,  N. M. Tubman,  L. Vogt,  M. L. Vidal,  O. Vydrov,  
 M. A. Watson,  J. Wenzel,  M. de Wergifosse,  T. A. Wesolowski,  A. White,  
 J. Witte,  A. Yamada,  Jun Yang,  K. Yao,  S. Yeganeh,  S. R. Yost,  
 Zhi-Qiang You,  A. Zech,  Igor Ying Zhang,  Xing Zhang,  Yan Zhao,  
 Ying Zhu,  B. R. Brooks,  G. K. L. Chan,  C. J. Cramer,  M. S. Gordon,  
 W. J. Hehre,  A. Klamt,  M. W. Schmidt,  C. D. Sherrill,  D. G. Truhlar,  
 A. Aspuru-Guzik,  R. Baer,  A. T. Bell,  N. A. Besley,  Jeng-Da Chai,  
 A. E. DePrince, III,  R. A. DiStasio Jr.,  A. Dreuw,  B. D. Dunietz,  
 T. R. Furlani,  Chao-Ping Hsu,  Yousung Jung,  Jing Kong,  D. S. Lambrecht,  
 WanZhen Liang,  C. Ochsenfeld,  V. A. Rassolov,  L. V. Slipchenko,  
 J. E. Subotnik,  T. Van Voorhis,  J. M. Herbert,  A. I. Krylov,  
 P. M. W. Gill,  M. Head-Gordon

 Contributors to earlier versions of Q-Chem not listed above: 
 R. D. Adamson,  B. Austin,  J. Baker,  G. J. O. Beran,  K. Brandhorst,  
 S. T. Brown,  E. F. C. Byrd,  A. K. Chakraborty,  C.-L. Cheng,  
 Siu Hung Chien,  D. M. Chipman,  D. L. Crittenden,  H. Dachsel,  
 R. J. Doerksen,  A. D. Dutoi,  L. Fusti-Molnar,  W. A. Goddard III,  
 A. Golubeva-Zadorozhnaya,  S. R. Gwaltney,  G. Hawkins,  A. Heyden,  
 S. Hirata,  G. Kedziora,  F. J. Keil,  C. Kelley,  Jihan Kim,  R. A. King,  
 R. Z. Khaliullin,  P. P. Korambath,  W. Kurlancheek,  A. M. Lee,  M. S. Lee,  
 S. V. Levchenko,  Ching Yeh Lin,  D. Liotard,  R. C. Lochan,  I. Lotan,  
 P. E. Maslen,  N. Nair,  D. P. O'Neill,  D. Neuhauser,  E. Neuscamman,  
 C. M. Oana,  R. Olson,  B. Peters,  R. Peverati,  P. A. Pieniazek,  
 Y. M. Rhee,  J. Ritchie,  M. A. Rohrdanz,  E. Rosta,  N. J. Russ,  
 H. F. Schaefer III,  N. E. Schultz,  N. Shenvi,  A. C. Simmonett,  A. Sodt,  
 D. Stuck,  K. S. Thanthiriwatte,  V. Vanovschi,  Tao Wang,  A. Warshel,  
 C. F. Williams,  Q. Wu,  X. Xu,  W. Zhang

 Please cite Q-Chem as follows:
 Y. Shao et al., Mol. Phys. 113, 184-215 (2015)
 DOI: 10.1080/00268976.2014.952696

 Q-Chem 5.2.1 for Intel X86 EM64T Linux

 Parts of Q-Chem use Armadillo 8.300.2 (Tropical Shenanigans).
 http://arma.sourceforge.net/

 Q-Chem begins on Mon May 10 09:10:39 2021  

compute-0-13.local
Host: 0

     Scratch files written to /home/meili/scratch/qchem46070//Frg1//
NAlpha2: 40
NElect   40
Mult     1

Checking the input file for inconsistencies... 	...done.

--------------------------------------------------------------
User input:
--------------------------------------------------------------
$molecule
0 1
 6	16.6100000000	27.0510000000	18.6880000000
 1	17.6780000000	27.1890000000	18.7290000000
 6	16.5050000000	25.7460000000	17.9440000000
 8	15.5640000000	25.5130000000	17.1630000000
 7	17.4090000000	24.8570000000	18.2120000000
 1	18.1190000000	24.9840000000	18.9370000000
 6	17.3350000000	23.4650000000	17.7600000000
 1	16.6190000000	23.3710000000	16.9340000000
 1	16.1870000000	26.9770000000	19.6680000000
 1	16.0830000000	27.8600000000	18.2270000000
 1	18.3020000000	23.1500000000	17.4270000000
 1	17.0100000000	22.8510000000	18.5740000000
$end
$rem
EDA2		1
METHOD		WB97X-V
BASIS		DEF2-TZVPD
XC_GRID		000099000590
NL_GRID		1
UNRESTRICTED		FALSE
MAX_SCF_CYCLES		200
SYMMETRY		FALSE
SYM_IGNORE		TRUE
BASIS_LIN_DEP_THRESH		6
THRESH		14
SCF_CONVERGENCE		8
SCF_PRINT_FRGM		TRUE
!required keywords
JOBTYPE		SP
SYM_IGNORE		TRUE
SUBSYSTEM		TRUE
GEN_SCFMAN		TRUE
CHILD_INSTRUCTION		2
SYM_IGNORE		TRUE
SCFMI		0
RI_K 0		
PARI_K 0		
MIN_PARI_K 0		
IARI_K 0		
OCC_RI_K 0		
PURECART		1111
MEM_STATIC		2000
MEM_TOTAL		2000
GUI		0
CHILD_MP		1
CHILD_MP_ORDERS		232
FRZ_RELAX		0
FRZ_RELAX_METHOD		0
EDA_CLS_ELEC		1
EDA_CLS_DISP		0
FRZ_ORTHO_DECOMP		1
EDA2		FALSE
FRGM_METHOD		FALSE
CIS_N_ROOTS  0
LOCAL_CIS    0
CIS_RLX_DNS  1
$end
--------------------------------------------------------------
 ----------------------------------------------------------------
             Standard Nuclear Orientation (Angstroms)
    I     Atom           X                Y                Z
 ----------------------------------------------------------------
    1      C      16.6100000000    27.0510000000    18.6880000000
    2      H      17.6780000000    27.1890000000    18.7290000000
    3      C      16.5050000000    25.7460000000    17.9440000000
    4      O      15.5640000000    25.5130000000    17.1630000000
    5      N      17.4090000000    24.8570000000    18.2120000000
    6      H      18.1190000000    24.9840000000    18.9370000000
    7      C      17.3350000000    23.4650000000    17.7600000000
    8      H      16.6190000000    23.3710000000    16.9340000000
    9      H      16.1870000000    26.9770000000    19.6680000000
   10      H      16.0830000000    27.8600000000    18.2270000000
   11      H      18.3020000000    23.1500000000    17.4270000000
   12      H      17.0100000000    22.8510000000    18.5740000000
 ----------------------------------------------------------------
 Nuclear Repulsion Energy =         181.84037216 hartrees
 There are       20 alpha and       20 beta electrons
 Requested basis set is def2-TZVPD
 There are 101 shells and 251 basis functions

 Total QAlloc Memory Limit   2000 MB
 Mega-Array Size      1956 MB
 MEM_STATIC part      2000 MB

                       Distance Matrix (Angstroms)
             C (  1)   H (  2)   C (  3)   O (  4)   N (  5)   H (  6)
   H (  2)  1.077659
   C (  3)  1.505851  2.018515
   O (  4)  2.405241  3.119347  1.244882
   N (  5)  2.382984  2.403721  1.295902  2.221432
   H (  6)  2.571298  2.258267  2.042471  3.155145  1.022670
   C (  7)  3.774415  3.863261  2.434280  2.772572  1.465416  2.075415
   H (  8)  4.076640  4.349785  2.583355  2.398673  2.113192  2.977210
   H (  9)  1.069956  1.774752  2.142116  2.967566  2.847388  2.870372
   H ( 10)  1.069921  1.801741  2.174205  2.628662  3.282760  3.594548
   H ( 11)  4.435176  4.289301  3.199330  3.626308  2.080270  2.382676
   H ( 12)  4.220545  4.391867  3.005487  3.341868  2.077085  2.431325
             C (  7)   H (  8)   H (  9)   H ( 10)   H ( 11)
   H (  8)  1.097164
   H (  9)  4.158427  4.545835
   H ( 10)  4.593650  4.702155  1.693218
   H ( 11)  1.070142  1.767591  4.913373  5.267643
   H ( 12)  1.070148  1.764336  4.347188  5.105861  1.753361

 A cutoff of  1.0D-14 yielded   5032 shell pairs
 There are     31658 function pairs (     39817 Cartesian)
 Smallest overlap matrix eigenvalue = 6.88E-06

 Scale SEOQF with 1.000000e-03/1.000000e-03/1.000000e-03

 Standard Electronic Orientation quadrupole field applied
 Nucleus-field energy     =     0.0000000085 hartrees
 Guess from superposition of atomic densities
 Warning:  Energy on first SCF cycle will be non-variational
 SAD guess density has 40.000000 electrons

 -----------------------------------------------------------------------
  General SCF calculation program by
  Eric Jon Sundstrom, Paul Horn, Yuezhi Mao, Dmitri Zuev, Alec White,
  David Stuck, Shaama M.S., Shane Yost, Joonho Lee, David Small,
  Daniel Levine, Susi Lehtola, Hugh Burton, Evgeny Epifanovsky,
  Bang C. Huynh
 -----------------------------------------------------------------------
 Exchange:     0.1670 Hartree-Fock + 1.0000 wB97X-V + LR-HF
 Correlation:  1.0000 wB97X-V
 Using Euler-Maclaurin-Lebedev (99,590) quadrature formula
 Nonlocal Correlation:  VV10 with C = 0.0100 and b = 6.00 and scale = 1.00000
 Grid used for NLC:  SG-1 standard quadrature
Energy prior to optimization (guess energy) = -248.410291287932
Begin Timing: Total SCF Calculation
begin iterations for algorithm: DIIS         
the SCF tolerance is set to 1.00e-08
    1    -248.4102912879      4.31e-03     00000 
    2    -248.3423053321      5.94e-03     00000 
    3    -248.5333337868      5.32e-04     00000 
    4    -248.5350675810      2.18e-04     00000 
    5    -248.5353911096      5.18e-05     00000 
    6    -248.5354153741      1.98e-05     00000 
    7    -248.5354200932      5.37e-06     00000 
    8    -248.5354207236      1.56e-06     00000 
    9    -248.5354207663      5.37e-07     00000 
   10    -248.5354207696      1.24e-07     00000 
   11    -248.5354207698      2.24e-08     00000 
   12    -248.5354207699      6.74e-09     00000 Convergence criterion met
Timing for Total SCF: 257.00s (wall), 1490.45s (cpu)
Multipole orders to be included
        2
        3
computing dipole RHS
computing quadrupole RHS
total number of RHS in solve_reponses: 8
RHS batch sizes
        8
Beginning Block Conjugate Gradient Iterations. Batch Number: 0
computing hessian-vector products by finite difference
              1      4.93e-01     00000 Conjugate Gradient Iteration
computing hessian-vector products by finite difference
              2      1.58e-01     00000 Conjugate Gradient Iteration
computing hessian-vector products by finite difference
              3      3.89e-02     00000 Conjugate Gradient Iteration
computing hessian-vector products by finite difference
              4      9.13e-03     00000 Conjugate Gradient Iteration
computing hessian-vector products by finite difference
              5      1.67e-03     00000 Conjugate Gradient Iteration
computing hessian-vector products by finite difference
              6      3.33e-04     00000 Conjugate Gradient Iteration
computing hessian-vector products by finite difference
              7      5.26e-05     00000 Conjugate Gradient Iteration
computing hessian-vector products by finite difference
              8      8.58e-06     00000 Conjugate Gradient Iteration
computing hessian-vector products by finite difference
              9      1.28e-06     00000 Conjugate Gradient Iteration
computing hessian-vector products by finite difference
             10      1.63e-07     00000 Conjugate Gradient Iteration
computing hessian-vector products by finite difference
             11      2.00e-08     00000 Conjugate Gradient Iteration
computing hessian-vector products by finite difference
             12      2.78e-09     00000 CG Converged
batch 0 complete
Done Calculating Responses
TESTING ORTHOGONALIZATION OF MULTIPOLE BASIS
Multipole virts passed orthogonality test
Virts Per Order
           60
          100

 --------------------------------------------------------------

                    Orbital Energies (a.u.)
 --------------------------------------------------------------

 Alpha MOs
 -- Occupied --
-19.1569 -14.4416 -10.3614 -10.2990 -10.2658  -1.1572  -1.0570  -0.8941
 -0.8255  -0.7153  -0.6250  -0.5890  -0.5747  -0.5425  -0.5165  -0.5091
 -0.4875  -0.4621  -0.3594  -0.3459
 -- Virtual --
  0.0531   0.0783   0.0939   0.1057   0.1091   0.1243   0.1347   0.1405
  0.1461   0.1632   0.1687   0.1851   0.1900   0.2004   0.2129   0.2300
  0.2365   0.2396   0.2519   0.2647   0.2726   0.2805   0.2950   0.2976
  0.3056   0.3135   0.3172   0.3284   0.3431   0.3470   0.3559   0.3667
  0.3698   0.3735   0.3816   0.3852   0.3893   0.4009   0.4106   0.4151
  0.4350   0.4460   0.4515   0.4651   0.4674   0.4715   0.4817   0.4874
  0.5000   0.5081   0.5131   0.5263   0.5288   0.5385   0.5521   0.5612
  0.5755   0.5910   0.6044   0.6054   0.6227   0.6268   0.6475   0.6636
  0.6702   0.6972   0.7130   0.7284   0.7389   0.7480   0.7506   0.7557
  0.7760   0.7872   0.8011   0.8160   0.8293   0.8319   0.8416   0.8494
  0.8593   0.8771   0.8991   0.9058   0.9164   0.9386   0.9753   1.0135
  1.0269   1.0366   1.0605   1.0729   1.1255   1.1632   1.1674   1.2193
  1.2344   1.2471   1.2712   1.2854   1.3003   1.3438   1.3637   1.3761
  1.4141   1.4452   1.5171   1.5468   1.6269   1.6883   1.7309   1.7458
  1.7775   1.8207   1.8470   1.8606   1.8770   1.8928   1.9180   1.9364
  1.9436   1.9660   1.9877   2.0069   2.0333   2.0802   2.0952   2.1410
  2.1498   2.2120   2.2297   2.2371   2.2775   2.3173   2.3526   2.3804
  2.4090   2.4634   2.4715   2.4938   2.5110   2.5583   2.5827   2.5932
  2.6258   2.6600   2.6666   2.7096   2.7635   2.7761   2.8311   2.8491
  2.8727   2.8918   2.9233   2.9634   2.9758   3.0214   3.0417   3.1209
  3.1707   3.1991   3.2300   3.2607   3.2867   3.2947   3.3052   3.3219
  3.3311   3.3639   3.3874   3.4372   3.4532   3.4693   3.4913   3.5700
  3.5990   3.6169   3.6406   3.6528   3.6611   3.7000   3.7203   3.7610
  3.8478   3.9132   3.9447   3.9708   4.0585   4.0775   4.1291   4.2111
  4.2615   4.3185   4.4031   4.5045   4.5944   4.6301   4.6957   4.7428
  4.7636   4.8461   4.9420   4.9832   5.0301   5.2022   5.2467   5.2732
  5.3489   5.4288   5.4488   5.4916   5.6438   5.6791   5.7429   5.8084
  5.9947   6.1002   6.2641   6.5310   6.6794   6.7940   6.8730   7.0165
  7.2853   7.3585  22.6732  22.6838  23.6863  32.7101  44.3637
 --------------------------------------------------------------

          Ground-State Mulliken Net Atomic Charges

     Atom                 Charge (a.u.)
  ----------------------------------------
      1 C                    -0.738507
      2 H                     0.214600
      3 C                     0.558149
      4 O                    -0.577894
      5 N                    -0.095533
      6 H                     0.199804
      7 C                    -0.710707
      8 H                     0.276512
      9 H                     0.196581
     10 H                     0.203331
     11 H                     0.228305
     12 H                     0.245356
  ----------------------------------------
  Sum of atomic charges =     0.000000

 -----------------------------------------------------------------
                    Cartesian Multipole Moments
 -----------------------------------------------------------------
    Charge (ESU x 10^10)
                 0.0000
    Dipole Moment (Debye)
         X       3.3181      Y      -0.5850      Z       2.7006
       Tot       4.3180
    Quadrupole Moments (Debye-Ang)
        XX      77.9168     XY      73.1643     YY     -56.7962
        XZ     103.2197     YZ      58.9750     ZZ      65.3541
    Octopole Moments (Debye-Ang^2)
       XXX    1132.8434    XXY    1772.2516    XYY    1122.3463
       YYY   -3189.4484    XXZ    2107.6726    XYZ    2435.6097
       YYZ     765.4718    XZZ    2110.3845    YZZ    1504.6572
       ZZZ     907.3039
    Hexadecapole Moments (Debye-Ang^3)
      XXXX    6974.3891   XXXY   25026.3404   XXYY   32078.9267
      XYYY   -1575.6400   YYYY -142893.4929   XXXZ   31890.8663
      XXYZ   50011.9081   XYYZ   48948.4539   YYYZ  -11486.4870
      XXZZ   41762.5972   XYZZ   50539.8162   YYZZ   25396.3177
      XZZZ   33016.4086   YZZZ   20562.6683   ZZZZ    1177.0965
 -----------------------------------------------------------------
Archival summary:
1\1\compute-0-13.local\SP\ProcedureUnspecified\BasisUnspecified\1137\meili\MonMay1010:32:552021MonMay1010:32:552021\0\\#,ProcedureUnspecified,BasisUnspecified,\\0,1\N\H,1,1.02267\C,1,1.2959,2,123.074\O,3,1.24488,1,121.914,2,-171.953,0\C,1,1.46542,2,111.82,3,-166.196,0\H,5,1.07014,1,109.266,2,-55.7808,0\H,5,1.07015,1,109.01,2,64.4753,0\H,5,1.09716,1,110.276,2,-175.916,0\C,3,1.50585,1,116.34,2,4.71565,0\H,9,1.06992,3,114.082,1,160.318,0\H,9,1.06996,3,111.409,1,-81.5197,0\H,9,1.07766,3,101.471,1,37.1982,0\\\@

 Total job time:  4936.57s(wall), 28882.82s(cpu) 
 Mon May 10 10:32:55 2021

        *************************************************************
        *                                                           *
        *  Thank you very much for using Q-Chem.  Have a nice day.  *
        *                                                           *
        *************************************************************


Done Job For Fragment 0
calling putenv with: QCSCRATCH=/home/meili/scratch 
calling putenv with: QCTHREADS=8 
Creating input file /home/meili/scratch/qchem46070/Frg2.input
using default PutDataFrgm: nothing
calling putenv with: QCSCRATCH=/home/meili/scratch/qchem46070/ 
Spawning Job For Fragment 1
                  Welcome to Q-Chem
     A Quantum Leap Into The Future Of Chemistry


 Q-Chem 5.2 (devel), Q-Chem, Inc., Pleasanton, CA (2019)

 Yihan Shao,  Zhengting Gan,  E. Epifanovsky,  A. T. B. Gilbert,  M. Wormit,  
 J. Kussmann,  A. W. Lange,  A. Behn,  Jia Deng,  Xintian Feng,  D. Ghosh,  
 M. Goldey,  P. R. Horn,  L. D. Jacobson,  I. Kaliman,  T. Kus,  A. Landau,  
 Jie Liu,  E. I. Proynov,  R. M. Richard,  R. P. Steele,  E. J. Sundstrom,  
 H. L. Woodcock III,  P. M. Zimmerman,  D. Zuev,  B. Albrecht,  E. Alguire,  
 S. A. Baeppler,  D. Barton,  Z. Benda,  Y. A. Bernard,  E. J. Berquist,  
 K. B. Bravaya,  H. Burton,  D. Casanova,  Chun-Min Chang,  Yunqing Chen,  
 A. Chien,  K. D. Closser,  M. P. Coons,  S. Coriani,  S. Dasgupta,  
 A. L. Dempwolff,  M. Diedenhofen,  Hainam Do,  R. G. Edgar,  Po-Tung Fang,  
 S. Faraji,  S. Fatehi,  Qingguo Feng,  K. D. Fenk,  J. Fosso-Tande,  
 J. Gayvert,  Qinghui Ge,  A. Ghysels,  G. Gidofalvi,  J. Gomes,  
 J. Gonthier,  A. Gunina,  D. Hait,  M. W. D. Hanson-Heine,  
 P. H. P. Harbach,  A. W. Hauser,  M. F. Herbst,  J. E. Herr,  
 E. G. Hohenstein,  Z. C. Holden,  Kerwin Hui,  B. C. Huynh,  T.-C. Jagau,  
 Hyunjun Ji,  B. Kaduk,  K. Khistyaev,  Jaehoon Kim,  P. Klunzinger,  K. Koh,  
 D. Kosenkov,  L. Koulias,  T. Kowalczyk,  C. M. Krauter,  A. Kunitsa,  
 Ka Un Lao,  A. Laurent,  K. V. Lawler,  Joonho Lee,  D. Lefrancois,  
 S. Lehtola,  D. S. Levine,  Yi-Pei Li,  You-Sheng Lin,  Fenglai Liu,  
 E. Livshits,  A. Luenser,  P. Manohar,  E. Mansoor,  S. F. Manzer,  
 Shan-Ping Mao,  Yuezhi Mao,  N. Mardirossian,  A. V. Marenich,  
 T. Markovich,  L. A. Martinez-Martinez,  S. A. Maurer,  N. J. Mayhall,  
 S. C. McKenzie,  J.-M. Mewes,  P. Morgante,  A. F. Morrison,  
 J. W. Mullinax,  K. Nanda,  T. S. Nguyen-Beck,  R. Olivares-Amaya,  
 J. A. Parkhill,  Zheng Pei,  T. M. Perrine,  F. Plasser,  P. Pokhilko,  
 S. Prager,  A. Prociuk,  E. Ramos,  D. R. Rehn,  F. Rob,  M. Scheurer,  
 M. Schneider,  N. Sergueev,  S. M. Sharada,  S. Sharma,  D. W. Small,  
 T. Stauch,  T. Stein,  Yu-Chuan Su,  A. J. W. Thom,  A. Tkatchenko,  
 T. Tsuchimochi,  N. M. Tubman,  L. Vogt,  M. L. Vidal,  O. Vydrov,  
 M. A. Watson,  J. Wenzel,  M. de Wergifosse,  T. A. Wesolowski,  A. White,  
 J. Witte,  A. Yamada,  Jun Yang,  K. Yao,  S. Yeganeh,  S. R. Yost,  
 Zhi-Qiang You,  A. Zech,  Igor Ying Zhang,  Xing Zhang,  Yan Zhao,  
 Ying Zhu,  B. R. Brooks,  G. K. L. Chan,  C. J. Cramer,  M. S. Gordon,  
 W. J. Hehre,  A. Klamt,  M. W. Schmidt,  C. D. Sherrill,  D. G. Truhlar,  
 A. Aspuru-Guzik,  R. Baer,  A. T. Bell,  N. A. Besley,  Jeng-Da Chai,  
 A. E. DePrince, III,  R. A. DiStasio Jr.,  A. Dreuw,  B. D. Dunietz,  
 T. R. Furlani,  Chao-Ping Hsu,  Yousung Jung,  Jing Kong,  D. S. Lambrecht,  
 WanZhen Liang,  C. Ochsenfeld,  V. A. Rassolov,  L. V. Slipchenko,  
 J. E. Subotnik,  T. Van Voorhis,  J. M. Herbert,  A. I. Krylov,  
 P. M. W. Gill,  M. Head-Gordon

 Contributors to earlier versions of Q-Chem not listed above: 
 R. D. Adamson,  B. Austin,  J. Baker,  G. J. O. Beran,  K. Brandhorst,  
 S. T. Brown,  E. F. C. Byrd,  A. K. Chakraborty,  C.-L. Cheng,  
 Siu Hung Chien,  D. M. Chipman,  D. L. Crittenden,  H. Dachsel,  
 R. J. Doerksen,  A. D. Dutoi,  L. Fusti-Molnar,  W. A. Goddard III,  
 A. Golubeva-Zadorozhnaya,  S. R. Gwaltney,  G. Hawkins,  A. Heyden,  
 S. Hirata,  G. Kedziora,  F. J. Keil,  C. Kelley,  Jihan Kim,  R. A. King,  
 R. Z. Khaliullin,  P. P. Korambath,  W. Kurlancheek,  A. M. Lee,  M. S. Lee,  
 S. V. Levchenko,  Ching Yeh Lin,  D. Liotard,  R. C. Lochan,  I. Lotan,  
 P. E. Maslen,  N. Nair,  D. P. O'Neill,  D. Neuhauser,  E. Neuscamman,  
 C. M. Oana,  R. Olson,  B. Peters,  R. Peverati,  P. A. Pieniazek,  
 Y. M. Rhee,  J. Ritchie,  M. A. Rohrdanz,  E. Rosta,  N. J. Russ,  
 H. F. Schaefer III,  N. E. Schultz,  N. Shenvi,  A. C. Simmonett,  A. Sodt,  
 D. Stuck,  K. S. Thanthiriwatte,  V. Vanovschi,  Tao Wang,  A. Warshel,  
 C. F. Williams,  Q. Wu,  X. Xu,  W. Zhang

 Please cite Q-Chem as follows:
 Y. Shao et al., Mol. Phys. 113, 184-215 (2015)
 DOI: 10.1080/00268976.2014.952696

 Q-Chem 5.2.1 for Intel X86 EM64T Linux

 Parts of Q-Chem use Armadillo 8.300.2 (Tropical Shenanigans).
 http://arma.sourceforge.net/

 Q-Chem begins on Mon May 10 10:32:56 2021  

compute-0-13.local
Host: 0

     Scratch files written to /home/meili/scratch/qchem46070//Frg2//
NAlpha2: 40
NElect   40
Mult     1

Checking the input file for inconsistencies... 	...done.

--------------------------------------------------------------
User input:
--------------------------------------------------------------
$molecule
0 1
 6	20.6160000000	27.4060000000	17.7180000000
 1	19.6530000000	27.5860000000	18.1900000000
 6	20.4130000000	26.4700000000	16.4740000000
 8	21.0190000000	25.3890000000	16.3700000000
 7	19.6290000000	26.8970000000	15.5010000000
 1	18.9880000000	27.6360000000	15.7470000000
 6	19.4900000000	26.2250000000	14.1800000000
 1	19.2320000000	25.1350000000	14.3360000000
 1	21.0390000000	28.3360000000	17.4010000000
 1	21.2770000000	26.9380000000	18.4170000000
 1	18.7120000000	26.6990000000	13.6190000000
 1	20.4130000000	26.2990000000	13.6440000000
$end
$rem
EDA2		1
METHOD		WB97X-V
BASIS		DEF2-TZVPD
XC_GRID		000099000590
NL_GRID		1
UNRESTRICTED		FALSE
MAX_SCF_CYCLES		200
SYMMETRY		FALSE
SYM_IGNORE		TRUE
BASIS_LIN_DEP_THRESH		6
THRESH		14
SCF_CONVERGENCE		8
SCF_PRINT_FRGM		TRUE
!required keywords
JOBTYPE		SP
SYM_IGNORE		TRUE
SUBSYSTEM		TRUE
GEN_SCFMAN		TRUE
CHILD_INSTRUCTION		2
SYM_IGNORE		TRUE
SCFMI		0
RI_K 0		
PARI_K 0		
MIN_PARI_K 0		
IARI_K 0		
OCC_RI_K 0		
PURECART		1111
MEM_STATIC		2000
MEM_TOTAL		2000
GUI		0
CHILD_MP		1
CHILD_MP_ORDERS		232
FRZ_RELAX		0
FRZ_RELAX_METHOD		0
EDA_CLS_ELEC		1
EDA_CLS_DISP		0
FRZ_ORTHO_DECOMP		1
EDA2		FALSE
FRGM_METHOD		FALSE
CIS_N_ROOTS  0
LOCAL_CIS    0
CIS_RLX_DNS  1
$end
--------------------------------------------------------------
 ----------------------------------------------------------------
             Standard Nuclear Orientation (Angstroms)
    I     Atom           X                Y                Z
 ----------------------------------------------------------------
    1      C      20.6160000000    27.4060000000    17.7180000000
    2      H      19.6530000000    27.5860000000    18.1900000000
    3      C      20.4130000000    26.4700000000    16.4740000000
    4      O      21.0190000000    25.3890000000    16.3700000000
    5      N      19.6290000000    26.8970000000    15.5010000000
    6      H      18.9880000000    27.6360000000    15.7470000000
    7      C      19.4900000000    26.2250000000    14.1800000000
    8      H      19.2320000000    25.1350000000    14.3360000000
    9      H      21.0390000000    28.3360000000    17.4010000000
   10      H      21.2770000000    26.9380000000    18.4170000000
   11      H      18.7120000000    26.6990000000    13.6190000000
   12      H      20.4130000000    26.2990000000    13.6440000000
 ----------------------------------------------------------------
 Nuclear Repulsion Energy =         178.85990333 hartrees
 There are       20 alpha and       20 beta electrons
 Requested basis set is def2-TZVPD
 There are 101 shells and 251 basis functions

 Total QAlloc Memory Limit   2000 MB
 Mega-Array Size      1956 MB
 MEM_STATIC part      2000 MB

                       Distance Matrix (Angstroms)
             C (  1)   H (  2)   C (  3)   O (  4)   N (  5)   H (  6)
   H (  2)  1.087453
   C (  3)  1.569981  2.183509
   O (  4)  2.459228  3.163094  1.243629
   N (  5)  2.479584  2.775972  1.320498  2.227403
   H (  6)  2.566734  2.532385  1.979573  3.092264  1.008721
   C (  7)  3.896162  4.237805  2.484832  2.798721  1.488605  2.167583
   H (  8)  4.302420  4.586715  2.783528  2.719382  2.149297  2.881919
   H (  9)  1.069728  1.762390  2.175583  3.122206  2.769264  2.726228
   H ( 10)  1.069835  1.763181  2.177331  2.579956  3.349723  3.585474
   H ( 11)  4.574589  4.750399  3.331196  3.821825  2.102859  2.341480
   H ( 12)  4.226598  4.785403  2.835162  2.937075  2.102548  2.870680
             C (  7)   H (  8)   H (  9)   H ( 10)   H ( 11)
   H (  8)  1.130929
   H (  9)  4.150971  4.786008
   H ( 10)  4.653376  4.907891  1.744507
   H ( 11)  1.069898  1.797383  4.732676  5.445838
   H ( 12)  1.069907  1.796809  4.319293  4.892479  1.747577

 A cutoff of  1.0D-14 yielded   5021 shell pairs
 There are     31587 function pairs (     39732 Cartesian)
 Smallest overlap matrix eigenvalue = 8.69E-06

 Scale SEOQF with 1.000000e-03/1.000000e-03/1.000000e-03

 Standard Electronic Orientation quadrupole field applied
 Nucleus-field energy     =     0.0000000149 hartrees
 Guess from superposition of atomic densities
 Warning:  Energy on first SCF cycle will be non-variational
 SAD guess density has 40.000000 electrons

 -----------------------------------------------------------------------
  General SCF calculation program by
  Eric Jon Sundstrom, Paul Horn, Yuezhi Mao, Dmitri Zuev, Alec White,
  David Stuck, Shaama M.S., Shane Yost, Joonho Lee, David Small,
  Daniel Levine, Susi Lehtola, Hugh Burton, Evgeny Epifanovsky,
  Bang C. Huynh
 -----------------------------------------------------------------------
 Exchange:     0.1670 Hartree-Fock + 1.0000 wB97X-V + LR-HF
 Correlation:  1.0000 wB97X-V
 Using Euler-Maclaurin-Lebedev (99,590) quadrature formula
 Nonlocal Correlation:  VV10 with C = 0.0100 and b = 6.00 and scale = 1.00000
 Grid used for NLC:  SG-1 standard quadrature
Energy prior to optimization (guess energy) = -248.415994421951
Begin Timing: Total SCF Calculation
begin iterations for algorithm: DIIS         
the SCF tolerance is set to 1.00e-08
    1    -248.4159944220      4.27e-03     00000 
    2    -248.3440680300      5.97e-03     00000 
    3    -248.5367748864      5.09e-04     00000 
    4    -248.5383384135      2.27e-04     00000 
    5    -248.5386856307      5.35e-05     00000 
    6    -248.5387122154      2.01e-05     00000 
    7    -248.5387173085      5.58e-06     00000 
    8    -248.5387179885      1.74e-06     00000 
    9    -248.5387180371      6.48e-07     00000 
   10    -248.5387180421      1.24e-07     00000 
   11    -248.5387180424      2.62e-08     00000 
   12    -248.5387180424      1.14e-08     00000 
   13    -248.5387180424      3.69e-09     00000 Convergence criterion met
Timing for Total SCF: 264.00s (wall), 1566.78s (cpu)
Multipole orders to be included
        2
        3
computing dipole RHS
computing quadrupole RHS
total number of RHS in solve_reponses: 8
RHS batch sizes
        8
Beginning Block Conjugate Gradient Iterations. Batch Number: 0
computing hessian-vector products by finite difference
              1      4.86e-01     00000 Conjugate Gradient Iteration
computing hessian-vector products by finite difference
              2      1.55e-01     00000 Conjugate Gradient Iteration
computing hessian-vector products by finite difference
              3      3.57e-02     00000 Conjugate Gradient Iteration
computing hessian-vector products by finite difference
              4      7.94e-03     00000 Conjugate Gradient Iteration
computing hessian-vector products by finite difference
              5      1.52e-03     00000 Conjugate Gradient Iteration
computing hessian-vector products by finite difference
              6      3.26e-04     00000 Conjugate Gradient Iteration
computing hessian-vector products by finite difference
              7      4.89e-05     00000 Conjugate Gradient Iteration
computing hessian-vector products by finite difference
              8      6.77e-06     00000 Conjugate Gradient Iteration
computing hessian-vector products by finite difference
              9      1.12e-06     00000 Conjugate Gradient Iteration
computing hessian-vector products by finite difference
             10      1.70e-07     00000 Conjugate Gradient Iteration
computing hessian-vector products by finite difference
             11      2.25e-08     00000 Conjugate Gradient Iteration
computing hessian-vector products by finite difference
             12      3.24e-09     00000 CG Converged
batch 0 complete
Done Calculating Responses
TESTING ORTHOGONALIZATION OF MULTIPOLE BASIS
Multipole virts passed orthogonality test
Virts Per Order
           60
          100

 --------------------------------------------------------------

                    Orbital Energies (a.u.)
 --------------------------------------------------------------

 Alpha MOs
 -- Occupied --
-19.1634 -14.4392 -10.3676 -10.3085 -10.2722  -1.1542  -1.0499  -0.8807
 -0.8258  -0.7020  -0.6220  -0.5788  -0.5714  -0.5377  -0.5195  -0.5079
 -0.4926  -0.4620  -0.3593  -0.3496
 -- Virtual --
  0.0542   0.0765   0.0922   0.1044   0.1103   0.1239   0.1325   0.1416
  0.1576   0.1621   0.1671   0.1728   0.1856   0.2007   0.2121   0.2206
  0.2340   0.2378   0.2522   0.2659   0.2701   0.2738   0.2876   0.2951
  0.3061   0.3076   0.3155   0.3327   0.3416   0.3502   0.3538   0.3563
  0.3663   0.3728   0.3758   0.3828   0.3933   0.4000   0.4080   0.4202
  0.4272   0.4367   0.4464   0.4524   0.4552   0.4711   0.4768   0.4849
  0.4878   0.4969   0.5011   0.5173   0.5251   0.5269   0.5360   0.5517
  0.5623   0.5730   0.5994   0.6106   0.6307   0.6386   0.6474   0.6608
  0.6795   0.6967   0.7084   0.7230   0.7312   0.7373   0.7423   0.7553
  0.7790   0.7864   0.7996   0.8051   0.8163   0.8267   0.8399   0.8452
  0.8583   0.8719   0.8847   0.9024   0.9533   0.9662   0.9828   0.9935
  1.0250   1.0513   1.0651   1.0800   1.1147   1.1389   1.1839   1.1906
  1.2080   1.2168   1.2599   1.2771   1.3128   1.3256   1.3521   1.3809
  1.3988   1.4464   1.5213   1.5575   1.6318   1.6685   1.7169   1.7278
  1.7381   1.8330   1.8546   1.8592   1.8674   1.8957   1.9017   1.9135
  1.9327   1.9565   1.9951   2.0021   2.0435   2.0515   2.1193   2.1253
  2.1405   2.1757   2.2325   2.2526   2.2643   2.3088   2.3096   2.3677
  2.3924   2.4113   2.4540   2.4688   2.5149   2.5632   2.5814   2.5955
  2.6078   2.6324   2.6536   2.6803   2.7609   2.8121   2.8216   2.8279
  2.8423   2.8809   2.9132   2.9440   2.9687   3.0061   3.0333   3.1177
  3.1601   3.1737   3.2119   3.2256   3.2876   3.2991   3.3113   3.3269
  3.3586   3.3641   3.3785   3.4325   3.4465   3.4649   3.4795   3.4937
  3.5337   3.5633   3.5891   3.6233   3.6399   3.6806   3.7127   3.7294
  3.8235   3.8380   3.9003   3.9756   4.0051   4.0950   4.1137   4.1172
  4.2644   4.3092   4.3622   4.4837   4.5280   4.5976   4.6627   4.6759
  4.6909   4.8558   4.9347   4.9769   5.0187   5.1724   5.2164   5.2511
  5.3507   5.4151   5.4361   5.4756   5.6158   5.6488   5.7417   5.7766
  5.9743   6.1064   6.2512   6.5048   6.6732   6.7425   6.8288   7.0108
  7.2755   7.3521  22.6187  22.6291  23.5692  32.6772  44.3214
 --------------------------------------------------------------

          Ground-State Mulliken Net Atomic Charges

     Atom                 Charge (a.u.)
  ----------------------------------------
      1 C                    -0.735691
      2 H                     0.243156
      3 C                     0.443744
      4 O                    -0.548581
      5 N                    -0.068162
      6 H                     0.226774
      7 C                    -0.614024
      8 H                     0.208158
      9 H                     0.223871
     10 H                     0.174359
     11 H                     0.246197
     12 H                     0.200199
  ----------------------------------------
  Sum of atomic charges =     0.000000

 -----------------------------------------------------------------
                    Cartesian Multipole Moments
 -----------------------------------------------------------------
    Charge (ESU x 10^10)
                 0.0000
    Dipole Moment (Debye)
         X      -2.5392      Y       3.2146      Z      -0.7822
       Tot       4.1705
    Quadrupole Moments (Debye-Ang)
        XX    -133.6556     XY      -0.7883     YY     136.9726
        XZ     -55.5443     YZ      32.7526     ZZ     -52.2415
    Octopole Moments (Debye-Ang^2)
       XXX   -4994.5699    XXY   -2162.7354    XYY    1061.9312
       YYY    4118.9645    XXZ   -2424.4157    XYZ    -365.1745
       YYZ    1748.2457    XZZ   -1677.9405    YZZ    -496.5638
       ZZZ   -1912.4805
    Hexadecapole Moments (Debye-Ang^3)
      XXXX -160174.4651   XXXY -103683.0480   XXYY  -34627.9292
      XYYY   38883.4176   YYYY   98623.0361   XXXZ  -85484.8554
      XXYZ  -41302.6852   XYYZ    8710.2382   YYYZ   55422.9821
      XXZZ  -54578.0193   XYZZ  -26084.1403   YYZZ    1650.1391
      XZZZ  -48450.0195   YZZZ  -36010.6238   ZZZZ  -55317.0253
 -----------------------------------------------------------------
Archival summary:
1\1\compute-0-13.local\SP\ProcedureUnspecified\BasisUnspecified\1137\meili\MonMay1011:53:032021MonMay1011:53:032021\0\\#,ProcedureUnspecified,BasisUnspecified,\\0,1\N\H,1,1.00872\C,1,1.3205,2,115.752\O,3,1.24363,1,120.582,2,164.118,0\C,1,1.48861,2,119.196,3,170.419,0\H,5,1.0699,1,109.464,2,3.72756,0\H,5,1.06991,1,109.438,2,123.752,0\H,5,1.13093,1,109.511,2,-116.3,0\C,3,1.56998,1,117.894,2,-19.3412,0\H,9,1.06973,3,109.55,1,-59.6157,0\H,9,1.06983,3,109.682,1,-179.517,0\H,9,1.08745,3,109.154,1,60.3542,0\\\@

 Total job time:  4807.52s(wall), 28943.58s(cpu) 
 Mon May 10 11:53:03 2021

        *************************************************************
        *                                                           *
        *  Thank you very much for using Q-Chem.  Have a nice day.  *
        *                                                           *
        *************************************************************


Done Job For Fragment 1
calling putenv with: QCSCRATCH=/home/meili/scratch 
calling putenv with: QCTHREADS=8 
Doing General SCFMI
 Exchange:     0.1670 Hartree-Fock + 1.0000 wB97X-V + LR-HF
 Correlation:  1.0000 wB97X-V
 Using Euler-Maclaurin-Lebedev (99,590) quadrature formula
 Nonlocal Correlation:  VV10 with C = 0.0100 and b = 6.00 and scale = 1.00000
 Grid used for NLC:  SG-1 standard quadrature
performing fock build before subrot guess so that all methods have access
Printing subrot_rss_gen Method Specification:
Occupied Subspace Method is 0
Virtual Subspace Method is 0
Energy of the unrelaxed supersystem initial determinant -497.077540985339
write pseudocanon occs and virts to disk
write pseudocanon orbital energies to disk
Tolerance of ortho_decomp_scf: 1.00e-06
GDM subspace size: 20
Beginning the Orthogonal Decomposition of the Initial Supersystem Wavefunction
    1    -497.0656412669      1.45e-02     ortho_decomp Preconditoned Steepest Descent
    2    -497.0663070295      3.78e-04     ortho_decomp BFGS Step
    3    -497.0663089031      2.09e-05     ortho_decomp BFGS Step
    4    -497.0663089051      8.01e-07     ortho_decomp 00000 Convergence criterion met
 Hartree-Fock
 Hartree-Fock
 Hartree-Fock
Doing General SCFMI
 Exchange:     0.1670 Hartree-Fock + 1.0000 wB97X-V + LR-HF
 Correlation:  1.0000 wB97X-V
 Using Euler-Maclaurin-Lebedev (99,590) quadrature formula
 Nonlocal Correlation:  VV10 with C = 0.0100 and b = 6.00 and scale = 1.00000
 Grid used for NLC:  SG-1 standard quadrature
performing fock build at end of subrot_r(subrot) constructor so that all methods have access
<S^2> of initial wavefunction before polarization iterations 0.0000000000
Beginning iterations for the determination of the polarized wavefunction
Energy prior to optimization (guess energy) = -497.077540985338
Begin Timing: Total SCF Calculation
begin iterations for algorithm: DIIS         
the SCF tolerance is set to 1.00e-08
    1    -497.0775409853      8.61e-05     00000 
    2    -497.0781153226      3.29e-05     00000 
    3    -497.0781610256      1.72e-05     00000 
    4    -497.0781732085      7.98e-06     00000 
    5    -497.0781757626      3.33e-06     00000 
    6    -497.0781763420      1.62e-06     00000 
    7    -497.0781764965      5.17e-07     00000 
    8    -497.0781765145      1.78e-07     00000 
    9    -497.0781765165      5.78e-08     00000 
   10    -497.0781765167      2.20e-08     00000 
   11    -497.0781765167      7.79e-09     00000 Convergence criterion met
write pseudocanon occs and virts to disk
write pseudocanon orbital energies to disk
Timing for Total SCF: 1483.00s (wall), 9210.24s (cpu)
<S^2> of polarized wavefunction after polarization iterations 0.0000000000
relaxing scfmi constraint to allow all rotations in the entire AO span
Doing General SCFMI
 Exchange:     0.1670 Hartree-Fock + 1.0000 wB97X-V + LR-HF
 Correlation:  1.0000 wB97X-V
 Using Euler-Maclaurin-Lebedev (99,590) quadrature formula
 Nonlocal Correlation:  VV10 with C = 0.0100 and b = 6.00 and scale = 1.00000
 Grid used for NLC:  SG-1 standard quadrature
performing fock build at end of subrot_r(subrot) constructor so that all methods have access
<S^2> of polarized wavefunction before ct-allowed iterations 0.0000000000
Beginning iterations for the determination of the CT-Allowed wavefunction
Energy prior to optimization (guess energy) = -497.078176516705
Begin Timing: Total SCF Calculation
begin iterations for algorithm: DIIS         
the SCF tolerance is set to 1.00e-08
    1    -497.0781765167      7.46e-05     00000 
    2    -497.0788367526      7.74e-06     00000 
    3    -497.0788551058      1.16e-06     00000 
    4    -497.0788555760      4.99e-07     00000 
    5    -497.0788555997      2.06e-07     00000 
    6    -497.0788556040      7.64e-08     00000 
    7    -497.0788556047      1.24e-08     00000 
    8    -497.0788556047      5.85e-09     00000 Convergence criterion met
write pseudocanon occs and virts to disk
write pseudocanon orbital energies to disk
Timing for Total SCF: 1115.00s (wall), 6948.50s (cpu)
<S^2> of ct_allowed wavefunction after ct-allowed iterations 0.0000000000

================================
        Results of EDA2         
================================
Basic EDA Quantities
--------------------
Fragment Energies (Ha):
1 -248.5354207699
2 -248.5387180424
--------------------
  E_prp (kJ/mol) = 0.0000
  E_frz (kJ/mol) = -8.9325
  E_pol (kJ/mol) = -1.6686
  E_vct (kJ/mol) = -1.7830
  E_int (kJ/mol) = -12.3841
--------------------


Initial Wavefunction Decomposition
--------------------
  --------------------
  Orthogonal Fragment Subspace Decomposition:
  --------------------
     E_elec   (ELEC)   (kJ/mol) = -12.6186
     E_pauli  (PAULI)  (kJ/mol) = 15.5543
     E_disp   (DISP)   (kJ/mol) = -11.8682
     --------------------
     Terms summing to E_pauli:
     --------------------
        E_kep_pauli       (kJ/mol) = 20.5577
        E_disp_free_pauli (kJ/mol) = -5.0033
  --------------------
  Classical Frozen Decomposition:
  --------------------
     E_cls_elec  (CLS ELEC)  (kJ/mol) = -5.8831
     E_cls_pauli (CLS PAULI) (kJ/mol) = -3.0494
    [E_mod_pauli (MOD PAULI) (kJ/mol) = 8.8189 (CLS PAULI - DISP from orthogonal decomposition) ]
  --------------------
--------------------

Simplified EDA Summary (kJ/mol)
--------------------
 PREPARATION     0.0000
 FROZEN          2.9357      (does not include dispersion)
[PAULI           15.5543]     (if this is negligible, then frozen describes electrostatics)
 DISPERSION      -11.8682
 POLARIZATION    -1.6686
 CHARGE TRANSFER -1.7830
 TOTAL           -12.3841     (PRP + FRZ + DISP + POL + CT)
--------------------

 --------------------------------------------------------------

                    Orbital Energies (a.u.)
 --------------------------------------------------------------

 Alpha MOs
 -- Occupied --
-19.1691 -19.1601 -14.4423 -14.4420 -10.3731 -10.3646 -10.3083 -10.2955
-10.2803 -10.2728  -1.1598  -1.1591  -1.0582  -1.0532  -0.8980  -0.8861
 -0.8292  -0.8262  -0.7153  -0.7046  -0.6269  -0.6255  -0.5952  -0.5816
 -0.5774  -0.5759  -0.5475  -0.5398  -0.5248  -0.5192  -0.5125  -0.5076
 -0.4972  -0.4895  -0.4686  -0.4634  -0.3629  -0.3606  -0.3555  -0.3492
 -- Virtual --
  0.0456   0.0685   0.0701   0.0767   0.0922   0.0966   0.1006   0.1040
  0.1110   0.1140   0.1187   0.1290   0.1339   0.1419   0.1459   0.1497
  0.1558   0.1575   0.1610   0.1700   0.1774   0.1822   0.1930   0.1956
  0.1970   0.2102   0.2169   0.2221   0.2293   0.2343   0.2356   0.2406
  0.2479   0.2519   0.2552   0.2602   0.2654   0.2694   0.2764   0.2838
  0.2871   0.2919   0.2951   0.3023   0.3109   0.3117   0.3183   0.3196
  0.3244   0.3313   0.3326   0.3391   0.3405   0.3431   0.3493   0.3522
  0.3538   0.3568   0.3642   0.3663   0.3692   0.3760   0.3776   0.3832
  0.3850   0.3909   0.3949   0.3972   0.4082   0.4088   0.4122   0.4190
  0.4236   0.4287   0.4323   0.4404   0.4442   0.4480   0.4557   0.4579
  0.4601   0.4630   0.4738   0.4797   0.4813   0.4868   0.4891   0.4914
  0.4944   0.4953   0.5080   0.5126   0.5153   0.5198   0.5227   0.5263
  0.5291   0.5341   0.5392   0.5434   0.5504   0.5614   0.5616   0.5662
  0.5730   0.5773   0.5806   0.5864   0.5986   0.6048   0.6138   0.6187
  0.6220   0.6253   0.6332   0.6456   0.6534   0.6579   0.6612   0.6666
  0.6753   0.6895   0.6901   0.6927   0.6969   0.7044   0.7147   0.7231
  0.7320   0.7364   0.7424   0.7454   0.7487   0.7596   0.7601   0.7644
  0.7748   0.7773   0.7880   0.7896   0.7945   0.7973   0.8045   0.8099
  0.8156   0.8182   0.8236   0.8323   0.8401   0.8451   0.8520   0.8604
  0.8633   0.8736   0.8765   0.8820   0.8860   0.8939   0.8992   0.9083
  0.9214   0.9284   0.9408   0.9480   0.9501   0.9653   0.9725   0.9792
  0.9846   0.9919   1.0004   1.0122   1.0241   1.0281   1.0556   1.0616
  1.0675   1.0837   1.0946   1.1012   1.1070   1.1236   1.1406   1.1635
  1.1698   1.1927   1.1996   1.2011   1.2223   1.2306   1.2336   1.2485
  1.2607   1.2736   1.2899   1.2943   1.3012   1.3107   1.3162   1.3182
  1.3524   1.3636   1.3711   1.3809   1.4055   1.4132   1.4200   1.4451
  1.4499   1.4724   1.4877   1.5046   1.5335   1.5456   1.5974   1.6251
  1.6519   1.6612   1.6913   1.7130   1.7355   1.7601   1.7704   1.7854
  1.8066   1.8245   1.8562   1.8704   1.8788   1.8870   1.9011   1.9078
  1.9143   1.9181   1.9268   1.9356   1.9447   1.9523   1.9569   1.9637
  1.9748   1.9765   1.9908   1.9986   2.0128   2.0303   2.0421   2.0551
  2.0671   2.0764   2.0930   2.1118   2.1367   2.1476   2.1663   2.1760
  2.1926   2.2070   2.2171   2.2417   2.2486   2.2670   2.2776   2.2852
  2.2955   2.3144   2.3308   2.3339   2.3542   2.3795   2.3946   2.4237
  2.4283   2.4440   2.4507   2.4719   2.4855   2.5003   2.5103   2.5239
  2.5389   2.5681   2.5802   2.5865   2.6128   2.6230   2.6348   2.6430
  2.6544   2.6731   2.6902   2.7047   2.7065   2.7154   2.7499   2.7568
  2.7784   2.7968   2.8105   2.8342   2.8450   2.8638   2.8727   2.8773
  2.8804   2.8896   2.9152   2.9273   2.9422   2.9505   2.9686   2.9806
  2.9935   2.9981   3.0574   3.0679   3.0952   3.1040   3.1375   3.1680
  3.1796   3.2102   3.2214   3.2319   3.2468   3.2520   3.2693   3.2812
  3.3002   3.3044   3.3206   3.3248   3.3376   3.3444   3.3637   3.3661
  3.3781   3.3891   3.3937   3.3982   3.4095   3.4330   3.4475   3.4628
  3.4705   3.4782   3.4804   3.4849   3.4989   3.5068   3.5253   3.5538
  3.5772   3.5905   3.6107   3.6223   3.6399   3.6558   3.6622   3.6694
  3.6955   3.7116   3.7182   3.7358   3.7379   3.7454   3.7636   3.7879
  3.8425   3.8508   3.8606   3.9234   3.9271   3.9764   3.9800   4.0042
  4.0359   4.0646   4.0912   4.1068   4.1217   4.1324   4.1513   4.2328
  4.2647   4.2800   4.3368   4.3463   4.3720   4.4422   4.4975   4.5245
  4.5780   4.6047   4.6094   4.6577   4.6822   4.6876   4.7041   4.7177
  4.7610   4.7802   4.8566   4.8630   4.9483   4.9869   4.9963   5.0080
  5.0354   5.0455   5.1797   5.2152   5.2310   5.2554   5.2673   5.3010
  5.3534   5.3576   5.4198   5.4431   5.4500   5.4657   5.4909   5.5116
  5.6239   5.6577   5.6586   5.6912   5.7446   5.7611   5.7798   5.8159
  5.9792   6.0048   6.1188   6.1302   6.2544   6.2673   6.5106   6.5369
  6.6881   6.6990   6.7483   6.7976   6.8398   6.8802   7.0283   7.0349
  7.2783   7.2900   7.3530   7.3620  22.6439  22.6552  22.7138  22.7219
 23.5886  23.7053  32.7293  32.7493  44.4116  44.4492
 --------------------------------------------------------------

          Ground-State Mulliken Net Atomic Charges

     Atom                 Charge (a.u.)
  ----------------------------------------
      1 C                    -0.223903
      2 H                    -0.276421
      3 C                     0.490012
      4 O                    -0.591489
      5 N                    -0.036509
      6 H                     0.208113
      7 C                    -0.777304
      8 H                     0.277427
      9 H                     0.213434
     10 H                     0.173688
     11 H                     0.249788
     12 H                     0.272140
     13 C                    -0.547114
     14 H                     0.034599
     15 C                     0.458111
     16 O                    -0.571225
     17 N                    -0.022720
     18 H                     0.238123
     19 C                    -0.632557
     20 H                     0.195901
     21 H                     0.264653
     22 H                     0.127381
     23 H                     0.254516
     24 H                     0.221354
  ----------------------------------------
  Sum of atomic charges =     0.000000

 -----------------------------------------------------------------
                    Cartesian Multipole Moments
 -----------------------------------------------------------------
    Charge (ESU x 10^10)
                -0.0000
    Dipole Moment (Debye)
         X       0.8129      Y       2.4689      Z       1.7426
       Tot       3.1293
    Quadrupole Moments (Debye-Ang)
        XX     -54.7674     XY      70.5122     YY      72.1965
        XZ      44.7785     YZ      84.0734     ZZ       7.5798
    Octopole Moments (Debye-Ang^2)
       XXX   -3842.4359    XXY    -411.5327    XYY    2071.9012
       YYY     631.7974    XXZ    -368.5813    XYZ    1941.8149
       YYZ    2240.8694    XZZ     331.8087    YZZ     805.7683
       ZZZ   -1136.1092
    Hexadecapole Moments (Debye-Ang^3)
      XXXX -152905.9392   XXXY  -78917.5553   XXYY   -4148.6718
      XYYY   32900.6292   YYYY  -54159.2980   XXXZ  -54605.3939
      XXYZ    6451.7964   XYYZ   53056.1065   YYYZ   35065.3280
      XXZZ  -14725.7949   XYZZ   20819.3498   YYZZ   20372.0604
      XZZZ  -17910.6192   YZZZ  -19952.2556   ZZZZ  -56898.8815
 -----------------------------------------------------------------
Archival summary:
1\1\compute-0-13.local\SP\ProcedureUnspecified\BasisUnspecified\22614\meili\MonMay1013:08:042021MonMay1013:08:042021\0\\#,ProcedureUnspecified,BasisUnspecified,\\0,1\N\H,1,1.02267\C,1,1.2959,2,123.074\O,3,1.24488,1,121.914,2,-171.953,0\C,1,1.46542,2,111.82,3,-166.196,0\H,5,1.07014,1,109.266,2,-55.7808,0\H,5,1.07015,1,109.01,2,64.4753,0\H,5,1.09716,1,110.276,2,-175.916,0\C,3,1.50585,1,116.34,2,4.71565,0\H,9,1.06992,3,114.082,1,160.318,0\H,9,1.06996,3,111.409,1,-81.5197,0\H,9,1.07766,3,101.471,1,37.1982,0\H,12,2.08537,9,162.389,3,73.0919,0\C,13,1.08745,12,156.833,9,-72.211,0\H,14,1.06973,13,109.566,12,146.387,0\H,14,1.06983,13,109.631,12,-93.7335,0\C,14,1.56998,13,109.154,12,26.4271,0\O,17,1.24363,14,121.432,13,-123.136,0\N,17,1.3205,14,117.894,13,60.3542,0\H,19,1.00872,17,115.752,14,-19.3412,0\C,19,1.48861,17,124.287,14,170.787,0\H,21,1.0699,19,109.464,17,173.274,0\H,21,1.06991,19,109.438,17,-66.7014,0\H,21,1.13093,19,109.511,17,53.2463,0\\\@

 Total job time:  14330.40s(wall), 28136.44s(cpu) 
 Mon May 10 13:08:04 2021

        *************************************************************
        *                                                           *
        *  Thank you very much for using Q-Chem.  Have a nice day.  *
        *                                                           *
        *************************************************************


