                  Welcome to Q-Chem
     A Quantum Leap Into The Future Of Chemistry


 Q-Chem 5.2 (devel), Q-Chem, Inc., Pleasanton, CA (2019)

 Yihan Shao,  Zhengting Gan,  E. Epifanovsky,  A. T. B. Gilbert,  M. Wormit,  
 J. Kussmann,  A. W. Lange,  A. Behn,  Jia Deng,  Xintian Feng,  D. Ghosh,  
 M. Goldey,  P. R. Horn,  L. D. Jacobson,  I. Kaliman,  T. Kus,  A. Landau,  
 Jie Liu,  E. I. Proynov,  R. M. Richard,  R. P. Steele,  E. J. Sundstrom,  
 H. L. Woodcock III,  P. M. Zimmerman,  D. Zuev,  B. Albrecht,  E. Alguire,  
 S. A. Baeppler,  D. Barton,  Z. Benda,  Y. A. Bernard,  E. J. Berquist,  
 K. B. Bravaya,  H. Burton,  D. Casanova,  Chun-Min Chang,  Yunqing Chen,  
 A. Chien,  K. D. Closser,  M. P. Coons,  S. Coriani,  S. Dasgupta,  
 A. L. Dempwolff,  M. Diedenhofen,  Hainam Do,  R. G. Edgar,  Po-Tung Fang,  
 S. Faraji,  S. Fatehi,  Qingguo Feng,  K. D. Fenk,  J. Fosso-Tande,  
 J. Gayvert,  Qinghui Ge,  A. Ghysels,  G. Gidofalvi,  J. Gomes,  
 J. Gonthier,  A. Gunina,  D. Hait,  M. W. D. Hanson-Heine,  
 P. H. P. Harbach,  A. W. Hauser,  M. F. Herbst,  J. E. Herr,  
 E. G. Hohenstein,  Z. C. Holden,  Kerwin Hui,  B. C. Huynh,  T.-C. Jagau,  
 Hyunjun Ji,  B. Kaduk,  K. Khistyaev,  Jaehoon Kim,  P. Klunzinger,  K. Koh,  
 D. Kosenkov,  L. Koulias,  T. Kowalczyk,  C. M. Krauter,  A. Kunitsa,  
 Ka Un Lao,  A. Laurent,  K. V. Lawler,  Joonho Lee,  D. Lefrancois,  
 S. Lehtola,  D. S. Levine,  Yi-Pei Li,  You-Sheng Lin,  Fenglai Liu,  
 E. Livshits,  A. Luenser,  P. Manohar,  E. Mansoor,  S. F. Manzer,  
 Shan-Ping Mao,  Yuezhi Mao,  N. Mardirossian,  A. V. Marenich,  
 T. Markovich,  L. A. Martinez-Martinez,  S. A. Maurer,  N. J. Mayhall,  
 S. C. McKenzie,  J.-M. Mewes,  P. Morgante,  A. F. Morrison,  
 J. W. Mullinax,  K. Nanda,  T. S. Nguyen-Beck,  R. Olivares-Amaya,  
 J. A. Parkhill,  Zheng Pei,  T. M. Perrine,  F. Plasser,  P. Pokhilko,  
 S. Prager,  A. Prociuk,  E. Ramos,  D. R. Rehn,  F. Rob,  M. Scheurer,  
 M. Schneider,  N. Sergueev,  S. M. Sharada,  S. Sharma,  D. W. Small,  
 T. Stauch,  T. Stein,  Yu-Chuan Su,  A. J. W. Thom,  A. Tkatchenko,  
 T. Tsuchimochi,  N. M. Tubman,  L. Vogt,  M. L. Vidal,  O. Vydrov,  
 M. A. Watson,  J. Wenzel,  M. de Wergifosse,  T. A. Wesolowski,  A. White,  
 J. Witte,  A. Yamada,  Jun Yang,  K. Yao,  S. Yeganeh,  S. R. Yost,  
 Zhi-Qiang You,  A. Zech,  Igor Ying Zhang,  Xing Zhang,  Yan Zhao,  
 Ying Zhu,  B. R. Brooks,  G. K. L. Chan,  C. J. Cramer,  M. S. Gordon,  
 W. J. Hehre,  A. Klamt,  M. W. Schmidt,  C. D. Sherrill,  D. G. Truhlar,  
 A. Aspuru-Guzik,  R. Baer,  A. T. Bell,  N. A. Besley,  Jeng-Da Chai,  
 A. E. DePrince, III,  R. A. DiStasio Jr.,  A. Dreuw,  B. D. Dunietz,  
 T. R. Furlani,  Chao-Ping Hsu,  Yousung Jung,  Jing Kong,  D. S. Lambrecht,  
 WanZhen Liang,  C. Ochsenfeld,  V. A. Rassolov,  L. V. Slipchenko,  
 J. E. Subotnik,  T. Van Voorhis,  J. M. Herbert,  A. I. Krylov,  
 P. M. W. Gill,  M. Head-Gordon

 Contributors to earlier versions of Q-Chem not listed above: 
 R. D. Adamson,  B. Austin,  J. Baker,  G. J. O. Beran,  K. Brandhorst,  
 S. T. Brown,  E. F. C. Byrd,  A. K. Chakraborty,  C.-L. Cheng,  
 Siu Hung Chien,  D. M. Chipman,  D. L. Crittenden,  H. Dachsel,  
 R. J. Doerksen,  A. D. Dutoi,  L. Fusti-Molnar,  W. A. Goddard III,  
 A. Golubeva-Zadorozhnaya,  S. R. Gwaltney,  G. Hawkins,  A. Heyden,  
 S. Hirata,  G. Kedziora,  F. J. Keil,  C. Kelley,  Jihan Kim,  R. A. King,  
 R. Z. Khaliullin,  P. P. Korambath,  W. Kurlancheek,  A. M. Lee,  M. S. Lee,  
 S. V. Levchenko,  Ching Yeh Lin,  D. Liotard,  R. C. Lochan,  I. Lotan,  
 P. E. Maslen,  N. Nair,  D. P. O'Neill,  D. Neuhauser,  E. Neuscamman,  
 C. M. Oana,  R. Olson,  B. Peters,  R. Peverati,  P. A. Pieniazek,  
 Y. M. Rhee,  J. Ritchie,  M. A. Rohrdanz,  E. Rosta,  N. J. Russ,  
 H. F. Schaefer III,  N. E. Schultz,  N. Shenvi,  A. C. Simmonett,  A. Sodt,  
 D. Stuck,  K. S. Thanthiriwatte,  V. Vanovschi,  Tao Wang,  A. Warshel,  
 C. F. Williams,  Q. Wu,  X. Xu,  W. Zhang

 Please cite Q-Chem as follows:
 Y. Shao et al., Mol. Phys. 113, 184-215 (2015)
 DOI: 10.1080/00268976.2014.952696

 Q-Chem 5.2.1 for Intel X86 EM64T Linux

 Parts of Q-Chem use Armadillo 8.300.2 (Tropical Shenanigans).
 http://arma.sourceforge.net/

 Q-Chem begins on Mon May 10 09:09:10 2021  

compute-0-1.local
Host: 0

     Scratch files written to /home/meili/scratch/qchem42412//
NAlpha2: 80
NElect   80
Mult     1

 Q-Chem warning in module libgen/rem_setup.C, line 2813:

 Neither GIA nor STOLL is specified by user. Use STOLL as the default


Checking the input file for inconsistencies... 	...done.

--------------------------------------------------------------
User input:
--------------------------------------------------------------
$comment
1vex_ff99sbtip3p_nvt_e8_100ns_m6607_001GLY_002SER_040CYX_041ASN.pdb
$end

$molecule
0 1
--
0 1
C    19.0380000000   34.8870000000   22.0160000000
H    19.3280000000   35.9170000000   22.0600000000
C    17.7510000000   34.9970000000   21.1500000000
O    16.6280000000   35.0860000000   21.7150000000
N    17.9650000000   35.0900000000   19.8070000000
H    18.9110000000   34.9680000000   19.4650000000
C    16.9760000000   35.6720000000   18.8860000000
H    16.0420000000   35.9370000000   19.3960000000
H    19.7850000000   34.2860000000   21.5410000000
H    18.8980000000   34.4200000000   22.9690000000
H    17.3920000000   36.5550000000   18.4470000000
H    16.7480000000   34.9380000000   18.1420000000
--
0 1
C    18.7060000000   30.5770000000   20.5090000000
H    18.4850000000   31.0230000000   19.5080000000
C    17.6470000000   31.1690000000   21.5160000000
O    17.9750000000   31.6590000000   22.6040000000
N    16.3830000000   31.2450000000   21.1230000000
H    16.1700000000   30.8710000000   20.1960000000
C    15.2640000000   31.9950000000   21.7590000000
H    15.7130000000   32.9140000000   22.2650000000
H    19.6960000000   30.8400000000   20.8190000000
H    18.6480000000   29.5090000000   20.4750000000
H    14.7770000000   31.3790000000   22.4860000000
H    14.5390000000   32.2830000000   21.0270000000
$end

$rem
JOBTYPE			EDA
EDA2			1
method			wB97X-V
BASIS			def2-TZVPD
XC_GRID			000099000590
NL_GRID			1
UNRESTRICTED		FALSE
MAX_SCF_CYCLES		200
SYMMETRY		FALSE
SYM_IGNORE		TRUE
MEM_STATIC		2000
BASIS_LIN_DEP_THRESH 	6
THRESH 			14
SCF_CONVERGENCE 	8
SCF_PRINT_FRGM 		TRUE
$end
--------------------------------------------------------------
 ----------------------------------------------------------------
             Standard Nuclear Orientation (Angstroms)
    I     Atom           X                Y                Z
 ----------------------------------------------------------------
    1      C      19.0380000000    34.8870000000    22.0160000000
    2      H      19.3280000000    35.9170000000    22.0600000000
    3      C      17.7510000000    34.9970000000    21.1500000000
    4      O      16.6280000000    35.0860000000    21.7150000000
    5      N      17.9650000000    35.0900000000    19.8070000000
    6      H      18.9110000000    34.9680000000    19.4650000000
    7      C      16.9760000000    35.6720000000    18.8860000000
    8      H      16.0420000000    35.9370000000    19.3960000000
    9      H      19.7850000000    34.2860000000    21.5410000000
   10      H      18.8980000000    34.4200000000    22.9690000000
   11      H      17.3920000000    36.5550000000    18.4470000000
   12      H      16.7480000000    34.9380000000    18.1420000000
   13      C      18.7060000000    30.5770000000    20.5090000000
   14      H      18.4850000000    31.0230000000    19.5080000000
   15      C      17.6470000000    31.1690000000    21.5160000000
   16      O      17.9750000000    31.6590000000    22.6040000000
   17      N      16.3830000000    31.2450000000    21.1230000000
   18      H      16.1700000000    30.8710000000    20.1960000000
   19      C      15.2640000000    31.9950000000    21.7590000000
   20      H      15.7130000000    32.9140000000    22.2650000000
   21      H      19.6960000000    30.8400000000    20.8190000000
   22      H      18.6480000000    29.5090000000    20.4750000000
   23      H      14.7770000000    31.3790000000    22.4860000000
   24      H      14.5390000000    32.2830000000    21.0270000000
 ----------------------------------------------------------------
 Nuclear Repulsion Energy =         547.36156082 hartrees
 There are       40 alpha and       40 beta electrons
 Requested basis set is def2-TZVPD
 There are 202 shells and 502 basis functions

 Total QAlloc Memory Limit   2000 MB
 Mega-Array Size      1956 MB
 MEM_STATIC part      2000 MB
 A cutoff of  1.0D-14 yielded  18510 shell pairs
 There are    115372 function pairs (    144114 Cartesian)
 Smallest overlap matrix eigenvalue = 7.28E-06

 Scale SEOQF with 1.000000e-03/1.000000e-03/1.000000e-03

 Standard Electronic Orientation quadrupole field applied
 Nucleus-field energy     =     0.0000000340 hartrees

 -----------------------------------------------------------------------
  General SCF calculation program by
  Eric Jon Sundstrom, Paul Horn, Yuezhi Mao, Dmitri Zuev, Alec White,
  David Stuck, Shaama M.S., Shane Yost, Joonho Lee, David Small,
  Daniel Levine, Susi Lehtola, Hugh Burton, Evgeny Epifanovsky,
  Bang C. Huynh
 -----------------------------------------------------------------------
================================================================
                 ALMO-EDA with the EDA2 driver                  
================================================================
 The second-generation ALMO-EDA (for DFT):                      
 P. R. Horn, Y. Mao and M. Head-Gordon, PCCP, 18, 23067 (2016)  
 Decomposition of the frozen energy:                            
 P. R. Horn, Y. Mao and M. Head-Gordon, JCP, 144, 114107 (2016) 
 FERF model for polarization:                                   
 P. R. Horn and M. Head-Gordon, JCP, 143, 114111 (2015)         
Using eda2 option set 1
Option set summary: Frozen orbital wavefunction, initial wavefunction decomposition, and nDQ polarization.
--------------------------------
Printing EDA Options
--------------------------------
eda_child_super_basis      0
fragmo_guess_mode          0
child_mp                   1
child_mp_orders            232
cls_elec                   1
cls_disp                   0
scfmi_mode                 1
scfmi_occs                 0
scfmi_virts                0
frz_relax                  0
frz_relax_method           0
dc_pen_start               0
dc_pen_conv                0
dc_pen_increment           0
dc_pen_steps               0
dc_pen_thresh_factor       0
dc_pen_pre_newton_thresh   0
frz_ortho_decomp           1
frz_ortho_decomp_conv      6
frgm_method                2
scfmi_freeze_ss            0
separate_rehyb             0
plot_diff_den              0
eda_nocv                   0
eda_vct_relax              1
disp_free_x                0
disp_free_c                0
eda_bsse                   0
eda_pct_a                  0
eda_covp                   0
--------------------------------
Attempting to make child job directory: /home/meili/scratch/qchem42412//Frg1/
Attempting to make child job directory: /home/meili/scratch/qchem42412//Frg2/
Creating input file /home/meili/scratch/qchem42412/Frg1.input
using default PutDataFrgm: nothing
calling putenv with: QCSCRATCH=/home/meili/scratch/qchem42412/ 
Spawning Job For Fragment 0
                  Welcome to Q-Chem
     A Quantum Leap Into The Future Of Chemistry


 Q-Chem 5.2 (devel), Q-Chem, Inc., Pleasanton, CA (2019)

 Yihan Shao,  Zhengting Gan,  E. Epifanovsky,  A. T. B. Gilbert,  M. Wormit,  
 J. Kussmann,  A. W. Lange,  A. Behn,  Jia Deng,  Xintian Feng,  D. Ghosh,  
 M. Goldey,  P. R. Horn,  L. D. Jacobson,  I. Kaliman,  T. Kus,  A. Landau,  
 Jie Liu,  E. I. Proynov,  R. M. Richard,  R. P. Steele,  E. J. Sundstrom,  
 H. L. Woodcock III,  P. M. Zimmerman,  D. Zuev,  B. Albrecht,  E. Alguire,  
 S. A. Baeppler,  D. Barton,  Z. Benda,  Y. A. Bernard,  E. J. Berquist,  
 K. B. Bravaya,  H. Burton,  D. Casanova,  Chun-Min Chang,  Yunqing Chen,  
 A. Chien,  K. D. Closser,  M. P. Coons,  S. Coriani,  S. Dasgupta,  
 A. L. Dempwolff,  M. Diedenhofen,  Hainam Do,  R. G. Edgar,  Po-Tung Fang,  
 S. Faraji,  S. Fatehi,  Qingguo Feng,  K. D. Fenk,  J. Fosso-Tande,  
 J. Gayvert,  Qinghui Ge,  A. Ghysels,  G. Gidofalvi,  J. Gomes,  
 J. Gonthier,  A. Gunina,  D. Hait,  M. W. D. Hanson-Heine,  
 P. H. P. Harbach,  A. W. Hauser,  M. F. Herbst,  J. E. Herr,  
 E. G. Hohenstein,  Z. C. Holden,  Kerwin Hui,  B. C. Huynh,  T.-C. Jagau,  
 Hyunjun Ji,  B. Kaduk,  K. Khistyaev,  Jaehoon Kim,  P. Klunzinger,  K. Koh,  
 D. Kosenkov,  L. Koulias,  T. Kowalczyk,  C. M. Krauter,  A. Kunitsa,  
 Ka Un Lao,  A. Laurent,  K. V. Lawler,  Joonho Lee,  D. Lefrancois,  
 S. Lehtola,  D. S. Levine,  Yi-Pei Li,  You-Sheng Lin,  Fenglai Liu,  
 E. Livshits,  A. Luenser,  P. Manohar,  E. Mansoor,  S. F. Manzer,  
 Shan-Ping Mao,  Yuezhi Mao,  N. Mardirossian,  A. V. Marenich,  
 T. Markovich,  L. A. Martinez-Martinez,  S. A. Maurer,  N. J. Mayhall,  
 S. C. McKenzie,  J.-M. Mewes,  P. Morgante,  A. F. Morrison,  
 J. W. Mullinax,  K. Nanda,  T. S. Nguyen-Beck,  R. Olivares-Amaya,  
 J. A. Parkhill,  Zheng Pei,  T. M. Perrine,  F. Plasser,  P. Pokhilko,  
 S. Prager,  A. Prociuk,  E. Ramos,  D. R. Rehn,  F. Rob,  M. Scheurer,  
 M. Schneider,  N. Sergueev,  S. M. Sharada,  S. Sharma,  D. W. Small,  
 T. Stauch,  T. Stein,  Yu-Chuan Su,  A. J. W. Thom,  A. Tkatchenko,  
 T. Tsuchimochi,  N. M. Tubman,  L. Vogt,  M. L. Vidal,  O. Vydrov,  
 M. A. Watson,  J. Wenzel,  M. de Wergifosse,  T. A. Wesolowski,  A. White,  
 J. Witte,  A. Yamada,  Jun Yang,  K. Yao,  S. Yeganeh,  S. R. Yost,  
 Zhi-Qiang You,  A. Zech,  Igor Ying Zhang,  Xing Zhang,  Yan Zhao,  
 Ying Zhu,  B. R. Brooks,  G. K. L. Chan,  C. J. Cramer,  M. S. Gordon,  
 W. J. Hehre,  A. Klamt,  M. W. Schmidt,  C. D. Sherrill,  D. G. Truhlar,  
 A. Aspuru-Guzik,  R. Baer,  A. T. Bell,  N. A. Besley,  Jeng-Da Chai,  
 A. E. DePrince, III,  R. A. DiStasio Jr.,  A. Dreuw,  B. D. Dunietz,  
 T. R. Furlani,  Chao-Ping Hsu,  Yousung Jung,  Jing Kong,  D. S. Lambrecht,  
 WanZhen Liang,  C. Ochsenfeld,  V. A. Rassolov,  L. V. Slipchenko,  
 J. E. Subotnik,  T. Van Voorhis,  J. M. Herbert,  A. I. Krylov,  
 P. M. W. Gill,  M. Head-Gordon

 Contributors to earlier versions of Q-Chem not listed above: 
 R. D. Adamson,  B. Austin,  J. Baker,  G. J. O. Beran,  K. Brandhorst,  
 S. T. Brown,  E. F. C. Byrd,  A. K. Chakraborty,  C.-L. Cheng,  
 Siu Hung Chien,  D. M. Chipman,  D. L. Crittenden,  H. Dachsel,  
 R. J. Doerksen,  A. D. Dutoi,  L. Fusti-Molnar,  W. A. Goddard III,  
 A. Golubeva-Zadorozhnaya,  S. R. Gwaltney,  G. Hawkins,  A. Heyden,  
 S. Hirata,  G. Kedziora,  F. J. Keil,  C. Kelley,  Jihan Kim,  R. A. King,  
 R. Z. Khaliullin,  P. P. Korambath,  W. Kurlancheek,  A. M. Lee,  M. S. Lee,  
 S. V. Levchenko,  Ching Yeh Lin,  D. Liotard,  R. C. Lochan,  I. Lotan,  
 P. E. Maslen,  N. Nair,  D. P. O'Neill,  D. Neuhauser,  E. Neuscamman,  
 C. M. Oana,  R. Olson,  B. Peters,  R. Peverati,  P. A. Pieniazek,  
 Y. M. Rhee,  J. Ritchie,  M. A. Rohrdanz,  E. Rosta,  N. J. Russ,  
 H. F. Schaefer III,  N. E. Schultz,  N. Shenvi,  A. C. Simmonett,  A. Sodt,  
 D. Stuck,  K. S. Thanthiriwatte,  V. Vanovschi,  Tao Wang,  A. Warshel,  
 C. F. Williams,  Q. Wu,  X. Xu,  W. Zhang

 Please cite Q-Chem as follows:
 Y. Shao et al., Mol. Phys. 113, 184-215 (2015)
 DOI: 10.1080/00268976.2014.952696

 Q-Chem 5.2.1 for Intel X86 EM64T Linux

 Parts of Q-Chem use Armadillo 8.300.2 (Tropical Shenanigans).
 http://arma.sourceforge.net/

 Q-Chem begins on Mon May 10 09:10:41 2021  

compute-0-1.local
Host: 0

     Scratch files written to /home/meili/scratch/qchem42412//Frg1//
NAlpha2: 40
NElect   40
Mult     1

Checking the input file for inconsistencies... 	...done.

--------------------------------------------------------------
User input:
--------------------------------------------------------------
$molecule
0 1
 6	19.0380000000	34.8870000000	22.0160000000
 1	19.3280000000	35.9170000000	22.0600000000
 6	17.7510000000	34.9970000000	21.1500000000
 8	16.6280000000	35.0860000000	21.7150000000
 7	17.9650000000	35.0900000000	19.8070000000
 1	18.9110000000	34.9680000000	19.4650000000
 6	16.9760000000	35.6720000000	18.8860000000
 1	16.0420000000	35.9370000000	19.3960000000
 1	19.7850000000	34.2860000000	21.5410000000
 1	18.8980000000	34.4200000000	22.9690000000
 1	17.3920000000	36.5550000000	18.4470000000
 1	16.7480000000	34.9380000000	18.1420000000
$end
$rem
EDA2		1
METHOD		WB97X-V
BASIS		DEF2-TZVPD
XC_GRID		000099000590
NL_GRID		1
UNRESTRICTED		FALSE
MAX_SCF_CYCLES		200
SYMMETRY		FALSE
SYM_IGNORE		TRUE
BASIS_LIN_DEP_THRESH		6
THRESH		14
SCF_CONVERGENCE		8
SCF_PRINT_FRGM		TRUE
!required keywords
JOBTYPE		SP
SYM_IGNORE		TRUE
SUBSYSTEM		TRUE
GEN_SCFMAN		TRUE
CHILD_INSTRUCTION		2
SYM_IGNORE		TRUE
SCFMI		0
RI_K 0		
PARI_K 0		
MIN_PARI_K 0		
IARI_K 0		
OCC_RI_K 0		
PURECART		1111
MEM_STATIC		2000
MEM_TOTAL		2000
GUI		0
CHILD_MP		1
CHILD_MP_ORDERS		232
FRZ_RELAX		0
FRZ_RELAX_METHOD		0
EDA_CLS_ELEC		1
EDA_CLS_DISP		0
FRZ_ORTHO_DECOMP		1
EDA2		FALSE
FRGM_METHOD		FALSE
CIS_N_ROOTS  0
LOCAL_CIS    0
CIS_RLX_DNS  1
$end
--------------------------------------------------------------
 ----------------------------------------------------------------
             Standard Nuclear Orientation (Angstroms)
    I     Atom           X                Y                Z
 ----------------------------------------------------------------
    1      C      19.0380000000    34.8870000000    22.0160000000
    2      H      19.3280000000    35.9170000000    22.0600000000
    3      C      17.7510000000    34.9970000000    21.1500000000
    4      O      16.6280000000    35.0860000000    21.7150000000
    5      N      17.9650000000    35.0900000000    19.8070000000
    6      H      18.9110000000    34.9680000000    19.4650000000
    7      C      16.9760000000    35.6720000000    18.8860000000
    8      H      16.0420000000    35.9370000000    19.3960000000
    9      H      19.7850000000    34.2860000000    21.5410000000
   10      H      18.8980000000    34.4200000000    22.9690000000
   11      H      17.3920000000    36.5550000000    18.4470000000
   12      H      16.7480000000    34.9380000000    18.1420000000
 ----------------------------------------------------------------
 Nuclear Repulsion Energy =         177.96930728 hartrees
 There are       20 alpha and       20 beta electrons
 Requested basis set is def2-TZVPD
 There are 101 shells and 251 basis functions

 Total QAlloc Memory Limit   2000 MB
 Mega-Array Size      1956 MB
 MEM_STATIC part      2000 MB

                       Distance Matrix (Angstroms)
             C (  1)   H (  2)   C (  3)   O (  4)   N (  5)   H (  6)
   H (  2)  1.070951
   C (  3)  1.555129  2.039958
   O (  4)  2.436863  2.845977  1.260268
   N (  5)  2.464187  2.760019  1.363119  2.329817
   H (  6)  2.555443  2.794372  2.045890  3.207571  1.013294
   C (  7)  3.829487  3.958056  2.486352  2.909938  1.471423  2.138944
   H (  8)  4.116177  4.230259  2.623127  2.538771  2.141088  3.029007
   H (  9)  1.069970  1.771545  2.189876  3.261430  2.639237  2.353460
   H ( 10)  1.070466  1.803383  2.226499  2.677494  3.364169  3.546617
   H ( 11)  4.269579  4.148362  3.140454  3.663534  2.079460  2.421209
   H ( 12)  4.500509  4.792240  3.171365  3.578077  2.067950  2.535705
             C (  7)   H (  8)   H (  9)   H ( 10)   H ( 11)
   H (  8)  1.096668
   H (  9)  4.106154  4.619186
   H ( 10)  4.683212  4.819165  1.686389
   H ( 11)  1.070264  1.762108  4.521907  5.222523
   H ( 12)  1.069708  1.751843  4.604528  5.309496  1.767046

 A cutoff of  1.0D-14 yielded   5029 shell pairs
 There are     31627 function pairs (     39781 Cartesian)
 Smallest overlap matrix eigenvalue = 1.03E-05

 Scale SEOQF with 1.000000e-03/1.000000e-03/1.000000e-03

 Standard Electronic Orientation quadrupole field applied
 Nucleus-field energy     =     0.0000000215 hartrees
 Guess from superposition of atomic densities
 Warning:  Energy on first SCF cycle will be non-variational
 SAD guess density has 40.000000 electrons

 -----------------------------------------------------------------------
  General SCF calculation program by
  Eric Jon Sundstrom, Paul Horn, Yuezhi Mao, Dmitri Zuev, Alec White,
  David Stuck, Shaama M.S., Shane Yost, Joonho Lee, David Small,
  Daniel Levine, Susi Lehtola, Hugh Burton, Evgeny Epifanovsky,
  Bang C. Huynh
 -----------------------------------------------------------------------
 Exchange:     0.1670 Hartree-Fock + 1.0000 wB97X-V + LR-HF
 Correlation:  1.0000 wB97X-V
 Using Euler-Maclaurin-Lebedev (99,590) quadrature formula
 Nonlocal Correlation:  VV10 with C = 0.0100 and b = 6.00 and scale = 1.00000
 Grid used for NLC:  SG-1 standard quadrature
Energy prior to optimization (guess energy) = -248.411272873413
Begin Timing: Total SCF Calculation
begin iterations for algorithm: DIIS         
the SCF tolerance is set to 1.00e-08
    1    -248.4112728734      4.29e-03     00000 
    2    -248.3298037059      6.12e-03     00000 
    3    -248.5333952482      5.35e-04     00000 
    4    -248.5351383506      2.31e-04     00000 
    5    -248.5354986599      5.80e-05     00000 
    6    -248.5355288935      2.05e-05     00000 
    7    -248.5355343816      5.79e-06     00000 
    8    -248.5355351242      1.98e-06     00000 
    9    -248.5355351859      7.30e-07     00000 
   10    -248.5355351927      1.45e-07     00000 
   11    -248.5355351931      3.36e-08     00000 
   12    -248.5355351931      1.18e-08     00000 
   13    -248.5355351931      3.49e-09     00000 Convergence criterion met
Timing for Total SCF: 301.00s (wall), 1842.52s (cpu)
Multipole orders to be included
        2
        3
computing dipole RHS
computing quadrupole RHS
total number of RHS in solve_reponses: 8
RHS batch sizes
        8
Beginning Block Conjugate Gradient Iterations. Batch Number: 0
computing hessian-vector products by finite difference
              1      4.80e-01     00000 Conjugate Gradient Iteration
computing hessian-vector products by finite difference
              2      1.51e-01     00000 Conjugate Gradient Iteration
computing hessian-vector products by finite difference
              3      4.07e-02     00000 Conjugate Gradient Iteration
computing hessian-vector products by finite difference
              4      1.02e-02     00000 Conjugate Gradient Iteration
computing hessian-vector products by finite difference
              5      1.91e-03     00000 Conjugate Gradient Iteration
computing hessian-vector products by finite difference
              6      3.78e-04     00000 Conjugate Gradient Iteration
computing hessian-vector products by finite difference
              7      5.20e-05     00000 Conjugate Gradient Iteration
computing hessian-vector products by finite difference
              8      8.81e-06     00000 Conjugate Gradient Iteration
computing hessian-vector products by finite difference
              9      1.28e-06     00000 Conjugate Gradient Iteration
computing hessian-vector products by finite difference
             10      1.85e-07     00000 Conjugate Gradient Iteration
computing hessian-vector products by finite difference
             11      2.29e-08     00000 Conjugate Gradient Iteration
computing hessian-vector products by finite difference
             12      3.33e-09     00000 CG Converged
batch 0 complete
Done Calculating Responses
TESTING ORTHOGONALIZATION OF MULTIPOLE BASIS
Multipole virts passed orthogonality test
Virts Per Order
           60
          100

 --------------------------------------------------------------

                    Orbital Energies (a.u.)
 --------------------------------------------------------------

 Alpha MOs
 -- Occupied --
-19.1704 -14.4432 -10.3776 -10.3018 -10.2703  -1.1439  -1.0517  -0.8845
 -0.8232  -0.7054  -0.6189  -0.5855  -0.5737  -0.5505  -0.5122  -0.4985
 -0.4951  -0.4623  -0.3602  -0.3519
 -- Virtual --
  0.0537   0.0772   0.0944   0.1035   0.1075   0.1225   0.1342   0.1396
  0.1474   0.1569   0.1701   0.1792   0.1868   0.2041   0.2120   0.2251
  0.2331   0.2392   0.2533   0.2585   0.2669   0.2767   0.2796   0.2988
  0.3069   0.3161   0.3192   0.3377   0.3384   0.3431   0.3528   0.3561
  0.3606   0.3668   0.3814   0.3859   0.3922   0.4003   0.4023   0.4097
  0.4343   0.4457   0.4503   0.4566   0.4644   0.4713   0.4778   0.4825
  0.4927   0.4945   0.5089   0.5162   0.5220   0.5294   0.5325   0.5572
  0.5656   0.5823   0.5844   0.6036   0.6093   0.6461   0.6552   0.6619
  0.6833   0.6886   0.7016   0.7029   0.7280   0.7397   0.7482   0.7551
  0.7738   0.7863   0.8001   0.8062   0.8113   0.8199   0.8295   0.8361
  0.8558   0.8757   0.8975   0.9078   0.9344   0.9475   0.9880   1.0127
  1.0204   1.0411   1.0577   1.0796   1.1275   1.1384   1.1556   1.1816
  1.2156   1.2487   1.2531   1.2749   1.2812   1.3457   1.3541   1.3826
  1.4034   1.4461   1.4956   1.5246   1.5819   1.6944   1.7207   1.7330
  1.7501   1.8220   1.8351   1.8693   1.8734   1.8819   1.9053   1.9231
  1.9348   1.9509   1.9729   2.0174   2.0316   2.0685   2.0902   2.1298
  2.1399   2.1710   2.2095   2.2205   2.2939   2.3198   2.3503   2.3732
  2.3880   2.4358   2.4686   2.4837   2.4994   2.5601   2.5664   2.5917
  2.6096   2.6214   2.6615   2.6856   2.7402   2.7773   2.7840   2.8330
  2.8659   2.8751   2.9030   2.9472   2.9574   2.9947   3.0544   3.1274
  3.1451   3.1821   3.2050   3.2321   3.2423   3.2839   3.2870   3.3150
  3.3285   3.3626   3.3872   3.4077   3.4469   3.4702   3.5043   3.5522
  3.5570   3.5739   3.5848   3.6105   3.6336   3.6631   3.6804   3.7390
  3.8082   3.8871   3.8910   3.9453   4.0041   4.0467   4.0784   4.1562
  4.2722   4.3066   4.3819   4.4735   4.4881   4.6109   4.6878   4.7135
  4.7859   4.8037   4.9335   4.9567   4.9840   5.1731   5.2170   5.2606
  5.3089   5.3884   5.4566   5.4883   5.5351   5.5804   5.6792   5.7516
  5.8919   6.1150   6.2055   6.4755   6.6634   6.6887   6.7856   6.9949
  7.2255   7.3259  22.6329  22.6556  23.3864  32.6505  44.3237
 --------------------------------------------------------------

          Ground-State Mulliken Net Atomic Charges

     Atom                 Charge (a.u.)
  ----------------------------------------
      1 C                    -0.704323
      2 H                     0.165137
      3 C                     0.475516
      4 O                    -0.545704
      5 N                    -0.083634
      6 H                     0.191466
      7 C                    -0.721799
      8 H                     0.279158
      9 H                     0.258193
     10 H                     0.212875
     11 H                     0.245183
     12 H                     0.227932
  ----------------------------------------
  Sum of atomic charges =     0.000000

 -----------------------------------------------------------------
                    Cartesian Multipole Moments
 -----------------------------------------------------------------
    Charge (ESU x 10^10)
                -0.0000
    Dipole Moment (Debye)
         X       3.2265      Y       0.3126      Z      -2.7498
       Tot       4.2508
    Quadrupole Moments (Debye-Ang)
        XX      82.5470     XY     117.8540     YY      -8.8829
        XZ      21.5523     YZ     -91.2169     ZZ    -143.5969
    Octopole Moments (Debye-Ang^2)
       XXX    1352.1962    XXY    2960.1017    XYY    3752.4335
       YYY   -2095.8727    XXZ     963.7314    XYZ     831.2605
       YYZ   -3652.5575    XZZ   -1013.1013    YZZ   -4957.2855
       ZZZ   -5385.2396
    Hexadecapole Moments (Debye-Ang^3)
      XXXX   11928.1991   XXXY   48210.8371   XXYY   96392.0169
      XYYY   98990.0254   YYYY -174593.9701   XXXZ   15650.7386
      XXYZ   34774.6104   XYYZ   20509.2038   YYYZ -166463.9071
      XXZZ   -4750.5238   XYZZ  -34478.0676   YYZZ -184314.7943
      XZZZ  -62089.4716   YZZZ -187884.8124   ZZZZ -174622.7159
 -----------------------------------------------------------------
Archival summary:
1\1\compute-0-1.local\SP\ProcedureUnspecified\BasisUnspecified\1137\meili\MonMay1010:48:292021MonMay1010:48:292021\0\\#,ProcedureUnspecified,BasisUnspecified,\\0,1\N\H,1,1.01329\C,1,1.36312,2,118.092\O,3,1.26027,1,125.224,2,-177.775,0\C,1,1.47142,2,117.637,3,165.48,0\H,5,1.06971,1,107.89,2,71.975,0\H,5,1.07026,1,108.773,2,-48.9116,0\H,5,1.09667,1,112.144,2,-169.308,0\C,3,1.55513,1,115.059,2,7.32633,0\H,9,1.06997,3,111.734,1,-37.7325,0\H,9,1.07047,3,114.733,1,-155.757,0\H,9,1.07095,3,100.309,1,80.7381,0\\\@

 Total job time:  5867.97s(wall), 36544.52s(cpu) 
 Mon May 10 10:48:29 2021

        *************************************************************
        *                                                           *
        *  Thank you very much for using Q-Chem.  Have a nice day.  *
        *                                                           *
        *************************************************************


Done Job For Fragment 0
calling putenv with: QCSCRATCH=/home/meili/scratch 
calling putenv with: QCTHREADS=8 
Creating input file /home/meili/scratch/qchem42412/Frg2.input
using default PutDataFrgm: nothing
calling putenv with: QCSCRATCH=/home/meili/scratch/qchem42412/ 
Spawning Job For Fragment 1
                  Welcome to Q-Chem
     A Quantum Leap Into The Future Of Chemistry


 Q-Chem 5.2 (devel), Q-Chem, Inc., Pleasanton, CA (2019)

 Yihan Shao,  Zhengting Gan,  E. Epifanovsky,  A. T. B. Gilbert,  M. Wormit,  
 J. Kussmann,  A. W. Lange,  A. Behn,  Jia Deng,  Xintian Feng,  D. Ghosh,  
 M. Goldey,  P. R. Horn,  L. D. Jacobson,  I. Kaliman,  T. Kus,  A. Landau,  
 Jie Liu,  E. I. Proynov,  R. M. Richard,  R. P. Steele,  E. J. Sundstrom,  
 H. L. Woodcock III,  P. M. Zimmerman,  D. Zuev,  B. Albrecht,  E. Alguire,  
 S. A. Baeppler,  D. Barton,  Z. Benda,  Y. A. Bernard,  E. J. Berquist,  
 K. B. Bravaya,  H. Burton,  D. Casanova,  Chun-Min Chang,  Yunqing Chen,  
 A. Chien,  K. D. Closser,  M. P. Coons,  S. Coriani,  S. Dasgupta,  
 A. L. Dempwolff,  M. Diedenhofen,  Hainam Do,  R. G. Edgar,  Po-Tung Fang,  
 S. Faraji,  S. Fatehi,  Qingguo Feng,  K. D. Fenk,  J. Fosso-Tande,  
 J. Gayvert,  Qinghui Ge,  A. Ghysels,  G. Gidofalvi,  J. Gomes,  
 J. Gonthier,  A. Gunina,  D. Hait,  M. W. D. Hanson-Heine,  
 P. H. P. Harbach,  A. W. Hauser,  M. F. Herbst,  J. E. Herr,  
 E. G. Hohenstein,  Z. C. Holden,  Kerwin Hui,  B. C. Huynh,  T.-C. Jagau,  
 Hyunjun Ji,  B. Kaduk,  K. Khistyaev,  Jaehoon Kim,  P. Klunzinger,  K. Koh,  
 D. Kosenkov,  L. Koulias,  T. Kowalczyk,  C. M. Krauter,  A. Kunitsa,  
 Ka Un Lao,  A. Laurent,  K. V. Lawler,  Joonho Lee,  D. Lefrancois,  
 S. Lehtola,  D. S. Levine,  Yi-Pei Li,  You-Sheng Lin,  Fenglai Liu,  
 E. Livshits,  A. Luenser,  P. Manohar,  E. Mansoor,  S. F. Manzer,  
 Shan-Ping Mao,  Yuezhi Mao,  N. Mardirossian,  A. V. Marenich,  
 T. Markovich,  L. A. Martinez-Martinez,  S. A. Maurer,  N. J. Mayhall,  
 S. C. McKenzie,  J.-M. Mewes,  P. Morgante,  A. F. Morrison,  
 J. W. Mullinax,  K. Nanda,  T. S. Nguyen-Beck,  R. Olivares-Amaya,  
 J. A. Parkhill,  Zheng Pei,  T. M. Perrine,  F. Plasser,  P. Pokhilko,  
 S. Prager,  A. Prociuk,  E. Ramos,  D. R. Rehn,  F. Rob,  M. Scheurer,  
 M. Schneider,  N. Sergueev,  S. M. Sharada,  S. Sharma,  D. W. Small,  
 T. Stauch,  T. Stein,  Yu-Chuan Su,  A. J. W. Thom,  A. Tkatchenko,  
 T. Tsuchimochi,  N. M. Tubman,  L. Vogt,  M. L. Vidal,  O. Vydrov,  
 M. A. Watson,  J. Wenzel,  M. de Wergifosse,  T. A. Wesolowski,  A. White,  
 J. Witte,  A. Yamada,  Jun Yang,  K. Yao,  S. Yeganeh,  S. R. Yost,  
 Zhi-Qiang You,  A. Zech,  Igor Ying Zhang,  Xing Zhang,  Yan Zhao,  
 Ying Zhu,  B. R. Brooks,  G. K. L. Chan,  C. J. Cramer,  M. S. Gordon,  
 W. J. Hehre,  A. Klamt,  M. W. Schmidt,  C. D. Sherrill,  D. G. Truhlar,  
 A. Aspuru-Guzik,  R. Baer,  A. T. Bell,  N. A. Besley,  Jeng-Da Chai,  
 A. E. DePrince, III,  R. A. DiStasio Jr.,  A. Dreuw,  B. D. Dunietz,  
 T. R. Furlani,  Chao-Ping Hsu,  Yousung Jung,  Jing Kong,  D. S. Lambrecht,  
 WanZhen Liang,  C. Ochsenfeld,  V. A. Rassolov,  L. V. Slipchenko,  
 J. E. Subotnik,  T. Van Voorhis,  J. M. Herbert,  A. I. Krylov,  
 P. M. W. Gill,  M. Head-Gordon

 Contributors to earlier versions of Q-Chem not listed above: 
 R. D. Adamson,  B. Austin,  J. Baker,  G. J. O. Beran,  K. Brandhorst,  
 S. T. Brown,  E. F. C. Byrd,  A. K. Chakraborty,  C.-L. Cheng,  
 Siu Hung Chien,  D. M. Chipman,  D. L. Crittenden,  H. Dachsel,  
 R. J. Doerksen,  A. D. Dutoi,  L. Fusti-Molnar,  W. A. Goddard III,  
 A. Golubeva-Zadorozhnaya,  S. R. Gwaltney,  G. Hawkins,  A. Heyden,  
 S. Hirata,  G. Kedziora,  F. J. Keil,  C. Kelley,  Jihan Kim,  R. A. King,  
 R. Z. Khaliullin,  P. P. Korambath,  W. Kurlancheek,  A. M. Lee,  M. S. Lee,  
 S. V. Levchenko,  Ching Yeh Lin,  D. Liotard,  R. C. Lochan,  I. Lotan,  
 P. E. Maslen,  N. Nair,  D. P. O'Neill,  D. Neuhauser,  E. Neuscamman,  
 C. M. Oana,  R. Olson,  B. Peters,  R. Peverati,  P. A. Pieniazek,  
 Y. M. Rhee,  J. Ritchie,  M. A. Rohrdanz,  E. Rosta,  N. J. Russ,  
 H. F. Schaefer III,  N. E. Schultz,  N. Shenvi,  A. C. Simmonett,  A. Sodt,  
 D. Stuck,  K. S. Thanthiriwatte,  V. Vanovschi,  Tao Wang,  A. Warshel,  
 C. F. Williams,  Q. Wu,  X. Xu,  W. Zhang

 Please cite Q-Chem as follows:
 Y. Shao et al., Mol. Phys. 113, 184-215 (2015)
 DOI: 10.1080/00268976.2014.952696

 Q-Chem 5.2.1 for Intel X86 EM64T Linux

 Parts of Q-Chem use Armadillo 8.300.2 (Tropical Shenanigans).
 http://arma.sourceforge.net/

 Q-Chem begins on Mon May 10 10:48:29 2021  

compute-0-1.local
Host: 0

     Scratch files written to /home/meili/scratch/qchem42412//Frg2//
NAlpha2: 40
NElect   40
Mult     1

Checking the input file for inconsistencies... 	...done.

--------------------------------------------------------------
User input:
--------------------------------------------------------------
$molecule
0 1
 6	18.7060000000	30.5770000000	20.5090000000
 1	18.4850000000	31.0230000000	19.5080000000
 6	17.6470000000	31.1690000000	21.5160000000
 8	17.9750000000	31.6590000000	22.6040000000
 7	16.3830000000	31.2450000000	21.1230000000
 1	16.1700000000	30.8710000000	20.1960000000
 6	15.2640000000	31.9950000000	21.7590000000
 1	15.7130000000	32.9140000000	22.2650000000
 1	19.6960000000	30.8400000000	20.8190000000
 1	18.6480000000	29.5090000000	20.4750000000
 1	14.7770000000	31.3790000000	22.4860000000
 1	14.5390000000	32.2830000000	21.0270000000
$end
$rem
EDA2		1
METHOD		WB97X-V
BASIS		DEF2-TZVPD
XC_GRID		000099000590
NL_GRID		1
UNRESTRICTED		FALSE
MAX_SCF_CYCLES		200
SYMMETRY		FALSE
SYM_IGNORE		TRUE
BASIS_LIN_DEP_THRESH		6
THRESH		14
SCF_CONVERGENCE		8
SCF_PRINT_FRGM		TRUE
!required keywords
JOBTYPE		SP
SYM_IGNORE		TRUE
SUBSYSTEM		TRUE
GEN_SCFMAN		TRUE
CHILD_INSTRUCTION		2
SYM_IGNORE		TRUE
SCFMI		0
RI_K 0		
PARI_K 0		
MIN_PARI_K 0		
IARI_K 0		
OCC_RI_K 0		
PURECART		1111
MEM_STATIC		2000
MEM_TOTAL		2000
GUI		0
CHILD_MP		1
CHILD_MP_ORDERS		232
FRZ_RELAX		0
FRZ_RELAX_METHOD		0
EDA_CLS_ELEC		1
EDA_CLS_DISP		0
FRZ_ORTHO_DECOMP		1
EDA2		FALSE
FRGM_METHOD		FALSE
CIS_N_ROOTS  0
LOCAL_CIS    0
CIS_RLX_DNS  1
$end
--------------------------------------------------------------
 ----------------------------------------------------------------
             Standard Nuclear Orientation (Angstroms)
    I     Atom           X                Y                Z
 ----------------------------------------------------------------
    1      C      18.7060000000    30.5770000000    20.5090000000
    2      H      18.4850000000    31.0230000000    19.5080000000
    3      C      17.6470000000    31.1690000000    21.5160000000
    4      O      17.9750000000    31.6590000000    22.6040000000
    5      N      16.3830000000    31.2450000000    21.1230000000
    6      H      16.1700000000    30.8710000000    20.1960000000
    7      C      15.2640000000    31.9950000000    21.7590000000
    8      H      15.7130000000    32.9140000000    22.2650000000
    9      H      19.6960000000    30.8400000000    20.8190000000
   10      H      18.6480000000    29.5090000000    20.4750000000
   11      H      14.7770000000    31.3790000000    22.4860000000
   12      H      14.5390000000    32.2830000000    21.0270000000
 ----------------------------------------------------------------
 Nuclear Repulsion Energy =         178.08558120 hartrees
 There are       20 alpha and       20 beta electrons
 Requested basis set is def2-TZVPD
 There are 101 shells and 251 basis functions

 Total QAlloc Memory Limit   2000 MB
 Mega-Array Size      1956 MB
 MEM_STATIC part      2000 MB

                       Distance Matrix (Angstroms)
             C (  1)   H (  2)   C (  3)   O (  4)   N (  5)   H (  6)
   H (  2)  1.117926
   C (  3)  1.576704  2.180739
   O (  4)  2.468625  3.201533  1.237509
   N (  5)  2.493902  2.660059  1.325866  2.213418
   H (  6)  2.572101  2.419850  2.003181  3.110857  1.022044
   C (  7)  3.926906  4.048040  2.533775  2.859448  1.489684  2.127717
   H (  8)  4.183677  4.342915  2.710421  2.608944  2.130405  2.943375
   H (  9)  1.070219  1.794082  2.189167  2.611288  3.351479  3.580749
   H ( 10)  1.070114  1.803844  2.200291  3.099689  2.926401  2.841367
   H ( 11)  4.470881  4.769118  3.036758  3.212402  2.110678  2.728115
   H ( 12)  4.532400  4.412015  3.337631  3.831762  2.118253  2.311810
             C (  7)   H (  8)   H (  9)   H ( 10)   H ( 11)
   H (  8)  1.141139
   H (  9)  4.675495  4.717699
   H ( 10)  4.390935  4.838631  1.728641
   H ( 11)  1.070119  1.811398  5.221683  4.746121
   H ( 12)  1.069763  1.819088  5.359120  4.988353  1.732784

 A cutoff of  1.0D-14 yielded   5012 shell pairs
 There are     31546 function pairs (     39682 Cartesian)
 Smallest overlap matrix eigenvalue = 9.85E-06

 Scale SEOQF with 1.000000e-03/1.000000e-03/1.000000e-03

 Standard Electronic Orientation quadrupole field applied
 Nucleus-field energy     =     0.0000000125 hartrees
 Guess from superposition of atomic densities
 Warning:  Energy on first SCF cycle will be non-variational
 SAD guess density has 40.000000 electrons

 -----------------------------------------------------------------------
  General SCF calculation program by
  Eric Jon Sundstrom, Paul Horn, Yuezhi Mao, Dmitri Zuev, Alec White,
  David Stuck, Shaama M.S., Shane Yost, Joonho Lee, David Small,
  Daniel Levine, Susi Lehtola, Hugh Burton, Evgeny Epifanovsky,
  Bang C. Huynh
 -----------------------------------------------------------------------
 Exchange:     0.1670 Hartree-Fock + 1.0000 wB97X-V + LR-HF
 Correlation:  1.0000 wB97X-V
 Using Euler-Maclaurin-Lebedev (99,590) quadrature formula
 Nonlocal Correlation:  VV10 with C = 0.0100 and b = 6.00 and scale = 1.00000
 Grid used for NLC:  SG-1 standard quadrature
Energy prior to optimization (guess energy) = -248.413077412595
Begin Timing: Total SCF Calculation
begin iterations for algorithm: DIIS         
the SCF tolerance is set to 1.00e-08
    1    -248.4130774126      4.28e-03     00000 
    2    -248.3401066600      5.99e-03     00000 
    3    -248.5340170657      4.96e-04     00000 
    4    -248.5355030991      2.30e-04     00000 
    5    -248.5358577346      5.32e-05     00000 
    6    -248.5358844031      2.02e-05     00000 
    7    -248.5358895240      5.60e-06     00000 
    8    -248.5358902118      1.77e-06     00000 
    9    -248.5358902617      6.45e-07     00000 
   10    -248.5358902666      1.22e-07     00000 
   11    -248.5358902668      2.55e-08     00000 
   12    -248.5358902668      1.03e-08     00000 
   13    -248.5358902668      2.67e-09     00000 Convergence criterion met
Timing for Total SCF: 436.00s (wall), 2741.84s (cpu)
Multipole orders to be included
        2
        3
computing dipole RHS
computing quadrupole RHS
total number of RHS in solve_reponses: 8
RHS batch sizes
        8
Beginning Block Conjugate Gradient Iterations. Batch Number: 0
computing hessian-vector products by finite difference
              1      4.81e-01     00000 Conjugate Gradient Iteration
computing hessian-vector products by finite difference
              2      1.52e-01     00000 Conjugate Gradient Iteration
computing hessian-vector products by finite difference
              3      3.91e-02     00000 Conjugate Gradient Iteration
computing hessian-vector products by finite difference
              4      9.44e-03     00000 Conjugate Gradient Iteration
computing hessian-vector products by finite difference
              5      1.74e-03     00000 Conjugate Gradient Iteration
computing hessian-vector products by finite difference
              6      3.40e-04     00000 Conjugate Gradient Iteration
computing hessian-vector products by finite difference
              7      5.64e-05     00000 Conjugate Gradient Iteration
computing hessian-vector products by finite difference
              8      7.81e-06     00000 Conjugate Gradient Iteration
computing hessian-vector products by finite difference
              9      1.23e-06     00000 Conjugate Gradient Iteration
computing hessian-vector products by finite difference
             10      1.86e-07     00000 Conjugate Gradient Iteration
computing hessian-vector products by finite difference
             11      2.86e-08     00000 Conjugate Gradient Iteration
computing hessian-vector products by finite difference
             12      5.27e-09     00000 CG Converged
batch 0 complete
Done Calculating Responses
TESTING ORTHOGONALIZATION OF MULTIPOLE BASIS
Multipole virts passed orthogonality test
Virts Per Order
           60
          100

 --------------------------------------------------------------

                    Orbital Energies (a.u.)
 --------------------------------------------------------------

 Alpha MOs
 -- Occupied --
-19.1622 -14.4395 -10.3693 -10.3101 -10.2777  -1.1553  -1.0471  -0.8791
 -0.8252  -0.6972  -0.6218  -0.5785  -0.5688  -0.5393  -0.5162  -0.5109
 -0.4860  -0.4662  -0.3576  -0.3495
 -- Virtual --
  0.0540   0.0763   0.0939   0.1070   0.1081   0.1248   0.1341   0.1412
  0.1489   0.1603   0.1636   0.1823   0.1836   0.1974   0.2034   0.2259
  0.2351   0.2424   0.2498   0.2597   0.2710   0.2771   0.2858   0.2919
  0.2973   0.3057   0.3187   0.3274   0.3424   0.3514   0.3521   0.3551
  0.3674   0.3748   0.3783   0.3802   0.3885   0.4006   0.4065   0.4085
  0.4191   0.4349   0.4482   0.4552   0.4593   0.4693   0.4765   0.4798
  0.4943   0.4987   0.5092   0.5149   0.5222   0.5298   0.5461   0.5564
  0.5682   0.5719   0.5881   0.5993   0.6129   0.6347   0.6569   0.6580
  0.6745   0.6886   0.7014   0.7230   0.7307   0.7419   0.7457   0.7586
  0.7785   0.7811   0.7938   0.7981   0.8126   0.8209   0.8333   0.8445
  0.8521   0.8745   0.8899   0.8998   0.9245   0.9545   0.9784   1.0082
  1.0221   1.0491   1.0621   1.0774   1.1225   1.1395   1.1562   1.1872
  1.2128   1.2442   1.2742   1.2862   1.2987   1.3186   1.3478   1.3704
  1.4100   1.4330   1.5090   1.5268   1.6048   1.6819   1.7169   1.7270
  1.7753   1.8284   1.8373   1.8625   1.8716   1.8937   1.9100   1.9179
  1.9218   1.9368   1.9799   2.0095   2.0244   2.0732   2.0932   2.1072
  2.1457   2.1771   2.2171   2.2351   2.2797   2.3104   2.3259   2.3447
  2.3819   2.3999   2.4513   2.4566   2.5076   2.5431   2.5691   2.5983
  2.6074   2.6162   2.6265   2.6863   2.7539   2.7773   2.8209   2.8246
  2.8417   2.8640   2.8982   2.9225   2.9444   3.0230   3.0592   3.1139
  3.1477   3.1881   3.2150   3.2508   3.2786   3.2984   3.3227   3.3289
  3.3355   3.3402   3.4014   3.4069   3.4142   3.4382   3.4734   3.5135
  3.5355   3.5773   3.5905   3.6196   3.6377   3.6656   3.6806   3.7423
  3.7778   3.8767   3.8939   3.9479   3.9973   4.0758   4.1224   4.1472
  4.2285   4.3215   4.3399   4.4490   4.4638   4.5500   4.6387   4.6639
  4.7130   4.8253   4.9350   4.9542   4.9952   5.1856   5.2322   5.2420
  5.3259   5.4135   5.4290   5.4328   5.6076   5.6710   5.7472   5.7842
  5.9809   6.0991   6.2592   6.5129   6.6818   6.7454   6.8285   7.0060
  7.2666   7.3493  22.5625  22.5892  23.5598  32.6877  44.3284
 --------------------------------------------------------------

          Ground-State Mulliken Net Atomic Charges

     Atom                 Charge (a.u.)
  ----------------------------------------
      1 C                    -0.715237
      2 H                     0.211154
      3 C                     0.489091
      4 O                    -0.550651
      5 N                    -0.082123
      6 H                     0.210641
      7 C                    -0.687311
      8 H                     0.233965
      9 H                     0.187622
     10 H                     0.224732
     11 H                     0.218925
     12 H                     0.259192
  ----------------------------------------
  Sum of atomic charges =     0.000000

 -----------------------------------------------------------------
                    Cartesian Multipole Moments
 -----------------------------------------------------------------
    Charge (ESU x 10^10)
                 0.0000
    Dipole Moment (Debye)
         X      -2.2173      Y      -0.9368      Z      -3.4537
       Tot       4.2097
    Quadrupole Moments (Debye-Ang)
        XX    -103.9653     XY     -87.8052     YY     -89.4348
        XZ    -109.2898     YZ    -128.3748     ZZ    -181.3597
    Octopole Moments (Debye-Ang^2)
       XXX   -3397.9599    XXY   -3610.5126    XYY   -3852.8750
       YYY   -5647.6009    XXZ   -3334.8580    XYZ   -3819.9599
       YYZ   -5312.8402    XZZ   -4243.8117    YZZ   -6117.8353
       ZZZ   -6909.5041
    Hexadecapole Moments (Debye-Ang^3)
      XXXX  -94722.7412   XXXY -113133.9818   XXYY -133316.3694
      XYYY -171713.0529   YYYY -296366.8404   XXXZ  -92657.9769
      XXYZ -112137.1397   XYYZ -143382.4468   YYYZ -227568.2478
      XXZZ -105294.5576   XYZZ -141513.6858   YYZZ -219493.1577
      XZZZ -144198.4015   YZZZ -225955.8492   ZZZZ -228663.9059
 -----------------------------------------------------------------
Archival summary:
1\1\compute-0-1.local\SP\ProcedureUnspecified\BasisUnspecified\1137\meili\MonMay1012:14:192021MonMay1012:14:192021\0\\#,ProcedureUnspecified,BasisUnspecified,\\0,1\N\H,1,1.02204\C,1,1.32587,2,116.523\O,3,1.23751,1,119.379,2,176.821,0\C,1,1.48968,2,114.514,3,170.835,0\H,5,1.06976,1,110.639,2,-18.0388,0\H,5,1.07012,1,110.004,2,101.384,0\H,5,1.14114,1,107.41,2,-138.951,0\C,3,1.5767,1,118.198,2,2.67056,0\H,9,1.07011,3,111.015,1,-77.8371,0\H,9,1.07022,3,110.123,1,162.935,0\H,9,1.11793,3,106.816,1,43.3522,0\\\@

 Total job time:  5149.50s(wall), 32194.94s(cpu) 
 Mon May 10 12:14:19 2021

        *************************************************************
        *                                                           *
        *  Thank you very much for using Q-Chem.  Have a nice day.  *
        *                                                           *
        *************************************************************


Done Job For Fragment 1
calling putenv with: QCSCRATCH=/home/meili/scratch 
calling putenv with: QCTHREADS=8 
Doing General SCFMI
 Exchange:     0.1670 Hartree-Fock + 1.0000 wB97X-V + LR-HF
 Correlation:  1.0000 wB97X-V
 Using Euler-Maclaurin-Lebedev (99,590) quadrature formula
 Nonlocal Correlation:  VV10 with C = 0.0100 and b = 6.00 and scale = 1.00000
 Grid used for NLC:  SG-1 standard quadrature
performing fock build before subrot guess so that all methods have access
Printing subrot_rss_gen Method Specification:
Occupied Subspace Method is 0
Virtual Subspace Method is 0
Energy of the unrelaxed supersystem initial determinant -497.075773869884
write pseudocanon occs and virts to disk
write pseudocanon orbital energies to disk
Tolerance of ortho_decomp_scf: 1.00e-06
GDM subspace size: 20
Beginning the Orthogonal Decomposition of the Initial Supersystem Wavefunction
    1    -497.0522342770      4.15e-02     ortho_decomp Preconditoned Steepest Descent
    2    -497.0558620868      1.07e-03     ortho_decomp BFGS Step
    3    -497.0558762701      8.64e-05     ortho_decomp BFGS Step
    4    -497.0558762910      3.32e-06     ortho_decomp BFGS Step
    5    -497.0558762911      1.15e-07     ortho_decomp 00000 Convergence criterion met
 Hartree-Fock
 Hartree-Fock
 Hartree-Fock
Doing General SCFMI
 Exchange:     0.1670 Hartree-Fock + 1.0000 wB97X-V + LR-HF
 Correlation:  1.0000 wB97X-V
 Using Euler-Maclaurin-Lebedev (99,590) quadrature formula
 Nonlocal Correlation:  VV10 with C = 0.0100 and b = 6.00 and scale = 1.00000
 Grid used for NLC:  SG-1 standard quadrature
performing fock build at end of subrot_r(subrot) constructor so that all methods have access
<S^2> of initial wavefunction before polarization iterations 0.0000000000
Beginning iterations for the determination of the polarized wavefunction
Energy prior to optimization (guess energy) = -497.075773869884
Begin Timing: Total SCF Calculation
begin iterations for algorithm: DIIS         
the SCF tolerance is set to 1.00e-08
    1    -497.0757738699      1.23e-04     00000 
    2    -497.0769250397      4.77e-05     00000 
    3    -497.0770348529      3.10e-05     00000 
    4    -497.0770685162      1.31e-05     00000 
    5    -497.0770749306      4.90e-06     00000 
    6    -497.0770760750      1.72e-06     00000 
    7    -497.0770762884      7.87e-07     00000 
    8    -497.0770763264      2.73e-07     00000 
    9    -497.0770763314      1.29e-07     00000 
   10    -497.0770763320      6.40e-08     00000 
   11    -497.0770763322      1.88e-08     00000 
   12    -497.0770763322      6.46e-09     00000 Convergence criterion met
write pseudocanon occs and virts to disk
write pseudocanon orbital energies to disk
Timing for Total SCF: 1986.00s (wall), 12673.25s (cpu)
<S^2> of polarized wavefunction after polarization iterations 0.0000000000
relaxing scfmi constraint to allow all rotations in the entire AO span
Doing General SCFMI
 Exchange:     0.1670 Hartree-Fock + 1.0000 wB97X-V + LR-HF
 Correlation:  1.0000 wB97X-V
 Using Euler-Maclaurin-Lebedev (99,590) quadrature formula
 Nonlocal Correlation:  VV10 with C = 0.0100 and b = 6.00 and scale = 1.00000
 Grid used for NLC:  SG-1 standard quadrature
performing fock build at end of subrot_r(subrot) constructor so that all methods have access
<S^2> of polarized wavefunction before ct-allowed iterations 0.0000000000
Beginning iterations for the determination of the CT-Allowed wavefunction
Energy prior to optimization (guess energy) = -497.077076332213
Begin Timing: Total SCF Calculation
begin iterations for algorithm: DIIS         
the SCF tolerance is set to 1.00e-08
    1    -497.0770763322      8.15e-05     00000 
    2    -497.0778917133      9.07e-06     00000 
    3    -497.0779192155      2.59e-06     00000 
    4    -497.0779198278      2.85e-06     00000 
    5    -497.0779205478      2.54e-07     00000 
    6    -497.0779205572      1.19e-07     00000 
    7    -497.0779205594      2.97e-08     00000 
    8    -497.0779205595      1.08e-08     00000 
    9    -497.0779205595      3.66e-09     00000 Convergence criterion met
write pseudocanon occs and virts to disk
write pseudocanon orbital energies to disk
Timing for Total SCF: 1209.00s (wall), 8354.20s (cpu)
<S^2> of ct_allowed wavefunction after ct-allowed iterations 0.0000000000

================================
        Results of EDA2         
================================
Basic EDA Quantities
--------------------
Fragment Energies (Ha):
1 -248.5355351931
2 -248.5358902668
--------------------
  E_prp (kJ/mol) = 0.0000
  E_frz (kJ/mol) = -11.4169
  E_pol (kJ/mol) = -3.4197
  E_vct (kJ/mol) = -2.2165
  E_int (kJ/mol) = -17.0531
--------------------


Initial Wavefunction Decomposition
--------------------
  --------------------
  Orthogonal Fragment Subspace Decomposition:
  --------------------
     E_elec   (ELEC)   (kJ/mol) = -26.9056
     E_pauli  (PAULI)  (kJ/mol) = 31.6606
     E_disp   (DISP)   (kJ/mol) = -16.1719
     --------------------
     Terms summing to E_pauli:
     --------------------
        E_kep_pauli       (kJ/mol) = 40.8248
        E_disp_free_pauli (kJ/mol) = -9.1642
  --------------------
  Classical Frozen Decomposition:
  --------------------
     E_cls_elec  (CLS ELEC)  (kJ/mol) = -11.4168
     E_cls_pauli (CLS PAULI) (kJ/mol) = -0.0001
    [E_mod_pauli (MOD PAULI) (kJ/mol) = 16.1718 (CLS PAULI - DISP from orthogonal decomposition) ]
  --------------------
--------------------

Simplified EDA Summary (kJ/mol)
--------------------
 PREPARATION     0.0000
 FROZEN          4.7550      (does not include dispersion)
[PAULI           31.6606]     (if this is negligible, then frozen describes electrostatics)
 DISPERSION      -16.1719
 POLARIZATION    -3.4197
 CHARGE TRANSFER -2.2165
 TOTAL           -17.0531     (PRP + FRZ + DISP + POL + CT)
--------------------

 --------------------------------------------------------------

                    Orbital Energies (a.u.)
 --------------------------------------------------------------

 Alpha MOs
 -- Occupied --
-19.1685 -19.1576 -14.4421 -14.4314 -10.3745 -10.3646 -10.3032 -10.2908
-10.2771 -10.2586  -1.1500  -1.1422  -1.0506  -1.0390  -0.8783  -0.8735
 -0.8192  -0.8150  -0.7040  -0.6884  -0.6150  -0.6134  -0.5847  -0.5716
 -0.5692  -0.5634  -0.5445  -0.5308  -0.5094  -0.5086  -0.5054  -0.4925
 -0.4891  -0.4775  -0.4617  -0.4539  -0.3608  -0.3499  -0.3478  -0.3452
 -- Virtual --
  0.0453   0.0689   0.0721   0.0816   0.0971   0.0989   0.1062   0.1080
  0.1152   0.1177   0.1237   0.1316   0.1375   0.1388   0.1473   0.1595
  0.1635   0.1651   0.1696   0.1740   0.1804   0.1921   0.1955   0.1998
  0.2053   0.2153   0.2218   0.2299   0.2340   0.2380   0.2440   0.2502
  0.2539   0.2605   0.2611   0.2675   0.2719   0.2781   0.2792   0.2882
  0.2888   0.2943   0.3015   0.3043   0.3109   0.3139   0.3172   0.3209
  0.3258   0.3272   0.3342   0.3409   0.3453   0.3477   0.3520   0.3554
  0.3580   0.3630   0.3654   0.3685   0.3741   0.3753   0.3837   0.3854
  0.3891   0.3918   0.3933   0.3970   0.4042   0.4085   0.4119   0.4134
  0.4236   0.4289   0.4315   0.4374   0.4433   0.4518   0.4532   0.4563
  0.4643   0.4675   0.4709   0.4747   0.4809   0.4907   0.4915   0.4926
  0.4970   0.5030   0.5079   0.5100   0.5170   0.5191   0.5217   0.5257
  0.5287   0.5358   0.5462   0.5505   0.5518   0.5543   0.5622   0.5703
  0.5741   0.5754   0.5823   0.5891   0.5955   0.5971   0.6122   0.6163
  0.6198   0.6239   0.6405   0.6423   0.6510   0.6541   0.6574   0.6682
  0.6721   0.6848   0.6881   0.6919   0.7045   0.7096   0.7137   0.7225
  0.7325   0.7387   0.7440   0.7516   0.7583   0.7621   0.7681   0.7737
  0.7757   0.7840   0.7869   0.7979   0.8030   0.8068   0.8083   0.8167
  0.8191   0.8269   0.8318   0.8348   0.8438   0.8503   0.8591   0.8617
  0.8756   0.8818   0.8848   0.8866   0.8930   0.9035   0.9156   0.9257
  0.9318   0.9424   0.9472   0.9559   0.9718   0.9793   0.9833   0.9939
  1.0074   1.0165   1.0187   1.0332   1.0481   1.0522   1.0583   1.0718
  1.0802   1.0876   1.1094   1.1211   1.1260   1.1343   1.1509   1.1651
  1.1753   1.1805   1.1886   1.2017   1.2083   1.2197   1.2474   1.2636
  1.2769   1.2913   1.2949   1.3022   1.3051   1.3244   1.3259   1.3396
  1.3587   1.3703   1.3857   1.3948   1.4071   1.4157   1.4263   1.4478
  1.4556   1.4782   1.5025   1.5295   1.5393   1.5569   1.5726   1.6112
  1.6406   1.6458   1.7146   1.7269   1.7341   1.7581   1.7701   1.7932
  1.8086   1.8232   1.8633   1.8715   1.8857   1.8916   1.8957   1.9050
  1.9083   1.9187   1.9316   1.9422   1.9511   1.9618   1.9682   1.9810
  1.9859   1.9984   2.0203   2.0270   2.0342   2.0352   2.0609   2.0774
  2.0909   2.0979   2.1114   2.1156   2.1278   2.1450   2.1651   2.1806
  2.1818   2.1923   2.2102   2.2455   2.2488   2.2630   2.2774   2.3117
  2.3269   2.3391   2.3494   2.3623   2.3785   2.3905   2.4024   2.4101
  2.4245   2.4342   2.4563   2.4779   2.4891   2.5062   2.5219   2.5326
  2.5377   2.5663   2.5916   2.5991   2.6134   2.6195   2.6288   2.6364
  2.6423   2.6655   2.6691   2.6847   2.6997   2.7157   2.7245   2.7417
  2.7681   2.7862   2.8176   2.8271   2.8529   2.8615   2.8700   2.8785
  2.8817   2.9085   2.9105   2.9139   2.9249   2.9508   2.9705   2.9832
  2.9965   3.0191   3.0577   3.0888   3.1087   3.1203   3.1545   3.1724
  3.1965   3.2083   3.2219   3.2272   3.2497   3.2612   3.2773   3.2973
  3.3031   3.3098   3.3181   3.3308   3.3350   3.3448   3.3473   3.3571
  3.3625   3.3696   3.3889   3.4103   3.4250   3.4365   3.4417   3.4559
  3.4586   3.4721   3.4807   3.4970   3.5094   3.5238   3.5502   3.5591
  3.5758   3.5907   3.6001   3.6078   3.6341   3.6424   3.6488   3.6530
  3.6744   3.7032   3.7103   3.7181   3.7442   3.7601   3.7767   3.7983
  3.8133   3.8291   3.9050   3.9101   3.9209   3.9302   3.9731   3.9790
  4.0175   4.0238   4.0669   4.0969   4.1145   4.1556   4.1654   4.1877
  4.2568   4.2945   4.3412   4.3453   4.3794   4.4075   4.4800   4.4860
  4.5085   4.5539   4.5831   4.6350   4.6548   4.6898   4.7047   4.7453
  4.7617   4.7992   4.8308   4.8595   4.9571   4.9607   4.9785   4.9831
  5.0099   5.0255   5.1884   5.2206   5.2425   5.2605   5.2670   5.2896
  5.3230   5.3425   5.4055   5.4388   5.4528   5.4555   5.4737   5.5089
  5.5538   5.6030   5.6369   5.6951   5.7031   5.7598   5.7665   5.7992
  5.9035   5.9959   6.1237   6.1310   6.2416   6.2889   6.4984   6.5357
  6.6972   6.7204   6.7290   6.7713   6.8425   6.8582   7.0366   7.0588
  7.2394   7.2851   7.3491   7.3712  22.5926  22.6375  22.6763  22.7165
 23.4254  23.5845  32.7123  32.7507  44.4113  44.4875
 --------------------------------------------------------------

          Ground-State Mulliken Net Atomic Charges

     Atom                 Charge (a.u.)
  ----------------------------------------
      1 C                    -0.831128
      2 H                     0.236394
      3 C                     0.543477
      4 O                    -0.576655
      5 N                    -0.050097
      6 H                     0.208929
      7 C                    -0.738209
      8 H                     0.268616
      9 H                     0.257005
     10 H                     0.199478
     11 H                     0.263087
     12 H                     0.227695
     13 C                    -0.790239
     14 H                     0.214367
     15 C                     0.492908
     16 O                    -0.559129
     17 N                    -0.045099
     18 H                     0.207069
     19 C                    -0.667682
     20 H                     0.232099
     21 H                     0.172333
     22 H                     0.269194
     23 H                     0.215452
     24 H                     0.250133
  ----------------------------------------
  Sum of atomic charges =     0.000000

 -----------------------------------------------------------------
                    Cartesian Multipole Moments
 -----------------------------------------------------------------
    Charge (ESU x 10^10)
                -0.0000
    Dipole Moment (Debye)
         X       0.9659      Y      -0.4184      Z      -5.8388
       Tot       5.9329
    Quadrupole Moments (Debye-Ang)
        XX     -23.3392     XY      32.2399     YY     -85.5653
        XZ     -82.2707     YZ    -202.8782     ZZ    -309.6345
    Octopole Moments (Debye-Ang^2)
       XXX   -2106.6933    XXY    -649.0509    XYY      76.8179
       YYY   -7153.3360    XXZ   -2299.3514    XYZ   -2726.5096
       YYZ   -8276.8687    XZZ   -5007.8777    YZZ  -10463.3400
       ZZZ  -11810.2161
    Hexadecapole Moments (Debye-Ang^3)
      XXXX  -84461.6083   XXXY  -65756.9771   XXYY  -34998.0145
      XYYY  -63885.8998   YYYY -446806.3511   XXXZ  -76302.2284
      XXYZ  -73538.1797   XYYZ -111823.2580   YYYZ -367361.6701
      XXZZ -106172.0343   XYZZ -165925.0840   YYZZ -380480.3501
      XZZZ -198200.7119   YZZZ -395443.3690   ZZZZ -389618.7245
 -----------------------------------------------------------------
Archival summary:
1\1\compute-0-1.local\SP\ProcedureUnspecified\BasisUnspecified\22614\meili\MonMay1013:51:352021MonMay1013:51:352021\0\\#,ProcedureUnspecified,BasisUnspecified,\\0,1\O\C,1,1.26027\N,2,1.36312,1,125.224\H,3,1.01329,2,118.092,1,-177.775,0\C,3,1.47142,2,122.558,1,17.5046,0\H,5,1.06971,3,107.89,2,-123.239,0\H,5,1.07026,3,108.773,2,115.874,0\H,5,1.09667,3,112.144,2,-4.52247,0\C,2,1.55513,1,119.524,3,174.688,0\H,9,1.06997,2,111.734,1,147.056,0\H,9,1.07047,2,114.733,1,29.032,0\H,9,1.07095,2,100.309,1,-94.4733,0\H,1,2.42019,2,112.049,3,99.7301,0\C,13,1.14114,1,140.42,2,-70.7823,0\H,14,1.06976,13,110.687,1,-46.1208,0\H,14,1.07012,13,109.962,1,-165.548,0\N,14,1.48968,13,107.41,1,74.7615,0\H,17,1.02204,14,114.514,13,-138.951,0\C,17,1.32587,14,128.201,13,30.6006,0\O,19,1.23751,17,119.379,14,7.44808,0\C,19,1.5767,17,118.198,14,-166.703,0\H,21,1.07011,19,111.015,17,-77.8371,0\H,21,1.07022,19,110.123,17,162.935,0\H,21,1.11793,19,106.816,17,43.3522,0\\\@

 Total job time:  16945.44s(wall), 38154.74s(cpu) 
 Mon May 10 13:51:35 2021

        *************************************************************
        *                                                           *
        *  Thank you very much for using Q-Chem.  Have a nice day.  *
        *                                                           *
        *************************************************************


